
units lj                  # Use reduced LJ style units
atom_style atomic         # Uncharged point particles
atom_modify map hash      # Needed for indexing of clusters etc
                          # Used to be able to find where atoms are in relation to each other.

lattice fcc 1.0 spacing 1 1 1
Lattice spacing in x,y,z = 1.5874011 1.5874011 1.5874011
region box block 0 10 0 10 0 10 units lattice
create_box 2 box
Created orthogonal box = (0.0000000 0.0000000 0.0000000) to (15.874011 15.874011 15.874011)
  3 by 4 by 4 MPI processor grid
create_atoms 1 box
Created 4000 atoms
  using lattice units in orthogonal box = (0.0000000 0.0000000 0.0000000) to (15.874011 15.874011 15.874011)
  create_atoms CPU = 0.002 seconds
set type 1 type/fraction 2 0.99 78393
Setting atom values ...
  3965 settings made for type/fraction
mass 1 1.0
mass 2 1.0
pair_style lj/cut  3.5
pair_modify tail  yes
pair_coeff 1  1  1.0  1.0   # Intearaction between 1 and 1 set with epsilon = 1 and sigma = 1
pair_coeff 1  2  1.5  0.8
pair_coeff 2  2  0.5  0.88

write_data data.0
System init for write_data ...
Neighbor list info ...
  update every 1 steps, delay 10 steps, check yes
  max neighbors/atom: 2000, page size: 100000
  master list distance cutoff = 3.8
  ghost atom cutoff = 3.8
  binsize = 1.9, bins = 9 9 9
  1 neighbor lists, perpetual/occasional/extra = 1 0 0
  (1) pair lj/cut, perpetual
      attributes: half, newton on
      pair build: half/bin/atomonly/newton
      stencil: half/bin/3d
      bin: standard
WARNING: Not all mixed pair coeffs generated from mixing. Use write_data with 'pair ij' option to store all pair coeffs. (../write_data.cpp:312)


#############################
#   M E L T   S Y S T E M   #
#############################

velocity all create 2.4 6229865 mom yes dist gaussian # Assign velocities
                                                    # Temperature 2.4, random number seed, zero linear momentum
                                                                                # Gaussian distribution

timestep 0.002   # simulation timestep
thermo 1000       # output thermodynamic data every 1000 steps bf 100

# Define a fix  in this case with index 1 applied to all
# particles in the simulation. This fix is for simulations
# in the anisotropic NPT ensemble. Note that we use the MTK
# correction.
fix 1 all npt temp 2.4 2.4 0.1 iso 5.68 5.68 0.5 mtk yes tchain 5 pchain 5 # Use NPT ensemble
                                                                         # Set temperature and pressure and damping
                                                                         # Numbers of thermostats in chain and in barostat
run 10000          # run for 10000 steps
Per MPI rank memory allocation (min/avg/max) = 3.642 | 3.644 | 3.648 Mbytes
Step Temp E_pair E_mol TotEng Press Volume 
       0          2.4   -2.7429598            0   0.85614022   -1.7792645         4000 
    1000     2.385545   -1.5014425            0    2.0759804    5.5883574    4250.2166 
    2000    2.3967299   -1.5383563            0    2.0558398    5.5009671    4234.9888 
    3000    2.3710037   -1.4804465            0      2.07517    5.7586875    4229.0245 
    4000    2.4010749   -1.4807268            0    2.1199851    6.0268444    4190.6068 
    5000    2.4429325   -1.5301957            0    2.1332869    5.5417572    4258.3064 
    6000    2.3783921   -1.5087383            0    2.0579579    5.3288471    4310.1398 
    7000    2.4124736   -1.4743404            0    2.1434653    5.6547841     4281.428 
    8000    2.4283772    -1.506553            0    2.1351021    5.5166818    4274.2073 
    9000    2.4154945   -1.4912095            0    2.1311265    5.9283128    4197.1483 
   10000    2.4582851   -1.4978054            0    2.1887003    5.8001638    4228.6333 
Loop time of 2.47529 on 48 procs for 10000 steps with 4000 atoms

Performance: 698098.873 tau/day, 4039.924 timesteps/s
99.6% CPU use with 48 MPI tasks x no OpenMP threads

MPI task timing breakdown:
Section |  min time  |  avg time  |  max time  |%varavg| %total
---------------------------------------------------------------
Pair    | 1.0358     | 1.0992     | 1.2663     |   3.9 | 44.41
Neigh   | 0.20126    | 0.20959    | 0.23028    |   1.1 |  8.47
Comm    | 0.7542     | 0.87009    | 0.9578     |   5.5 | 35.15
Output  | 0.00024956 | 0.00025411 | 0.00032761 |   0.0 |  0.01
Modify  | 0.20917    | 0.28099    | 0.36062    |   9.5 | 11.35
Other   |            | 0.01513    |            |       |  0.61

Nlocal:        83.3333 ave          91 max          75 min
Histogram: 3 4 3 3 6 11 6 3 6 3
Nghost:        1584.31 ave        1617 max        1562 min
Histogram: 2 6 7 8 11 5 5 1 2 1
Neighs:        9023.27 ave       10118 max        7893 min
Histogram: 3 2 5 6 7 9 5 5 3 3

Total # of neighbors = 433117
Ave neighs/atom = 108.27925
Neighbor list builds = 902
Dangerous builds = 184

# Equilibrate just above the melting temperature to avoid step fn in T

fix 1 all npt temp 1.25 1.25 0.1 iso 5.68 5.68 0.5 mtk yes tchain 5 pchain 5
run 2000
Per MPI rank memory allocation (min/avg/max) = 3.643 | 3.645 | 3.649 Mbytes
Step Temp E_pair E_mol TotEng Press Volume 
   10000    2.4582851   -1.4978054            0    2.1887003    5.8001638    4228.6333 
   11000    1.2369784   -2.3097888            0  -0.45478506    5.6698259    3321.9567 
   12000    1.2674962   -2.3430624            0  -0.44229332    5.6280117    3306.9475 
Loop time of 0.574278 on 48 procs for 2000 steps with 4000 atoms

Performance: 601798.960 tau/day, 3482.633 timesteps/s
99.6% CPU use with 48 MPI tasks x no OpenMP threads

MPI task timing breakdown:
Section |  min time  |  avg time  |  max time  |%varavg| %total
---------------------------------------------------------------
Pair    | 0.25021    | 0.2748     | 0.30726    |   1.8 | 47.85
Neigh   | 0.037962   | 0.040231   | 0.04417    |   0.5 |  7.01
Comm    | 0.17393    | 0.21061    | 0.23984    |   2.4 | 36.67
Output  | 5.1744e-05 | 5.4535e-05 | 0.00015168 |   0.0 |  0.01
Modify  | 0.041365   | 0.043833   | 0.046133   |   0.7 |  7.63
Other   |            | 0.004745   |            |       |  0.83

Nlocal:        83.3333 ave          94 max          74 min
Histogram: 1 1 5 10 9 10 5 3 3 1
Nghost:        1865.33 ave        1898 max        1836 min
Histogram: 1 6 7 8 6 5 5 3 5 2
Neighs:        11548.2 ave       13269 max        9754 min
Histogram: 1 1 4 7 8 15 5 3 2 2

Total # of neighbors = 554312
Ave neighs/atom = 138.57800
Neighbor list builds = 143
Dangerous builds = 6

#############################
# L I N E A R  Q U E N C H  #
#############################

# Define solid atoms. This closely follows ten Wolde  Ruiz-Montero and Frenkel  Faraday Discuss  1996  104  93-110
# Compute components of the per-atom q6 vector
compute q6 all orientorder/atom degrees 1 6 components 6 nnn NULL cutoff 1.3 # compute the Q6 parameter.
                                                                             # Use all neighbours within 1.3 unit cell.

# get number of connections
compute coord_number all coord/atom orientorder q6 0.5

# An atom is solid if it has 8 or more connections (of a possible 14)
variable is_solid atom c_coord_number>=8
group solid dynamic all var is_solid    # Must be dynamic to update
dynamic group solid defined

# do clustering
compute cluster solid cluster/atom 1.3 # Create a cluster where all atoms within are solid and max 1.3 units from another member

# define chunks one chunk per cluster
compute clus_chunks solid chunk/atom c_cluster nchunk every compress yes  # Says which atoms are in which chunk

# count the size of each chunk
compute size_chunks solid property/chunk clus_chunks count


# Find the maximum entry in the vector of chunk sizes
variable max_n equal max(c_size_chunks)


# Thermo style which includes this variable
# thermo_style custom step temp pe vol v_max_n

thermo ${N}  # Print the thermo information every 100 steps
thermo 1000  

# Reset the npt fix at a lower temperature (below freezing)
fix 1  all npt temp  ${temp} ${temp}  0.1  iso  5.68  5.68  0.5  mtk yes tchain  5  pchain  5
fix 1  all npt temp  0.45 ${temp}  0.1  iso  5.68  5.68  0.5  mtk yes tchain  5  pchain  5
fix 1  all npt temp  0.45 0.45  0.1  iso  5.68  5.68  0.5  mtk yes tchain  5  pchain  5

dump dmp2 all dcd ${N} traj.dcd
dump dmp2 all dcd 1000 traj.dcd


compute msd all msd com yes
variable twopoint equal c_msd[4]/6/(step*dt+1.0e-6)
fix 9 all vector 10 c_msd[4]
variable fit equal slope(f_9)/6/(10*dt)
thermo_style custom step temp pe c_msd[4] v_twopoint v_fit v_max_n

fix 1 all npt temp 1.25 ${temp} 0.1 iso 5.68 5.68 0.5 mtk yes tchain 5 pchain 5
fix 1 all npt temp 1.25 0.45 0.1 iso 5.68 5.68 0.5 mtk yes tchain 5 pchain 5
run 5000000 # 5000000  # Run for this many steps
Neighbor list info ...
  update every 1 steps, delay 10 steps, check yes
  max neighbors/atom: 2000, page size: 100000
  master list distance cutoff = 3.8
  ghost atom cutoff = 3.8
  binsize = 1.9, bins = 8 8 8
  4 neighbor lists, perpetual/occasional/extra = 1 3 0
  (1) pair lj/cut, perpetual
      attributes: half, newton on
      pair build: half/bin/atomonly/newton
      stencil: half/bin/3d
      bin: standard
  (2) compute orientorder/atom, occasional
      attributes: full, newton on
      pair build: full/bin/atomonly
      stencil: full/bin/3d
      bin: standard
  (3) compute coord/atom, occasional
      attributes: full, newton on
      pair build: full/bin/atomonly
      stencil: full/bin/3d
      bin: standard
  (4) compute cluster/atom, occasional
      attributes: full, newton on
      pair build: full/bin/atomonly
      stencil: full/bin/3d
      bin: standard
Per MPI rank memory allocation (min/avg/max) = 9.810 | 9.819 | 9.828 Mbytes
Step Temp PotEng c_msd[4] v_twopoint v_fit v_max_n 
   12000    1.2674962   -2.3430624 2.0995533e-30 1.4580231e-32 8.3333333e+20            2 
   13000    1.2442728   -2.3286881    1.2195262 0.0078174751   0.10347369            2 
   14000    1.2318682   -2.3443993    2.5322957  0.015073188   0.10750921            1 
   15000    1.2354864   -2.2767001    3.7828053  0.021015584   0.10715582            2 
   16000    1.2338817   -2.3271753    4.9041449  0.025542421   0.10466506            1 
   17000    1.2795841   -2.3382875    6.1881721  0.030334176   0.10325464            1 
   18000    1.2355753   -2.3049123    7.5133679   0.03478411   0.10398692            1 
   19000    1.2646344   -2.3477849    8.7610595  0.038425699     0.104404            3 
   20000    1.2557777   -2.3490138    10.059184  0.041913266   0.10490377            2 
   21000      1.24786   -2.3400218    11.254353  0.044660131   0.10494475            2 
   22000    1.2634323   -2.3195238    12.724661  0.048199472   0.10527259            1 
   23000    1.2633806   -2.3217725    14.138578  0.051226729   0.10606025            1 
   24000    1.2430124   -2.3175415     15.34314   0.05327479   0.10653642            2 
   25000    1.2621464   -2.3348373    16.691907  0.055639688   0.10683909            1 
   26000    1.2253615   -2.3306814    18.079463  0.057946994   0.10731496            1 
   27000    1.2643481   -2.3242287    19.350245  0.059722978   0.10772804            1 
   28000    1.2400239    -2.298044    20.548984  0.061157691    0.1079411            2 
   29000    1.2369089   -2.3567971    21.996897  0.063209472   0.10805006            1 
   30000    1.2265372   -2.3058472    23.279728   0.06466591   0.10824424            2 
   31000    1.2285439   -2.3200733    24.685942  0.066360058   0.10837352       -1e+20 
   32000    1.2475549   -2.3106843    26.341391  0.068597371   0.10884439            1 
   33000    1.2289707   -2.3256006     27.53732  0.069538686    0.1092284            2 
   34000    1.2679921   -2.3315416    28.804994  0.070600473    0.1094668            2 
   35000    1.2588242   -2.3043459    30.153914  0.071795032   0.10959034            1 
   36000    1.2280992    -2.358637    31.432597   0.07276064   0.10979072            1 
   37000    1.2453355   -2.3281266    32.961421  0.074237435    0.1100143            1 
   38000    1.2258301   -2.3075526     34.26234   0.07513671   0.11024159            1 
   39000    1.2457843   -2.3203244     35.95286  0.076822349   0.11052871            2 
   40000    1.2552881   -2.3032352    37.224047  0.077550098    0.1108226            1 
   41000    1.2337606   -2.3155115    38.398586  0.078045906   0.11104939            1 
   42000    1.2519459    -2.326122    39.845955  0.079059433   0.11129709            1 
   43000    1.2585482   -2.3242156     41.13249  0.079714126   0.11144272            2 
   44000    1.2626754   -2.2995358    42.384589  0.080273842   0.11152757       -1e+20 
   45000    1.2337589   -2.3256613    43.739968   0.08099994   0.11159053            2 
   46000    1.2440174   -2.3407549    45.252049  0.081978349   0.11162387            1 
   47000    1.2480783    -2.309658    46.632078  0.082680989   0.11169197            2 
   48000    1.2207078    -2.338384     48.22177  0.083718349   0.11181464            1 
   49000     1.244266   -2.3262948    49.288106  0.083823309   0.11197274            1 
   50000    1.2413073   -2.3428949    51.052093  0.085086821   0.11216988            1 
   51000    1.2140118   -2.3165926    52.716127  0.086137462   0.11236951            1 
   52000    1.2054243   -2.3024939    53.902361  0.086381988   0.11256054            1 
   53000    1.2519265   -2.3383032    55.699157   0.08757729   0.11277824            1 
   54000     1.246767   -2.2952152    56.808474  0.087667397   0.11299537            1 
   55000    1.2398321   -2.3453634    57.576424  0.087237006   0.11307781            2 
   56000    1.2249537   -2.3215207    58.820324  0.087530244   0.11305037            1 
   57000    1.2471581   -2.3169705    59.829848  0.087470537    0.1129685            2 
   58000    1.2456419   -2.3239357    60.899711  0.087499585   0.11282913            3 
   59000    1.2439449   -2.3388193    62.219706   0.08788094    0.1126595            1 
   60000    1.2603555   -2.3271768    63.614892  0.088354015   0.11255357            3 
   61000    1.2756862   -2.3206469    65.181503  0.089045768   0.11247183            1 
   62000    1.2424113   -2.3327685    66.528825  0.089420463   0.11240876            2 
   63000    1.2324072   -2.3304323    67.251185  0.088956593   0.11230812            1 
   64000     1.238217   -2.3463712    68.878335  0.089685332   0.11221157            1 
   65000    1.2479695   -2.2998538    70.467546  0.090343007   0.11210598            2 
   66000    1.2257474   -2.2999282    71.058903  0.089720836   0.11200506            1 
   67000    1.2390476   -2.3590443    72.583224  0.090277642    0.1119183            1 
   68000    1.2273037   -2.3473072    74.017843  0.090708141    0.1118291            2 
   69000    1.2769678   -2.3162599    75.679496  0.091400357   0.11175805            1 
   70000    1.2810496   -2.3022323    76.933979  0.091588069    0.1117023            3 
   71000    1.2150139   -2.3371194    77.612921  0.091094977   0.11161961            1 
   72000     1.216776   -2.3318918    79.037415  0.091478489   0.11152141            1 
   73000     1.238973   -2.3298429    80.294561  0.091660457   0.11144555            1 
   74000    1.2416613   -2.3145559    82.279768  0.092657396   0.11138059            1 
   75000     1.272752   -2.3588041    83.195681  0.092439644   0.11134071            2 
   76000    1.2274569   -2.3177733     83.97416  0.092076929   0.11127321            1 
   77000    1.2205533   -2.3277589    85.659191  0.092704752   0.11122076            2 
   78000    1.2289022    -2.376485    87.023053  0.092973347    0.1111552            1 
   79000    1.2564566   -2.3171686    88.404467  0.093253657   0.11107352            2 
   80000     1.250739   -2.3205431    90.021731  0.093772636   0.11101094            2 
   81000    1.2177406   -2.3370645    91.174632  0.093801061   0.11096256            1 
   82000    1.2268408   -2.3202044    92.191299  0.093690344    0.1109167            2 
   83000    1.2495122   -2.3292396    94.003609  0.094381133   0.11088691            1 
   84000    1.2487094   -2.3014888    94.932516  0.094179083   0.11085887            2 
   85000    1.2400164   -2.3446105    96.198049  0.094311812   0.11081715            1 
   86000    1.2385134   -2.3425012    97.216861  0.094202384   0.11076303            1 
   87000    1.2648056   -2.3039022     99.00768  0.094834942   0.11070898            2 
   88000     1.224066   -2.3159071     100.1534  0.094842239   0.11067311            1 
   89000    1.2500339   -2.3502174    101.90692  0.095418462    0.1106403            2 
   90000    1.2529049   -2.3411021    103.10323  0.095465953   0.11059744            5 
   91000       1.2246   -2.3363852    103.71087  0.094973323   0.11054787            1 
   92000    1.2516577   -2.3329306    105.18784  0.095278837   0.11047637            1 
   93000    1.2497614   -2.3138037    106.09874  0.095070557   0.11040276            1 
   94000    1.2243971   -2.3123388     107.2933   0.09511817   0.11030783            2 
   95000    1.2394637   -2.3053055    108.88102  0.095509669   0.11023387            1 
   96000    1.2088676   -2.3182635    109.87004  0.095373297   0.11017319            1 
   97000     1.226657   -2.3216589    111.39499  0.095700167   0.11012394            1 
   98000    1.2325279   -2.3229835    112.79114  0.095910832   0.11006485            1 
   99000    1.2376714   -2.3286172    114.36922  0.096270383   0.11003644            1 
  100000    1.2471146   -2.3007415    116.31642  0.096930349   0.11001439            1 
  101000    1.2189898   -2.3502647    117.03865  0.096566545   0.11000368            1 
  102000    1.2486205   -2.3556631    118.20091  0.096569369   0.11000022            2 
  103000    1.2493169   -2.3567017    120.44288  0.097445695   0.11001702            1 
  104000    1.2388464   -2.3169216    122.55348    0.0981999   0.11005201            1 
  105000    1.2360441   -2.3221223    123.81753  0.098267881    0.1101048            1 
  106000    1.2438559   -2.3351072    125.10656  0.098354217   0.11015621            1 
  107000    1.2305325   -2.3696753    126.53306  0.098545999   0.11021078            3 
  108000    1.2152085   -2.3287422    127.85423  0.098652955   0.11025029            1 
  109000    1.2429477   -2.3209174    129.50124  0.099007063   0.11029293            1 
  110000    1.2346879   -2.3411074     130.1047  0.098564167   0.11032779            1 
  111000    1.2320987   -2.3246082    131.44592  0.098683121   0.11035549            1 
  112000    1.2307536   -2.3632795    132.14353  0.098321075   0.11034851            3 
  113000    1.2126642   -2.2943916    133.68172  0.098585338   0.11035339            1 
  114000    1.2164543   -2.3124741     135.4272  0.098996489   0.11036584            1 
  115000    1.2692962   -2.3114974    136.35622  0.098808851   0.11036235            1 
  116000    1.2780085   -2.3448169    138.31984  0.099367703   0.11037944            1 
  117000    1.2425256   -2.3445863    139.01751  0.099015321   0.11040304            1 
  118000    1.2235304   -2.3215867    140.71843  0.099377421   0.11042341            2 
  119000    1.2150023   -2.3153103      141.679  0.099214984    0.1104337            2 
  120000    1.2492755   -2.3377401     143.7459  0.099823544   0.11045647            1 
  121000    1.2245963   -2.3432047    144.81296  0.099733442   0.11048295            1 
  122000    1.2677614   -2.3271194    146.79774   0.10027168   0.11051668            3 
  123000    1.2347611   -2.3083194    147.60523   0.10000355   0.11056011            1 
  124000    1.2126295   -2.3309805    149.85642   0.10070996   0.11060407            4 
  125000    1.2114565   -2.3535633    150.31062   0.10020708   0.11066614            1 
  126000    1.2495033   -2.3323721    152.32529   0.10074424   0.11072556            2 
  127000    1.2519061   -2.3416911    154.63398   0.10146587   0.11079435            3 
  128000    1.2182541   -2.3530901    155.52643   0.10125418   0.11085484            2 
  129000    1.2089663   -2.3157235    157.20086   0.10155094   0.11092629            5 
  130000    1.2328376   -2.3176739    159.09728   0.10198544   0.11100959            1 
  131000    1.2346102   -2.3152724    159.85176   0.10168687   0.11108081            1 
  132000    1.2390525   -2.3384266    159.78275   0.10087295   0.11112954            1 
  133000    1.2413217   -2.3461191    162.37915   0.10174132   0.11115774            2 
  134000    1.2002966   -2.3732836    162.16233   0.10084722   0.11118386            1 
  135000    1.2116304   -2.3355012    163.91248   0.10118055   0.11120917            1 
  136000    1.2595908   -2.3370647    165.86374   0.10163219   0.11123303            2 
  137000    1.2336029   -2.3468092    167.35528   0.10179762   0.11125276            3 
  138000    1.2468096   -2.3425762    168.11393   0.10151807   0.11127325            1 
  139000    1.2425081   -2.3560088    169.25555   0.10147215   0.11128597            1 
  140000    1.2189994    -2.309043     171.4971    0.1020816   0.11130773            1 
  141000    1.2617133   -2.3550844    171.74632   0.10150492   0.11133675            1 
  142000    1.2443352   -2.3471829    173.18785   0.10163606    0.1113556            2 
  143000    1.2207458   -2.3256925    174.28504   0.10156471   0.11136909            1 
  144000    1.2441045   -2.3238251    176.49332   0.10213734   0.11137384            2 
  145000    1.2288771   -2.3352449    177.59312   0.10206501   0.11139903            2 
  146000    1.2366797   -2.3285232     179.1151   0.10223465   0.11142186            3 
  147000    1.2295166    -2.340143    180.42399   0.10228117   0.11144155            2 
  148000    1.2266944   -2.3509164    181.52143   0.10220801   0.11144332            1 
  149000    1.2297927   -2.3288462    183.65602   0.10271589   0.11146379            2 
  150000    1.2139288   -2.3465135    184.77323   0.10265179    0.1114789            1 
  151000    1.2535888   -2.3449778    186.76726   0.10307244   0.11150433            1 
  152000    1.2160608   -2.3420391    187.57266   0.10283589   0.11153686            3 
  153000    1.2344149   -2.3475537    188.38299   0.10260511   0.11155748            2 
  154000     1.223726   -2.3171972    189.47717   0.10253093    0.1115719            2 
  155000    1.2156614   -2.3280707    192.59707   0.10354681   0.11158594            1 
  156000     1.211503   -2.3769113    192.93149   0.10306169   0.11161127            1 
  157000    1.2395895   -2.3325478     195.1103   0.10356173   0.11163693            2 
  158000    1.2137651    -2.351955    196.15217   0.10345578   0.11166023            1 
  159000    1.2226955   -2.3246201    197.89502   0.10371856   0.11169734            3 
  160000    1.2334076   -2.3322771    198.92517   0.10360686   0.11172531            2 
  161000    1.2298965   -2.3306908    200.97805    0.1040259   0.11176517            1 
  162000     1.228223   -2.3247064    202.28061   0.10405381   0.11179861            2 
  163000    1.2101025   -2.3210674    202.97436   0.10377012    0.1118318            1 
  164000    1.2289539   -2.3466291    203.75193   0.10353249   0.11184589            3 
  165000    1.2176853   -2.3128018    204.31859    0.1031912     0.111845            1 
  166000    1.2067942    -2.320396    206.08401   0.10345583   0.11184088            2 
  167000    1.2347266   -2.3186252    207.52197   0.10355388   0.11183949            1 
  168000    1.2251583   -2.3534341    208.54976    0.1034473   0.11184554            2 
  169000    1.2356996   -2.3673328    209.91116   0.10350649   0.11184752            2 
  170000     1.249758   -2.3328552     210.9299   0.10339701   0.11184992            2 
  171000    1.2244235   -2.3366298    212.04122   0.10333393   0.11184959            1 
  172000    1.2205315   -2.3413442    213.91224   0.10363965   0.11185463            2 
  173000    1.2281576   -2.3826794    214.57793   0.10336124   0.11185878            1 
  174000    1.2166359   -2.3668761    216.85066   0.10385568   0.11185525            2 
  175000    1.2270473   -2.3673389    217.66112   0.10364815   0.11186038            2 
  176000    1.2249312   -2.3305396    218.76921   0.10358391   0.11186101            2 
  177000    1.2083874   -2.3298575    220.98221   0.10404059   0.11186046            1 
  178000    1.2142237   -2.3496985    221.25717   0.10358482   0.11185851            1 
  179000    1.2152166    -2.347576     222.3551   0.10351727   0.11184669            2 
  180000    1.2383445   -2.3192355    223.99799   0.10370277   0.11183546            1 
  181000    1.2072909   -2.3410566    225.66777    0.1038986   0.11182384            1 
  182000    1.2244582   -2.3391012     226.8683   0.10387743   0.11181474            1 
  183000    1.2088718    -2.352647    227.56782   0.10362833   0.11179967            1 
  184000    1.2188722   -2.3562313    228.83819   0.10364049   0.11177383            1 
  185000    1.2311331   -2.3491249    229.76317   0.10349693   0.11174604            1 
  186000     1.196634    -2.305974    231.41877   0.10368224   0.11172134            2 
  187000    1.2148101   -2.3369393    232.46305   0.10359316   0.11170474            1 
  188000    1.2003718   -2.3459676    234.03271    0.1037379    0.1116943            2 
  189000    1.2211291   -2.3499489     235.2256   0.10371499   0.11167911            2 
  190000    1.2311705   -2.3559378    236.51159   0.10373315   0.11166735            1 
  191000    1.2542202    -2.313619    238.12763   0.10389513   0.11165673            1 
  192000    1.2095042   -2.3518123    239.94021   0.10414072   0.11163655            2 
  193000    1.2263046   -2.3659257    240.80882   0.10397617   0.11162641            2 
  194000    1.2353786   -2.3458003    242.22999   0.10405068   0.11161922            3 
  195000     1.225173   -2.3353847    243.64698   0.10412264    0.1116102            1 
  196000    1.2192105   -2.3376562    244.67009    0.1040264   0.11160595            1 
  197000    1.2038152   -2.3611293     246.9862   0.10447809   0.11160233            2 
  198000     1.204503   -2.3732533    249.41152   0.10497118    0.1115968            2 
  199000    1.2150003   -2.3455773    249.95401   0.10467086   0.11159735            2 
  200000    1.2182343   -2.3596062    249.95706   0.10414877   0.11159666            1 
  201000    1.2020162   -2.3701466    251.80462   0.10439661   0.11158574            1 
  202000    1.2253546   -2.3396106    253.56756   0.10460708   0.11157873            2 
  203000    1.2492478   -2.3666323    253.62854   0.10411681   0.11156576            1 
  204000    1.2332418   -2.3426923    254.84466   0.10410321   0.11154466            4 
  205000    1.2257986   -2.3310228    257.88321   0.10483057   0.11152542            1 
  206000    1.2246042   -2.3490447    257.66699   0.10423422   0.11151465       -1e+20 
  207000    1.2246465   -2.3523864    259.97877   0.10466134   0.11150423            2 
  208000    1.2171264   -2.3505044    260.45076   0.10434726   0.11148571            1 
  209000    1.2027294   -2.3794278    260.80078   0.10398755   0.11146874            2 
  210000    1.2264605   -2.3238928    262.41033   0.10413108   0.11144797            1 
  211000    1.2129559   -2.3394424    263.91591   0.10423219   0.11141813            2 
  212000     1.234532   -2.3485083    265.35947   0.10430797   0.11138551            2 
  213000    1.2208297   -2.3707415     265.6753   0.10394182   0.11136093            1 
  214000    1.2042533   -2.3631934    267.04084   0.10398787   0.11133065            1 
  215000    1.2214376   -2.3358508    268.80718   0.10418883   0.11130429            1 
  216000    1.2028367   -2.3687755    270.08215   0.10419836   0.11128139            2 
  217000    1.2273691   -2.3308017    271.04193   0.10408676   0.11126483            1 
  218000    1.2072876   -2.3640887    270.02132   0.10321916   0.11124097            1 
  219000    1.2331532   -2.3341187    273.99667   0.10426053   0.11121392            1 
  220000    1.2115666   -2.3521147    273.84904    0.1037307   0.11118095            2 
  221000    1.2373976   -2.3614787    275.46128   0.10386926   0.11114758            1 
  222000    1.2233512   -2.3633575    275.72869   0.10350176   0.11111229            2 
  223000    1.2152968   -2.3238013    278.21109   0.10396528   0.11107822            1 
  224000    1.2090185   -2.3694882    278.41939   0.10357864   0.11104553            1 
  225000    1.2189035   -2.3637918    279.82125    0.1036375    0.1110081            2 
  226000    1.2048238   -2.3427998    281.10127   0.10365091   0.11096959            1 
  227000    1.2089218   -2.3584942    281.67771   0.10340591   0.11093094            2 
  228000    1.2493632   -2.3290282    284.63256   0.10403237   0.11089954            3 
  229000    1.2157705   -2.3371895    285.71299   0.10397125   0.11086526            1 
  230000    1.2075198   -2.3333279    286.48399   0.10379855   0.11083395            1 
  231000    1.2417697   -2.3170459    288.94141   0.10423572    0.1108046            1 
  232000    1.2028451   -2.3630091    289.34758   0.10393232   0.11077584            1 
  233000    1.2354263   -2.3429658    290.25644   0.10381131    0.1107416            1 
  234000    1.1996589    -2.344856    292.70155   0.10423845   0.11070992            1 
  235000    1.2242873   -2.3570968    292.65566    0.1037786   0.11067685            1 
  236000    1.2267136   -2.3457076     293.0305   0.10347122   0.11064222            1 
  237000    1.2058577   -2.3620564    295.11255   0.10376672   0.11060843            1 
  238000      1.21787   -2.3500699    296.88676   0.10395195    0.1105797            1 
  239000    1.1963933   -2.3374909    298.06791   0.10392884   0.11055533            2 
  240000    1.2208925   -2.3435687    300.15867   0.10422176   0.11052793            2 
  241000    1.2343763   -2.3549382    300.37878   0.10386541   0.11049745            2 
  242000    1.2096448   -2.3199769    301.59945   0.10385656   0.11046642            1 
  243000    1.2131504   -2.3658981    301.78471    0.1034927   0.11043408       -1e+20 
  244000    1.2080229   -2.3394828    303.50166   0.10365494   0.11039725            1 
  245000    1.2161676   -2.3610621    305.28412   0.10383814   0.11036073            2 
  246000    1.2136281   -2.3693925    306.49412   0.10382592   0.11032127            1 
  247000    1.2309067   -2.3655049    307.96398   0.10390148   0.11028068            1 
  248000    1.2170022   -2.3724744    307.93059    0.1034713   0.11024117            1 
  249000    1.2047154   -2.3372099    310.68361   0.10397711   0.11020734            2 
  250000    1.2289675   -2.3244926    311.98776   0.10399592   0.11017676            1 
  251000    1.2097175   -2.3441407    313.56844   0.10410639   0.11014789            1 
  252000    1.2178968   -2.3657685    313.86498   0.10379133   0.11012173            1 
  253000    1.2132398   -2.3579637    316.94243   0.10439474   0.11009448            2 
  254000    1.1963254   -2.3322125    315.53664   0.10352252    0.1100667            1 
  255000    1.2157094    -2.330222    318.54336   0.10409914   0.11003615            2 
  256000    1.2248171   -2.3239335     319.7117   0.10407282   0.11000634            1 
  257000     1.191028   -2.3640268    319.59777   0.10363093   0.10997228            1 
  258000    1.2270255   -2.3342071    321.74933    0.1039242   0.10993408            4 
  259000    1.1873649   -2.3626058    322.20389    0.1036692   0.10989842            2 
  260000    1.2025667   -2.3506005    325.13907   0.10421124   0.10986499            2 
  261000    1.2175885   -2.3403484    325.23609   0.10384294   0.10983387            2 
  262000    1.2012192   -2.3304913    328.72972    0.1045578   0.10980413            1 
  263000    1.1821029   -2.3680341    328.65009   0.10413501   0.10978081            1 
  264000    1.2039597   -2.3425332    329.90911   0.10413798   0.10975492            2 
  265000    1.2028457   -2.3700334    330.03989   0.10378613   0.10972382            2 
  266000    1.2087034   -2.3472318    330.95664   0.10368316   0.10969445            1 
  267000     1.207063   -2.3375936    333.22174   0.10400179   0.10966565            1 
  268000    1.1859906   -2.3801579    331.89386   0.10320083   0.10963464            3 
  269000     1.231581   -2.3476691    334.22548   0.10353949   0.10960553            1 
  270000    1.1984352   -2.3624653    335.92857   0.10368166   0.10957854            1 
  271000    1.2086685   -2.3618349    338.15516   0.10398375   0.10955346            1 
  272000    1.2137134   -2.3535918    340.89147   0.10443979   0.10952936            4 
  273000    1.2013036   -2.3280662    343.54891   0.10486841   0.10950486            1 
  274000    1.2221335    -2.398045    341.52652    0.1038706   0.10948369            2 
  275000    1.2304727   -2.3599644      341.825   0.10358333   0.10945342            1 
  276000    1.2063804   -2.3381481    344.21554   0.10392981   0.10942715            1 
  277000    1.2076401   -2.3662365    346.01998   0.10409747   0.10940561            3 
  278000    1.1964886   -2.3492627    349.34722   0.10472039   0.10937729            1 
  279000    1.2100529   -2.3690521    348.30924   0.10403502   0.10935521            1 
  280000    1.2194765    -2.375075    348.04199   0.10358393   0.10932819            2 
  281000    1.1955303   -2.3575679    349.51351   0.10365169   0.10930056            3 
  282000    1.2189578   -2.3688488    351.92403   0.10399646   0.10927501            2 
  283000    1.1976456    -2.364195    353.45015   0.10407837   0.10924617            2 
  284000    1.2032563   -2.3670272    352.35771   0.10339135   0.10921577            1 
  285000    1.1988715   -2.3588983    353.84216   0.10346262   0.10918263            1 
  286000    1.2135038   -2.3474714     357.1567   0.10406664   0.10915327            1 
  287000    1.1850087   -2.3406518    356.94103   0.10364141     0.109121            1 
  288000    1.2237115   -2.3605956    356.82689   0.10324852   0.10908664            3 
  289000    1.1928263   -2.3943759    359.72032   0.10372558   0.10905356            1 
  290000     1.217273   -2.3360836    362.68985   0.10422122   0.10902328            1 
  291000    1.2014612   -2.3704509    362.49362   0.10380688   0.10898732            1 
  292000    1.2073408   -2.3757252    361.91165   0.10328529   0.10895338            1 
  293000    1.1992526   -2.3578063    363.16244   0.10328852   0.10891619            1 
  294000    1.2191637   -2.3315558    363.35659   0.10299223   0.10887701            1 
  295000    1.1871038   -2.3510541    365.62355   0.10328349   0.10883837            3 
  296000    1.2097566    -2.363923    367.84879   0.10356103   0.10880327            2 
  297000    1.2040717   -2.3716457    366.91479   0.10295028   0.10876627            6 
  298000    1.2189043   -2.3502997    369.19683   0.10324296   0.10872933            2 
  299000    1.1957998   -2.3998855    370.26694   0.10319591   0.10869441            1 
  300000    1.2046428   -2.3869494    373.80285   0.10383412   0.10865618            1 
  301000    1.2013965   -2.3876167    372.88305   0.10323451   0.10861919            2 
  302000    1.2180342   -2.3722366    373.40042   0.10303544   0.10858017            2 
  303000    1.1982264    -2.368886    375.40109   0.10324563   0.10854425            1 
  304000    1.2196035   -2.3383708    376.13601   0.10310746   0.10850451            1 
  305000    1.1897148   -2.3606095    378.21767   0.10333816   0.10847007            2 
  306000     1.207515   -2.3632976     377.7519   0.10287361   0.10842869            1 
  307000    1.2188891   -2.3578132    379.57201   0.10303258   0.10838784            1 
  308000    1.2212937   -2.3435902    380.36441   0.10291245   0.10834897            3 
  309000    1.1990875   -2.3893792    381.78801   0.10296332   0.10830959            2 
  310000     1.206962   -2.3766309    382.19732   0.10274122   0.10827087            2 
  311000    1.1891193   -2.3639194    384.93876   0.10314543   0.10823435            2 
  312000    1.1999612   -2.3632606      386.182    0.1031469   0.10819707            2 
  313000     1.212567   -2.3503723    386.05171   0.10278267   0.10815922            2 
  314000    1.1891417   -2.3640511    386.00173   0.10244207   0.10811814            1 
  315000    1.2117163   -2.4027506    388.96493   0.10290078   0.10807939            2 
  316000    1.1961572   -2.3765301    389.95406   0.10283599   0.10804357            1 
  317000    1.1989798   -2.3566743    391.92279   0.10302912   0.10800929            1 
  318000    1.2167835    -2.343505    391.19334   0.10251398   0.10797191            1 
  319000    1.2112248   -2.3881899    395.09488   0.10321183   0.10793609            1 
  320000    1.2171886   -2.3449711    394.82096   0.10281796   0.10790185            1 
  321000    1.2130716   -2.3364641     395.6066   0.10270161   0.10786932            1 
  322000    1.2029543   -2.3493001    399.29606   0.10333749   0.10783636            1 
  323000    1.2280402   -2.3530964    400.86503   0.10342235    0.1077998            1 
  324000    1.2079084   -2.3521647    400.79197   0.10308435   0.10776748            4 
  325000    1.1919506   -2.3912885    401.83819   0.10303543   0.10773773            1 
  326000    1.2026639   -2.3820003    401.46482   0.10262393   0.10770585            2 
  327000    1.1741642   -2.3906272    403.29261   0.10277589   0.10767082            2 
  328000    1.1981548   -2.3674293    404.63641   0.10280396   0.10763737            2 
  329000    1.1957779   -2.3791211     406.6874   0.10301099   0.10760371            3 
  330000    1.1832942   -2.3602411    407.95538   0.10301903   0.10757431            2 
  331000    1.2028055    -2.374686    408.12344   0.10275011    0.1075423            3 
  332000    1.2014285   -2.3922454    409.81354   0.10286484   0.10751243            1 
  333000    1.1709027   -2.3856781    411.84878   0.10306526   0.10748335            2 
  334000    1.2056078   -2.3828228     413.4286   0.10315085   0.10745057            2 
  335000    1.1928042   -2.3735011    413.05834   0.10275083    0.1074219            2 
  336000    1.2265264   -2.3682836    413.75452   0.10261769   0.10739147            3 
  337000    1.2057398   -2.3476143    415.16212   0.10266126   0.10736015            1 
  338000    1.1923894   -2.3660376    415.94642   0.10255089   0.10732692            1 
  339000    1.1979727   -2.3539039    417.60403   0.10265586   0.10728944            2 
  340000    1.1761584   -2.3810002    416.53208    0.1020912   0.10725399            2 
  341000    1.2052822   -2.3768742      420.802   0.10283529   0.10722098            2 
  342000    1.1800858    -2.392322    422.00925   0.10282876   0.10718802            1 
  343000    1.2232375   -2.3806049    421.23638    0.1023412   0.10715774            1 
  344000    1.2150863   -2.3814432    424.36396   0.10280135   0.10712782            1 
  345000    1.2078273   -2.3800789    422.90698   0.10215145   0.10709775            4 
  346000    1.1883746   -2.3699839    423.32044   0.10195579   0.10706599            1 
  347000    1.1806094   -2.3567675    428.29033   0.10285551   0.10703636            1 
  348000    1.1820445   -2.3621986    427.65872    0.1024087   0.10700795            1 
  349000    1.1952344   -2.3423387    431.62298   0.10306184   0.10697915            2 
  350000    1.2000516   -2.3573918     434.7441    0.1035105   0.10695051            3 
  351000     1.197815   -2.3541564     432.9803   0.10279684   0.10692414            1 
  352000    1.1656352    -2.357849    433.87108   0.10271569   0.10690201            2 
  353000    1.2086963   -2.3420908    438.60113   0.10354134   0.10687661            1 
  354000    1.2161683   -2.3955481    436.33463   0.10271531   0.10685314            2 
  355000    1.2066047   -2.3751795    438.34028   0.10289678   0.10682976            1 
  356000    1.1978436   -2.3878266    440.47377   0.10310716   0.10680464            2 
  357000    1.1935831   -2.3694604    439.97444   0.10270178   0.10677909            4 
  358000    1.1818702   -2.3843615    442.76865   0.10306533    0.1067519            1 
  359000    1.1854281   -2.3610633      440.491   0.10224953   0.10672543            1 
  360000    1.1794249   -2.3629497     445.7751   0.10318868   0.10669708            1 
  361000    1.1962378   -2.3735292    446.35791   0.10303738   0.10667293            1 
  362000    1.1986233   -2.3937749    447.16421   0.10293835   0.10664866            3 
  363000     1.182842    -2.383722    446.94265   0.10260391   0.10662493            1 
  364000    1.1823831   -2.3681652     450.5151    0.1031399   0.10660023            4 
  365000    1.2114511   -2.3546144    449.25152   0.10256884   0.10657603            1 
  366000    1.1764547   -2.4075107    449.43516   0.10233041   0.10655073            2 
  367000    1.2128287   -2.3627701    451.66311   0.10255747   0.10652146            1 
  368000    1.1900744   -2.3794506      453.399   0.10267188   0.10649465            2 
  369000    1.2359326   -2.3635591    455.80849   0.10293778    0.1064682            1 
  370000    1.2071858   -2.3886636    455.83282   0.10266505   0.10644423            1 
  371000    1.1921437    -2.396526    455.12613   0.10222959   0.10641823            2 
  372000    1.1902465   -2.4019276    456.46672   0.10225509   0.10639358            2 
  373000    1.1736293   -2.3901246    460.45251   0.10287143   0.10637127            2 
  374000    1.1969516   -2.3999042    461.46201    0.1028213   0.10634973            3 
  375000    1.1788551    -2.416496    462.38393   0.10275199   0.10632938            1 
  376000    1.1837458   -2.3732361    465.68032   0.10320929   0.10631042            2 
  377000    1.2145793   -2.3729415    465.50918    0.1028977   0.10629153            2 
  378000    1.1889021    -2.371745    469.32743   0.10346725   0.10627711            1 
  379000    1.1937579   -2.3792259    471.12911   0.10359039   0.10626054            1 
  380000    1.2123286   -2.3566611     469.6821   0.10300046   0.10624184            1 
  381000     1.181481   -2.4032959    468.37753   0.10244478   0.10622195            1 
  382000     1.195959   -2.3849034    472.50473   0.10307695   0.10620306            5 
  383000    1.1760231   -2.3887843    472.21666   0.10274514    0.1061832            1 
  384000    1.1678148   -2.3879506    476.12991    0.1033268   0.10616355            4 
  385000    1.1980554    -2.396955    473.63276   0.10251791   0.10614203            1 
  386000    1.1912412   -2.3861983    475.01731   0.10255123   0.10611691            1 
  387000    1.2027579   -2.3791315    476.62956   0.10263341   0.10609464            1 
  388000    1.2096101   -2.3694215    479.23769   0.10292906   0.10607352            2 
  389000    1.1924519   -2.3766128    478.73605   0.10255699   0.10605217            2 
  390000    1.1742394   -2.3876393    483.91994    0.1034017   0.10603264            3 
  391000    1.1896957   -2.4071586     480.3157   0.10236907   0.10601383            1 
  392000    1.1704627   -2.3687436    484.82266   0.10306604   0.10599736            1 
  393000    1.1821141   -2.3943535    486.58133    0.1031767   0.10598026            2 
  394000    1.1890556   -2.3737135    485.92782   0.10277661   0.10596557            2 
  395000    1.1818597   -2.3775106    490.22919   0.10342388   0.10595103            1 
  396000    1.1945227   -2.3749357    490.80289   0.10328344   0.10593696            1 
  397000    1.1640486   -2.3642044    490.54979   0.10297015   0.10591708            1 
  398000    1.1956549     -2.37987    490.33459   0.10266637   0.10589742            1 
  399000    1.1876434   -2.3421961    492.56879   0.10287569   0.10588069            1 
  400000    1.1981001   -2.3784319     490.5231   0.10219231   0.10586158            1 
  401000    1.2022251   -2.4043045    492.64875   0.10237921   0.10583929            2 
  402000    1.2219338   -2.3674777    496.18971   0.10285856   0.10581747            1 
  403000    1.2060592   -2.3659378    497.85402   0.10294748   0.10579775            2 
  404000     1.184689   -2.3453727     496.0709   0.10232486   0.10577351            1 
  405000    1.1745459   -2.3908575    496.47885   0.10215614   0.10574686            2 
  406000    1.1983271   -2.3840042    496.45762   0.10190017   0.10572189            3 
  407000    1.2204795     -2.36419    498.80509   0.10213045   0.10569517            1 
  408000    1.2049947   -2.3798316    501.68837   0.10246903   0.10566782            2 
  409000    1.1642524   -2.3809969    501.65802   0.10221231   0.10564414            3 
  410000    1.1888291   -2.3682166    502.02705   0.10203802   0.10561961            1 
  411000    1.2064124   -2.3850075    505.48771   0.10249143    0.1055949            1 
  412000    1.1821207   -2.3767206    504.99004     0.102142   0.10557072            1 
  413000    1.1773148   -2.3959037    504.98948   0.10189457   0.10554438            1 
  414000    1.1982733   -2.3527766    509.06963   0.10246973   0.10551913            3 
  415000    1.1898909   -2.4126702    508.71772   0.10215215   0.10549379            2 
  416000    1.1583272    -2.414361    507.58516   0.10167972   0.10546685            5 
  417000    1.1604573    -2.365093    511.22172   0.10216261   0.10544142            2 
  418000    1.1788037   -2.3878764    511.42824   0.10195938   0.10541718            4 
  419000    1.1658455   -2.3665699    516.01975   0.10262923   0.10539421            1 
  420000    1.1759812    -2.393073    514.92251   0.10216717   0.10537032            1 
  421000    1.2196863   -2.3799176    516.30183   0.10219751   0.10534825            1 
  422000    1.1620777    -2.355462    518.83844   0.10245625   0.10532446            2 
  423000     1.187824   -2.3798926    518.09418   0.10206741   0.10530149            2 
  424000     1.188726   -2.3871177    519.24557   0.10205298   0.10527613            2 
  425000    1.1921067    -2.391501     520.2699   0.10201371   0.10525322            2 
  426000    1.2282008   -2.3637227    522.26831   0.10216516   0.10523027            1 
  427000    1.1612322   -2.3962172    520.71686   0.10162312   0.10520647            1 
  428000    1.1965647     -2.38861    527.07359   0.10262336   0.10518665            3 
  429000    1.1741925   -2.3765709     526.0893   0.10219295   0.10516678            3 
  430000    1.1652969   -2.4030881    526.65613   0.10206514   0.10514407            2 
  431000    1.1851006   -2.3814662    527.47148   0.10198598   0.10512283            2 
  432000    1.1959431   -2.3805469     528.1358   0.10187805   0.10510022            2 
  433000    1.1892375   -2.3765877    530.11166   0.10202303   0.10507729            1 
  434000    1.1644913    -2.378956    532.05316   0.10216074   0.10505572            3 
  435000    1.1933787   -2.3776754    531.93813   0.10190386   0.10503462            2 
  436000    1.1719682   -2.3967311     530.4796   0.10139136    0.1050099            1 
  437000    1.1932645   -2.3667029     536.6007    0.1023266   0.10498645            2 
  438000    1.2028483    -2.387061    536.94892   0.10215923   0.10496452            1 
  439000     1.163832   -2.3849793     537.1356   0.10196196   0.10494147            2 
  440000    1.2100459    -2.387158    537.93675   0.10188196   0.10491839            1 
  441000    1.1763672   -2.3956572    539.29362   0.10190733   0.10489279            2 
  442000    1.1943008   -2.3738607    539.31989   0.10168173   0.10486587       -1e+20 
  443000      1.21134   -2.3858676     539.8069   0.10154381    0.1048395            2 
  444000    1.1774226   -2.3988061    539.08179   0.10117902   0.10481204            2 
  445000    1.1676584   -2.3642127    541.82604   0.10146555   0.10478609            2 
  446000    1.1719627   -2.3931469     545.6741   0.10195704   0.10475912            1 
  447000    1.1763413   -2.3978937    544.26214   0.10146572   0.10473452            2 
  448000    1.1927377   -2.4025128    543.87228   0.10116672   0.10471045            2 
  449000    1.1610137   -2.3700437    548.31015   0.10176506   0.10468383            2 
  450000    1.1767614   -2.3875897    548.26296   0.10153018    0.1046586            2 
  451000    1.1813707   -2.3869777     549.7067   0.10157182    0.1046329            1 
  452000    1.1826011   -2.3983509    550.70893   0.10153188   0.10460806            3 
  453000    1.1506182   -2.3423342    552.83337   0.10169856    0.1045842            2 
  454000    1.2105156   -2.4022458    553.99996   0.10168869   0.10455942            2 
  455000    1.1794669     -2.37853    556.06692   0.10184376   0.10453741            2 
  456000     1.173836   -2.3878931    553.52613   0.10115609   0.10451456            1 
  457000    1.1665805   -2.3760177    558.70991      0.10188   0.10449146            1 
  458000    1.1839995   -2.3726357    557.98811   0.10152622   0.10446905            2 
  459000    1.1882986    -2.391821    559.64701   0.10160621   0.10444533            1 
  460000    1.1523462   -2.3842993    563.11275   0.10201318   0.10442055            1 
  461000    1.1592059   -2.4072715    560.19189    0.1012639   0.10439928            3 
  462000    1.1725906   -2.3907106    563.76171   0.10168862   0.10437766            1 
  463000    1.1847297   -2.3836052    564.45344   0.10159349   0.10435717            1 
  464000    1.1880983   -2.3860967    563.84857   0.10126591   0.10433572       -1e+20 
  465000    1.1437701   -2.3832624    568.05809   0.10180252   0.10431738       -1e+20 
  466000    1.1710834   -2.4200131    570.40023    0.1020029   0.10429818            1 
  467000    1.1719482   -2.3506633    569.79893   0.10167718   0.10427892            1 
  468000    1.1700423   -2.3915742     571.5148   0.10176546   0.10425811            3 
  469000    1.2093207   -2.3876616     570.7411     0.101411   0.10423638            3 
  470000    1.1558219   -2.4047518     574.3742    0.1018394   0.10421961            5 
  471000    1.2069246   -2.4055868    572.59227    0.1013079   0.10420171            2 
  472000    1.1907284    -2.383561    576.65967   0.10181138   0.10418199            1 
  473000    1.1861785   -2.4074147    576.10885   0.10149909   0.10416371            2 
  474000    1.1816363    -2.410352     574.2982   0.10096663   0.10414127            3 
  475000    1.1753102   -2.4079883    578.48461   0.10148853   0.10411864            1 
  476000    1.1835209    -2.378577    579.93382   0.10152903   0.10409644            1 
  477000    1.1705256    -2.375125    580.53671   0.10142151   0.10407559       -1e+20 
  478000    1.1867121   -2.3991445    581.10587   0.10130855   0.10405434            3 
  479000    1.1570347   -2.3655758    581.99382   0.10125153   0.10403166            1 
  480000    1.1632354   -2.3968541    583.60174   0.10131975   0.10400955            2 
  481000    1.1570752   -2.3636373    584.83974   0.10132359   0.10398786            1 
  482000     1.158383   -2.3994927    583.73338   0.10092209   0.10396536            4 
  483000    1.1788885   -2.4078833    585.89259   0.10108568   0.10394155            3 
  484000    1.1713534   -2.4164178    591.08844   0.10177142   0.10391972            1 
  485000    1.1969375   -2.3879777    588.54334   0.10112429   0.10389746            2 
  486000    1.1944274   -2.3798406    589.35412   0.10105523   0.10387524            1 
  487000    1.1825553   -2.3825321    589.55438   0.10088199     0.103852            2 
  488000    1.1997787   -2.3726637    592.28394   0.10114138     0.103827       -1e+20 
  489000    1.1579212   -2.4040959    593.63173   0.10116423   0.10380474            2 
  490000    1.1491556   -2.3773317     594.4214   0.10109207   0.10378254            2 
  491000    1.1962078   -2.4075669    593.50852   0.10073125   0.10375985            1 
  492000    1.1674848   -2.4067461     596.9725   0.10111323   0.10373667            3 
  493000    1.1563243   -2.3694203    597.28241   0.10096052   0.10371526            2 
  494000    1.1640885   -2.4068573    598.03088    0.1008824   0.10369251            2 
  495000    1.1885065   -2.3952188    597.35183   0.10056428   0.10366823            1 
  496000    1.1870703   -2.3650822    603.42915   0.10138259   0.10364598            2 
  497000    1.1728809   -2.3934326    601.14276   0.10079523   0.10362607            3 
  498000     1.191446   -2.4190329     604.3902   0.10113625   0.10360609            4 
  499000    1.1544445   -2.3878761    606.86187   0.10134634   0.10358652            1 
  500000    1.1589821   -2.3711038    607.43607   0.10123935   0.10356704            1 
  501000     1.160805   -2.4399384    608.27991   0.10117763   0.10354641            1 
  502000    1.1833972   -2.4085565    607.29629    0.1008128   0.10352494            3 
  503000    1.1745247   -2.3805036    611.87866   0.10137155   0.10350421            2 
  504000    1.1659223   -2.3869549    612.08448   0.10120445   0.10348352            1 
  505000    1.1779707   -2.4076531     609.4637   0.10057157   0.10346232            1 
  506000    1.1786496   -2.4094372     612.2442   0.10083073   0.10344053            1 
  507000    1.1806473   -2.3918664    616.21688   0.10128483   0.10342001            2 
  508000     1.183336   -2.3977173    613.86113     0.100699   0.10339821            1 
  509000     1.151285   -2.3847298    618.66379   0.10128746   0.10338057            1 
  510000    1.1698664   -2.3920056     616.9527   0.10080927    0.1033623            2 
  511000    1.1756789   -2.4187189    622.23632   0.10147363    0.1033426            1 
  512000    1.1675209   -2.3838219    622.13061   0.10125824   0.10332586            2 
  513000     1.176749   -2.3962563    622.87054   0.10118105   0.10330919            4 
  514000    1.1689671   -2.3985967    622.91754   0.10099182   0.10329069            1 
  515000    1.1566026   -2.4390983    627.79165   0.10158441   0.10327417            4 
  516000    1.1657106   -2.4061596    626.90522   0.10124438   0.10325904            1 
  517000    1.1809549   -2.3879756    629.96382   0.10154156   0.10324343            1 
  518000     1.144946   -2.4081256    631.59439   0.10160785   0.10323051            2 
  519000    1.1593342   -2.4082314    631.53869   0.10140313   0.10321639            1 
  520000    1.1870688   -2.4065779    630.07706   0.10097389   0.10320096            1 
  521000    1.1842195   -2.3862926    635.04601   0.10157486   0.10318698            1 
  522000    1.1783162   -2.4049333    637.04287   0.10169905   0.10317351            2 
  523000    1.1802621   -2.4052749    637.79095    0.1016238   0.10316088            1 
  524000    1.1607155   -2.3892514    637.24867   0.10134362   0.10315065            2 
  525000    1.1558939   -2.4153577    638.35893   0.10132681   0.10313619            2 
  526000    1.1485379   -2.3852781    642.97173   0.10186498   0.10312237            2 
  527000    1.2015014   -2.3926018    642.21447   0.10155194   0.10310955            1 
  528000    1.1619966   -2.3948058    640.44421   0.10108021   0.10309563            3 
  529000    1.1483435   -2.4178535     644.7173   0.10156227    0.1030798            1 
  530000    1.1736747   -2.4061689    644.89703    0.1013989   0.10306643            3 
  531000    1.1631675   -2.3935657    643.40793   0.10097425   0.10305054            1 
  532000    1.1515469   -2.4051176    643.49269   0.10079773   0.10303607            1 
  533000    1.1608786   -2.3950455    646.55982   0.10108815   0.10302106            1 
  534000    1.1634271   -2.4033488    648.78961   0.10124682   0.10300698            2 
  535000    1.1720611   -2.4106962    648.69637   0.10104305   0.10299327            3 
  536000    1.1809564   -2.3788523    654.35985   0.10173505   0.10297939            2 
  537000    1.1585832   -2.3825006    652.37757   0.10123798   0.10296575            2 
  538000    1.2024867   -2.3990015    650.36244   0.10073768   0.10294865            1 
  539000    1.1628923   -2.4073842    652.10916   0.10082084   0.10293292            1 
  540000    1.1712157   -2.4217978    652.65031   0.10071764   0.10291636            2 
  541000    1.1616076   -2.3789847    653.27378   0.10062751   0.10290183            2 
  542000     1.154889   -2.4144211    655.11149    0.1007244   0.10288616            2 
  543000    1.1703908   -2.4163676    656.99058   0.10082728   0.10287107            1 
  544000    1.1342107   -2.4098416    656.30837   0.10053743   0.10285554            2 
  545000    1.1783933   -2.3924334     658.2773   0.10065402   0.10283935            3 
  546000    1.2006022    -2.391425    663.05012   0.10119813   0.10282213            3 
  547000    1.1717446   -2.4022018    663.15037   0.10102839   0.10280594            2 
  548000    1.1699212    -2.409619    664.33321   0.10102391   0.10278842            2 
  549000    1.1752974   -2.4063944    664.89532   0.10092522   0.10277252            2 
  550000    1.1594133   -2.3975232      666.618   0.10100273   0.10275719            1 
  551000     1.169073   -2.4104354    666.14083   0.10074725   0.10274276            3 
  552000    1.1734378   -2.4078901    667.61299   0.10078699   0.10272783            1 
  553000    1.1513845   -2.3704143    668.95338   0.10080672   0.10271501            1 
  554000    1.1874134   -2.4016367    668.96304   0.10062621   0.10269986            1 
  555000    1.1613319    -2.384728    672.44001   0.10096697   0.10268341            1 
  556000    1.1725951   -2.4291899    673.58208   0.10095655   0.10266826            1 
  557000    1.1275724   -2.4093904    675.04219   0.10099374    0.1026529            1 
  558000    1.1817124   -2.4145519    676.27845   0.10099738   0.10264031            1 
  559000      1.16115   -2.4448666    677.74248   0.10103496   0.10262742            1 
  560000     1.158556   -2.3944545    680.09927   0.10120525   0.10261306            1 
  561000     1.162947   -2.4455824    679.54531   0.10094256   0.10259758            3 
  562000    1.2157021   -2.3730528    683.24975   0.10131224    0.1025843            1 
  563000    1.1633398   -2.3982949    686.20142   0.10156919   0.10257296       -1e+20 
  564000    1.1593405   -2.3816505    680.93326   0.10061071   0.10255911            2 
  565000    1.1504124   -2.3942522     683.3137   0.10078373   0.10254548            1 
  566000    1.1633129   -2.3948572    688.26729     0.101335   0.10253347            1 
  567000    1.1465586   -2.3767003    685.65266     0.100772   0.10251885            1 
  568000    1.1454778   -2.3955358    686.93185   0.10078225   0.10250403            3 
  569000    1.1518958   -2.4167919    688.74912   0.10087128   0.10248944            2 
  570000    1.1587739    -2.385932    689.27727   0.10077153   0.10247396            3 
  571000    1.1733518   -2.4078764    687.20687   0.10029289   0.10245884            2 
  572000    1.1419836   -2.4107016    695.29788   0.10129631   0.10244413            2 
  573000     1.187798   -2.4264508    696.35677   0.10127353   0.10242938            2 
  574000    1.1339139   -2.3923448    693.07349   0.10062043   0.10241522            2 
  575000    1.1721966   -2.4018086    696.49239   0.10094093   0.10240159            1 
  576000    1.1517663   -2.3789597     698.1617   0.10100719   0.10238847            2 
  577000    1.1583184   -2.3969922     700.0472   0.10110445   0.10237789            2 
  578000     1.147979   -2.4009385    701.70613    0.1011687   0.10236769            2 
  579000    1.1542652   -2.4026243    702.00332   0.10103675   0.10235833            2 
  580000     1.145295   -2.4184145    706.35667   0.10148803   0.10234912            2 
  581000    1.1338759   -2.4038792    701.72232   0.10064864   0.10233818            1 
  582000    1.1496619   -2.4300599    704.32047   0.10084772   0.10232669            1 
  583000    1.1678211    -2.401402    703.13356   0.10050508   0.10231189            2 
  584000    1.1788544   -2.3864341    707.48541   0.10095397   0.10229794            3 
  585000    1.1526482   -2.3995981    710.10714   0.10115486    0.1022861            1 
  586000    1.1694841    -2.425345    705.69948   0.10035544   0.10227122            1 
  587000    1.1645674   -2.4010455     707.8698   0.10049259     0.102257            1 
  588000    1.1343247   -2.4012761    709.19851   0.10050999   0.10224298            2 
  589000    1.1431587   -2.4209073    710.19017   0.10047965   0.10222929            2 
  590000    1.1693937   -2.3988403    712.39673   0.10062101    0.1022151            2 
  591000    1.1401928   -2.4112123    717.13344   0.10111865   0.10220112            1 
  592000    1.1380974   -2.4372361    712.06972   0.10023504   0.10218674            1 
  593000    1.1572479   -2.4066794    714.48398   0.10040528   0.10217006            1 
  594000    1.1289199   -2.4243804    715.02729   0.10031247   0.10215292            2 
  595000    1.1388454   -2.4024494    715.72581   0.10024171    0.1021369            1 
  596000    1.1378776   -2.4079691     714.6965  0.099929601   0.10212035            1 
  597000    1.1504209   -2.4112671    720.13977   0.10052202   0.10210354            1 
  598000    1.1632278   -2.3969927    723.94235   0.10088383   0.10208786            1 
  599000    1.1417018   -2.3927993    722.14339   0.10046513   0.10207199            2 
  600000    1.1456236   -2.4291648    720.57316    0.1000796   0.10205545            1 
  601000     1.155779   -2.4048958    725.84315   0.10064381   0.10203901            1 
  602000    1.1502499   -2.4209427    724.34622   0.10026941    0.1020237            1 
  603000    1.1290455   -2.4191827     725.5709   0.10027237   0.10200968            2 
  604000    1.1664665   -2.4153155    728.74975   0.10054494   0.10199491            3 
  605000    1.1397288   -2.4449632    724.25908  0.099760203   0.10197811            2 
  606000    1.1473152   -2.3960358    725.70737  0.099794743   0.10196036            3 
  607000    1.1553184   -2.3925229      729.619   0.10016735    0.1019433            2 
  608000    1.1477108   -2.4080696    731.07345   0.10020195   0.10192772            1 
  609000    1.1742936   -2.4099796    732.62636   0.10024991   0.10191265            3 
  610000    1.1640396   -2.4181905    731.70046  0.099959079   0.10189459            2 
  611000    1.1633747   -2.4333591    737.45699    0.1005806   0.10187801            2 
  612000    1.1583809   -2.4436389    736.71155   0.10031475   0.10186344            1 
  613000    1.1560207   -2.3899564    739.32118   0.10050587   0.10184873            1 
  614000    1.1639327    -2.448324    734.51178  0.099689438    0.1018328            1 
  615000    1.1638313    -2.404288    738.75446   0.10010223   0.10181558            1 
  616000    1.1472328   -2.4011208    742.73755   0.10047856   0.10179966            1 
  617000    1.1499809   -2.4141923    739.96083  0.099940685   0.10178362            1 
  618000    1.1726129   -2.4155295     743.6863   0.10028132   0.10176907            2 
  619000    1.1518542   -2.4128284    743.16026    0.1000485   0.10175341            1 
  620000    1.1581791    -2.440646    747.60933   0.10048513   0.10173778            1 
  621000    1.1457455   -2.4278878    745.29785   0.10001313   0.10172287            1 
  622000     1.133004   -2.4190657    747.12249    0.1000968   0.10170678            1 
  623000    1.1457707   -2.4285986    750.81645   0.10043024   0.10169191            1 
  624000    1.1365643   -2.4023092    748.65516  0.099980657   0.10167784            1 
  625000    1.1575808    -2.425207    747.87203  0.099716271   0.10166286            1 
  626000    1.1593281   -2.3839088    751.65112   0.10006005   0.10164749            2 
  627000    1.1630986   -2.3925547     750.7872  0.099785646   0.10163199            3 
  628000    1.1558977    -2.435071    752.84339  0.099899601    0.1016144            4 
  629000     1.171712   -2.4121819    754.67401  0.099983309   0.10159767            1 
  630000    1.1346898   -2.4110784    755.29447  0.099906676   0.10158197            2 
  631000    1.1504928   -2.3974434    754.74012  0.099675135    0.1015656            2 
  632000     1.145455   -2.3990227     755.7793  0.099654444   0.10154996            1 
  633000    1.1585886   -2.4273899    758.31229  0.099830475   0.10153538            1 
  634000    1.1291098   -2.4177245    761.66335   0.10011348   0.10152039            1 
  635000    1.1686198   -2.4305127    759.79543  0.099710686   0.10150324            4 
  636000    1.1609494   -2.4196243    759.76348  0.099549722   0.10148654            3 
  637000    1.1508247   -2.4113112    761.53856  0.099625662   0.10147043            2 
  638000    1.1390744   -2.4181982    763.48837  0.099724186   0.10145505            2 
  639000    1.1433335   -2.4267875    763.94222  0.099627311   0.10143825            2 
  640000    1.1641005   -2.4483354    763.01721  0.099351199   0.10142071            2 
  641000    1.1621286   -2.4180865    764.45283  0.099382844   0.10140153            1 
  642000     1.129119   -2.3968337    765.03909   0.09930414   0.10138394            2 
  643000    1.1450465   -2.4138792    769.46318  0.099723066   0.10136685            2 
  644000    1.1480023   -2.3788703    772.50977  0.099962445   0.10134901            1 
  645000    1.1450883   -2.4251421    770.85415   0.09959356   0.10133167            1 
  646000    1.1268036   -2.4381027    771.04508  0.099464019   0.10131301            1 
  647000    1.1552775   -2.4387214    769.61755  0.099126423   0.10129487            4 
  648000    1.1380194   -2.3968764    776.11893  0.099809533   0.10127699            2 
  649000    1.1741177    -2.419207    775.11919  0.099527375   0.10126012            3 
  650000    1.1499749   -2.4123816    778.30208  0.099782318     0.101243            1 
  651000    1.1530767   -2.4408038    775.29136  0.099243646   0.10122545            2 
  652000    1.1443655   -2.4460775    776.79746  0.099283929   0.10120824            2 
  653000    1.1683145   -2.4275107    782.46575  0.099855252    0.1011906            2 
  654000    1.1328761   -2.4184851     784.5453  0.099967546   0.10117508            2 
  655000    1.1175212   -2.4249996    784.16815   0.09976694   0.10115903            2 
  656000    1.1429607   -2.4072771    783.17448  0.099488628   0.10114166            2 
  657000    1.1523836   -2.3943736    787.92299  0.099939496    0.1011255            1 
  658000    1.1734194   -2.4048791     784.2826  0.099326571   0.10110938            3 
  659000    1.1435134   -2.4327796    784.54639  0.099209204   0.10109096            1 
  660000    1.1531834    -2.412867    788.28973  0.099531532   0.10107259            3 
  661000    1.1388577   -2.4256319     785.8157   0.09906905   0.10105216            1 
  662000    1.1167147   -2.4315501    784.85809  0.098798853   0.10103188            2 
  663000    1.1343024   -2.4182693    786.91296  0.098908115   0.10101166            2 
  664000    1.1375095   -2.4375649    792.07095  0.099406494   0.10099199            1 
  665000    1.1693294   -2.4253572    790.33178   0.09903907   0.10097187            1 
  666000    1.1206242   -2.4168916     792.1011  0.099111749   0.10095339            2 
  667000    1.1220448   -2.4290989    799.14991  0.099843817   0.10093443            1 
  668000    1.1531854   -2.4375661    796.03802   0.09930614   0.10091642            2 
  669000     1.148269   -2.4189797    793.17492  0.098801061   0.10089971            2 
  670000    1.1482464   -2.4213019    796.41596  0.099056711   0.10088147            3 
  671000    1.1542774   -2.4230397    795.98138  0.098855114   0.10086173            1 
  672000    1.1378411    -2.391397    800.86264  0.099313324   0.10084217            1 
  673000    1.1476075   -2.4455602    797.01729  0.098689609   0.10082278            1 
  674000    1.1650804   -2.4320412    801.27415  0.099069504   0.10080362            1 
  675000    1.1421731   -2.4370448    803.39262  0.099184274   0.10078356            3 
  676000    1.1432406   -2.4134216    802.29278  0.098901969   0.10076335            3 
  677000    1.1583826   -2.3978601    801.72242  0.098685674   0.10074397            4 
  678000    1.1479333   -2.4320488     803.0431  0.098702446    0.1007235            3 
  679000    1.1284491   -2.4266011    808.16053  0.099185141   0.10070371            1 
  680000     1.139989    -2.421363     808.9515  0.099136213   0.10068548            3 
  681000    1.1422116   -2.4284799    806.60701  0.098703746   0.10066618            1 
  682000    1.1388808   -2.4283233    804.89405  0.098349713   0.10064652            1 
  683000    1.1463774   -2.4263741    810.99842  0.098950515   0.10062846            1 
  684000    1.1651999    -2.436345    808.56446  0.098509316   0.10060894            3 
  685000    1.1415552   -2.4171364    812.57995  0.098854008   0.10059029            1 
  686000    1.1249043   -2.4004289    813.40152  0.098809708   0.10057137            1 
  687000    1.1267817   -2.4295551    818.11647  0.099237806   0.10055215            3 
  688000    1.1386998   -2.4090268    815.68159  0.098798642   0.10053399            1 
  689000    1.1386372   -2.4414969    815.17389  0.098593842   0.10051478            2 
  690000    1.1567547    -2.449862     815.6827  0.098512404   0.10049369            1 
  691000    1.1519545   -2.4044782      814.578  0.098236614   0.10047297            3 
  692000    1.1635073   -2.4322749     819.8586  0.098730563   0.10045368            1 
  693000    1.1447799   -2.4173505    819.03074  0.098488545    0.1004351            1 
  694000    1.1259667   -2.4425224    824.50694  0.099004195   0.10041741            1 
  695000    1.1372722   -2.4309119    825.10901  0.098933934   0.10039999            1 
  696000     1.135665   -2.3957083    824.97906  0.098776228   0.10038263            1 
  697000    1.1570387   -2.4104349     826.5039  0.098816822   0.10036517            1 
  698000    1.1368821   -2.4497959    828.94596  0.098966805   0.10034755            2 
  699000    1.1525309   -2.4330898    829.64452  0.098908503   0.10032983            1 
  700000    1.1370499   -2.4415948     829.1602  0.098709548   0.10031206            2 
  701000    1.1361943   -2.4170739    833.71273   0.09910993   0.10029518            3 
  702000    1.1534919   -2.4368454    833.66527  0.098963113   0.10027711            2 
  703000    1.1305513   -2.4432339    834.27534  0.098894659   0.10025987            1 
  704000    1.1504811    -2.422795    833.68046  0.098683767   0.10024283            1 
  705000    1.1100482    -2.412763    835.76914  0.098790678   0.10022492            3 
  706000    1.1239948   -2.4304866    835.63893  0.098635379   0.10020904            1 
  707000    1.1302154    -2.435843    837.88031  0.098760055   0.10019258            3 
  708000    1.1631802   -2.4232641    841.86856   0.09908999   0.10017526            1 
  709000    1.1278048   -2.4382507    838.46576  0.098550278   0.10015936            1 
  710000    1.1642548   -2.4397989    841.21988  0.098734728   0.10014337            1 
  711000    1.1494219   -2.4502336    841.08966  0.098580598   0.10012563            2 
  712000    1.1069186   -2.4052302     844.2835  0.098815952   0.10010977            1 
  713000    1.1244871   -2.4030448    842.93809  0.098520113   0.10009495            1 
  714000    1.1180799   -2.4252914    845.26096   0.09865324   0.10007802            2 
  715000    1.1105124   -2.4247915    845.71089  0.098567703   0.10005998            2 
  716000    1.1257499    -2.417037    847.46056  0.098633678   0.10004268            1 
  717000    1.1119853   -2.4382087    846.94246  0.098435897   0.10002515            1 
  718000    1.1273274    -2.436634    846.33358  0.098228131     0.100007            3 
  719000    1.1357533   -2.4096452    847.59183  0.098237347  0.099988596            1 
  720000     1.153588   -2.4278045    846.64566  0.097991396  0.099970622            1 
  721000    1.1095095    -2.410874    853.29748  0.098624304  0.099953764            5 
  722000    1.1532843   -2.4246535    850.85143  0.098205383  0.099934552            1 
  723000    1.1291105   -2.4329217    850.21548  0.097996252  0.099917109            2 
  724000    1.1140099   -2.4231286    857.42033  0.098690185  0.099898515            2 
  725000    1.1074982   -2.4373229    854.02854    0.0981642  0.099880563            2 
  726000    1.1349979   -2.4339314    856.88269  0.098356599  0.099862469            1 
  727000    1.1229647   -2.4148385    859.66206  0.098539897  0.099844073            1 
  728000    1.1404115   -2.4175588    860.02708  0.098446323  0.099827692            2 
  729000    1.1247022   -2.4257928    863.08726  0.098661095   0.09981113            1 
  730000    1.1757844    -2.450588    860.43198  0.098222829  0.099794961            1 
  731000    1.1230765   -2.4285433    859.73625  0.098009148  0.099779111            2 
  732000      1.12597   -2.4211156    863.09012  0.098257071  0.099763767            2 
  733000    1.1027154   -2.4077692    867.82787  0.098661649   0.09974758            1 
  734000    1.1488711   -2.4463084    864.73948  0.098176598  0.099730736            1 
  735000    1.1319257   -2.4797556    860.82328  0.097599011  0.099712762            2 
  736000    1.1328871   -2.4455956    864.59434  0.097893381  0.099696551            3 
  737000    1.1280452   -2.4322079    869.66347  0.098333726  0.099680218            2 
  738000    1.1495377   -2.4430694     875.1682  0.098822064  0.099662812            3 
  739000     1.129392   -2.4448355     870.5241  0.098164648  0.099646548            1 
  740000    1.1696699   -2.4363006    874.30725  0.098458024  0.099629988            1 
  741000    1.1376538   -2.4727378    873.34942  0.098217433  0.099615506            2 
  742000    1.1333765    -2.446524    877.97331   0.09860437  0.099600763            1 
  743000    1.1285765   -2.4232303    878.53946  0.098535157   0.09958538            2 
  744000    1.1276959   -2.3761871     879.4576  0.098505555  0.099571203            2 
  745000    1.1301636   -2.4440413    882.09501  0.098668346  0.099555565            2 
  746000    1.1311876   -2.4493754     880.1941  0.098323737  0.099540734            1 
  747000    1.1228454   -2.4390608    884.37062  0.098658034  0.099526412            3 
  748000    1.1370322   -2.4580511      880.991  0.098149622   0.09951128            1 
  749000    1.1225049   -2.4324363    883.65241  0.098314687  0.099496556            3 
  750000    1.1437542   -2.4259714    881.53236   0.09794804  0.099481197            1 
  751000    1.1405299   -2.4310499    888.32481  0.098571328  0.099466546            2 
  752000    1.1457556   -2.4315715    882.62275  0.097808372  0.099451211            3 
  753000    1.1254375   -2.4304588    891.43617  0.098653848   0.09943594            2 
  754000    1.1405302   -2.4554688    889.74774    0.0983364  0.099422126            3 
  755000    1.1435129    -2.416815    892.43677  0.098502954   0.09940761            2 
  756000    1.1435418   -2.4482416     887.5594  0.097835031  0.099392737            1 
  757000    1.1558222   -2.4207387    895.35822  0.098564313  0.099378119            2 
  758000    1.1152894   -2.4594779    892.92622  0.098166911  0.099363062            1 
  759000     1.130627   -2.4565931    893.33301  0.098082237   0.09934863            2 
  760000    1.1303968   -2.4421522    897.15043  0.098371758  0.099332396            2 
  761000    1.1529767   -2.4511565    894.73339  0.097977813  0.099317538            3 
  762000     1.142671   -2.4525646     896.1068  0.097999432  0.099304651            1 
  763000    1.1101517   -2.4361615    900.60589  0.098362373  0.099289409            2 
  764000    1.1444248    -2.431456    902.02069  0.098387946  0.099274812            1 
  765000    1.1006877   -2.4706733     899.3053   0.09796354  0.099258958            1 
  766000    1.1051749   -2.4341868    901.41318  0.098064967  0.099242397            2 
  767000    1.1199794   -2.4402925    902.52435  0.098057839  0.099227609            3 
  768000    1.1277521   -2.4773724    898.23947   0.09746522  0.099211854            2 
  769000    1.1174006   -2.4522281    902.31649  0.097780287  0.099195897            2 
  770000    1.1231749   -2.4416597    905.96754  0.098048435  0.099181683            1 
  771000    1.1386522   -2.4554866    905.59763  0.097881283  0.099166847            1 
  772000    1.1110751     -2.44275    906.76376  0.097880371  0.099151435            3 
  773000    1.1239073   -2.4596411    907.98917  0.097885853    0.0991341            1 
  774000    1.1187778   -2.4487234    910.16607  0.097993763  0.099117469            1 
  775000     1.131289     -2.45977    911.08239  0.097965848  0.099102043            2 
  776000     1.136989   -2.4344193    915.26704  0.098288986  0.099086915            1 
  777000    1.1032119   -2.4460856    910.30053  0.097629829  0.099071391            1 
  778000    1.1342248   -2.4358975    909.67296   0.09743712  0.099053549            4 
  779000     1.104663   -2.4560584    909.53366  0.097297139  0.099035356            1 
  780000    1.1102411   -2.4154244    914.90528   0.09774629  0.099017112            1 
  781000     1.121352   -2.4514696    908.89981  0.096980347   0.09899836            1 
  782000    1.1626551   -2.4330391    914.80691  0.097485818  0.098979549            3 
  783000    1.1435405   -2.4103441    915.94144  0.097482061  0.098961915            1 
  784000    1.1384814   -2.4321304    914.54865  0.097209678  0.098942267            1 
  785000    1.1297919   -2.4414469    915.55056  0.097192204  0.098923781            1 
  786000     1.112602   -2.4536369    918.78646  0.097411626  0.098905667            2 
  787000    1.1376099   -2.4585991    919.59464  0.097373427  0.098887301            2 
  788000    1.1038551   -2.4000418    919.90707  0.097282896  0.098869913            1 
  789000    1.1193479   -2.4397808     921.6203  0.097340547  0.098852051            1 
  790000    1.1336079   -2.4496198    926.58255  0.097740775  0.098834572            1 
  791000    1.1201257   -2.4197333     924.3422  0.097381184  0.098817008            1 
  792000    1.1102486   -2.4259658    925.56122  0.097386492  0.098798452            1 
  793000      1.13173   -2.4591691    920.89251  0.096773067  0.098780616            2 
  794000    1.1175094   -2.4550566    926.59127  0.097249294  0.098761357            2 
  795000     1.120649   -2.4566831    926.94919  0.097164486    0.0987431            1 
  796000    1.1145681   -2.4073042    928.38768  0.097193015  0.098724321            2 
  797000    1.1212045   -2.4354357    930.95382  0.097339379  0.098707024            2 
  798000    1.0983048   -2.4322784    929.86668  0.097103873  0.098688674            2 
  799000    1.1376157    -2.406734      938.455  0.097878077  0.098672196            2 
  800000    1.1424579   -2.4667801    936.53924  0.097556171  0.098655256            1 
  801000    1.1412911   -2.4621101    937.30547  0.097514093   0.09863777            1 
  802000    1.0968501   -2.4482432    934.68103  0.097119808  0.098619355            2 
  803000    1.1077214   -2.4462074     934.5681  0.096987142  0.098601822            1 
  804000    1.1431555   -2.4578812    944.00118  0.097844235   0.09858388            2 
  805000      1.15208   -2.4509462    938.78141   0.09718234  0.098566591            4 
  806000    1.1356485   -2.4260567    940.33041   0.09722192  0.098550333            2 
  807000    1.1143359   -2.4446016    942.91545  0.097368386  0.098533627            1 
  808000    1.1262068   -2.4468083    947.00217  0.097669366  0.098516919            3 
[...]
 4800000   0.48215438   -3.3234726    2764.7259  0.047998714  0.046669281           14 
 4801000   0.49266183   -3.3133966    2769.0293  0.048063413  0.046658135           17 
 4802000   0.47873988   -3.3309544    2758.5128    0.0478709  0.046646986           28 
 4803000   0.48943648   -3.3162443    2763.6161  0.047949479  0.046635811           26 
 4804000   0.48367519   -3.3186169    2767.5295  0.048007381  0.046624647           13 
 4805000   0.48982365   -3.3144148    2758.4278  0.047839539  0.046613527           17 
 4806000   0.48308932   -3.3164146    2764.2648  0.047930794  0.046602385            9 
 4807000   0.47121035   -3.3147683     2770.791  0.048033961  0.046591259           22 
 4808000   0.48126178   -3.3276075    2767.5177  0.047967236  0.046580109           32 
 4809000   0.48070645   -3.3227414    2768.0209  0.047965982  0.046568976           40 
 4810000   0.48596252   -3.3169692    2766.9484  0.047937429  0.046557835           23 
 4811000   0.48144528   -3.3146103    2769.0042  0.047963075  0.046546715           16 
 4812000     0.475771   -3.3225109    2764.1757  0.047869488  0.046535592           18 
 4813000   0.47206182    -3.310432    2772.2851   0.04799995  0.046524506           20 
 4814000   0.47261277   -3.3255506    2772.2306  0.047989035  0.046513426           14 
 4815000   0.49026451   -3.3190982    2767.1953  0.047891922  0.046502386           35 
 4816000   0.48615485   -3.2990817    2767.4375   0.04788617  0.046491374           29 
 4817000   0.48198862   -3.3271752    2773.8139   0.04798654  0.046480323           20 
 4818000   0.48545431   -3.3135686    2767.2333  0.047862759  0.046469277           31 
 4819000   0.47838156   -3.3239234    2766.9483  0.047847898    0.0464582           12 
 4820000   0.47814059   -3.3375778    2773.1872  0.047945837   0.04644706           22 
 4821000   0.47730238   -3.3320316    2767.8079  0.047842908  0.046435974           21 
 4822000   0.49086524   -3.3346693    2764.5204  0.047776171   0.04642485            8 
 4823000   0.49332077   -3.3204803    2769.9879  0.047860736  0.046413776           15 
 4824000   0.47538429    -3.310554    2767.0712  0.047800428   0.04640272           21 
 4825000   0.47529602     -3.29978    2767.9186  0.047805157  0.046391655           18 
 4826000   0.47979066   -3.3261748    2772.3366   0.04787154  0.046380619            9 
 4827000    0.4807325   -3.3128902    2766.9655  0.047768896  0.046369589           12 
 4828000   0.47266887   -3.3276121    2767.4783  0.047767852  0.046358568           14 
 4829000   0.47321632     -3.31509    2769.6057  0.047794673  0.046347524           23 
 4830000   0.48103976   -3.3080118    2770.2357  0.047795648  0.046336492           31 
 4831000   0.47559703    -3.314467    2767.5913  0.047740139  0.046325488            7 
 4832000   0.46470667   -3.3087345     2769.211  0.047758193  0.046314514            8 
 4833000   0.48318588   -3.3119061    2768.3305  0.047733128  0.046303544           31 
 4834000    0.4859941   -3.3411808    2768.0195  0.047717892  0.046292507           50 
 4835000   0.48190395   -3.3294139    2767.7199  0.047702859  0.046281523           32 
 4836000   0.48850677   -3.3100057    2767.1174  0.047682612  0.046270554           16 
 4837000   0.47128664   -3.3230949    2765.8353  0.047650666  0.046259552           19 
 4838000   0.48655357   -3.3099922    2765.4208  0.047633678  0.046248527           39 
 4839000   0.47715917   -3.3267327    2771.7634   0.04773306  0.046237499           22 
 4840000   0.47350885   -3.3213271    2771.7881  0.047723624  0.046226508           26 
 4841000   0.47085337   -3.3117768    2764.7011  0.047591771  0.046215538           18 
 4842000    0.4895086   -3.3345207    2769.9239  0.047671828  0.046204504           35 
 4843000   0.47503199   -3.3204001    2772.9486  0.047714031  0.046193478           49 
 4844000   0.47864795   -3.3313165     2772.958  0.047704343  0.046182474           17 
 4845000   0.47473013   -3.3206943      2767.65  0.047603199  0.046171455           31 
 4846000   0.48236808   -3.3343591    2772.0093  0.047668339  0.046160421           15 
 4847000   0.48485068   -3.3409848    2769.8548  0.047621463  0.046149406            7 
 4848000   0.46515604   -3.3350683    2763.6681  0.047505297  0.046138341            9 
 4849000   0.46607619   -3.3301952    2767.6412  0.047563779  0.046127288           18 
 4850000   0.47603993   -3.3345065    2765.7791  0.047521978  0.046116267           12 
 4851000   0.47685343   -3.3306592    2763.1722  0.047467399  0.046105179           28 
 4852000   0.47714169   -3.3342275    2765.5438  0.047498347  0.046094162           20 
 4853000   0.46491857   -3.3357847    2764.8672  0.047476943  0.046083112           26 
 4854000   0.47981489   -3.3280984     2769.323  0.047543658  0.046072085           15 
 4855000    0.4789626   -3.3173512    2768.8692  0.047526076  0.046061069            9 
 4856000    0.4727461   -3.3495233    2768.9024  0.047516859   0.04605003           18 
 4857000   0.46757694   -3.3269594    2767.7853  0.047487909  0.046039026           12 
 4858000    0.4830696   -3.3279726    2763.4587  0.047403917  0.046027988           18 
 4859000    0.4813486   -3.3316062    2768.4506  0.047479773   0.04601698            9 
 4860000   0.47493518   -3.3302688    2765.3969  0.047417643  0.046005988           16 
 4861000   0.47762654   -3.3357876    2767.2166  0.047439083  0.045994957           26 
 4862000    0.4732931   -3.3402568    2773.0715  0.047529677  0.045983931           25 
 4863000   0.46705856   -3.3349505    2764.9249  0.047380302  0.045972909           30 
 4864000   0.47737483   -3.3157752     2767.075  0.047407399  0.045961867           17 
 4865000   0.46640939   -3.3517657    2770.4374  0.047455249  0.045950853            9 
 4866000   0.46852019   -3.3281621    2766.6861  0.047381252  0.045939828            8 
 4867000   0.46271792   -3.3371815    2764.3852  0.047332121  0.045928806           13 
 4868000   0.48449729    -3.358819    2771.0217  0.047436005  0.045917758           20 
 4869000   0.46953507   -3.3446826    2768.2649   0.04737908  0.045906704           26 
 4870000   0.47509106   -3.3358236    2773.7016  0.047462382  0.045895736           23 
 4871000    0.4638377   -3.3499177    2773.6679  0.047452062  0.045884747           11 
 4872000    0.4757983   -3.3413991    2776.1804  0.047485297   0.04587382           14 
 4873000   0.46216526   -3.3353182    2767.3484  0.047324516   0.04586282           20 
 4874000   0.47170908   -3.3224781     2769.566  0.047352723  0.045851815           17 
 4875000   0.47341146   -3.3434822    2772.5226  0.047393549  0.045840895           14 
 4876000   0.48011276   -3.3431594    2766.4843  0.047280632  0.045829901           22 
 4877000   0.46927723   -3.3378384    2763.1203  0.047213456  0.045818884           29 
 4878000   0.47036723   -3.3465409    2764.1354  0.047221119  0.045807873           19 
 4879000   0.48006217   -3.3183229    2770.8504  0.047326132  0.045796921           18 
 4880000    0.4703873   -3.3427109    2772.8931  0.047351316  0.045786005           26 
 4881000   0.47991839   -3.3311622    2768.6083  0.047268461  0.045775059           17 
 4882000   0.47197874   -3.3270204    2774.4063  0.047357748  0.045764165           10 
 4883000   0.46862257   -3.3523813    2767.2247  0.047225488  0.045753231           30 
 4884000   0.46944423   -3.3325986    2765.1864  0.047181039   0.04574229           26 
 4885000   0.47513862   -3.3309117    2768.8247  0.047233448  0.045731333           37 
 4886000   0.47359922   -3.3335415    2767.9958  0.047209643  0.045720349           14 
 4887000   0.46099225   -3.3379157    2766.1624   0.04716872  0.045709396           21 
 4888000    0.4664444   -3.3366101    2765.7494  0.047152029  0.045698443           14 
 4889000   0.47481901   -3.3572713    2764.4751  0.047120664  0.045687434           16 
 4890000   0.47317787   -3.3592431    2766.6508  0.047148104  0.045676447           14 
 4891000   0.48326584   -3.3623216    2762.6626  0.047070514  0.045665495           30 
 4892000   0.46485578   -3.3462244    2768.8189  0.047165761  0.045654507           38 
 4893000   0.47675465   -3.3501543    2769.8556  0.047173778  0.045643534           14 
 4894000    0.4669369   -3.3603914    2764.8468  0.047078852  0.045632534           11 
 4895000    0.4817503   -3.3442655    2769.8413  0.047154261  0.045621575            9 
 4896000   0.48016261   -3.3557343    2763.9645  0.047044602  0.045610652           20 
 4897000    0.4673816    -3.332833    2765.1408  0.047055014  0.045599692           26 
 4898000   0.46893702   -3.3502464    2764.8423  0.047040327  0.045588795           12 
 4899000   0.46536398   -3.3334584    2771.8896  0.047150602  0.045577862           26 
 4900000   0.46877476   -3.3498281    2760.5179  0.046947584  0.045566917           13 
 4901000   0.46154984   -3.3617241    2762.0193  0.046963532  0.045555963           17 
 4902000   0.47189978   -3.3626546    2769.1494  0.047075163  0.045545022           14 
 4903000   0.45815263   -3.3534822    2765.6123  0.047005444  0.045534097           38 
 4904000   0.46764401   -3.3270425    2772.7935  0.047117888  0.045523232           17 
 4905000   0.46460645   -3.3363536    2767.8558  0.047024393  0.045512404           23 
 4906000   0.46462633   -3.3426754    2768.0828  0.047018664   0.04550156           64 
 4907000    0.4681228   -3.3544444     2770.155  0.047044274   0.04549069           11 
 4908000    0.4671938   -3.3486789    2766.9381  0.046980068   0.04547979           18 
 4909000     0.478204   -3.3507456    2766.6609  0.046965793  0.045468903           14 
 4910000   0.47580643   -3.3398495    2767.4212  0.046969131  0.045458031           23 
 4911000   0.45869726   -3.3441847    2757.8354  0.046796908  0.045447134           21 
 4912000   0.46734187   -3.3423799    2765.5965   0.04691905   0.04543622           31 
 4913000   0.46962298   -3.3580913    2769.4818  0.046975401  0.045425268            9 
 4914000   0.47050751   -3.3729195    2768.6686  0.046952052  0.045414316           11 
 4915000   0.46860468   -3.3586684    2762.1735  0.046832375  0.045403377           15 
 4916000   0.47064759    -3.348967    2764.2285  0.046857684  0.045392429           12 
 4917000   0.46749439   -3.3665645    2764.7255  0.046856577  0.045381482           23 
 4918000   0.47432638   -3.3481203     2771.028  0.046953844    0.0453706           33 
 4919000   0.46184045   -3.3507683    2772.3763   0.04696714  0.045359718           16 
 4920000   0.46996747   -3.3561731    2758.1756  0.046717066  0.045348803            9 
 4921000   0.47376587    -3.352712    2767.1418  0.046859408  0.045337904           25 
 4922000   0.47077387   -3.3480977     2764.421  0.046803822   0.04532703           31 
 4923000   0.46203981   -3.3614481    2764.4057  0.046794057  0.045316125            9 
 4924000   0.46181852   -3.3529204    2767.6849   0.04684005   0.04530521           15 
 4925000   0.45898392   -3.3594146    2763.3527  0.046757237  0.045294309           15 
 4926000   0.47707039   -3.3493004    2770.4778   0.04686828   0.04528342           14 
 4927000   0.46398161    -3.360152    2766.5869  0.046792959  0.045272529           41 
 4928000   0.46074991   -3.3576639    2767.3936  0.046797106  0.045261606           15 
 4929000   0.46759831   -3.3497796    2766.7365  0.046776502  0.045250723           20 
 4930000    0.4701067   -3.3495703     2765.853  0.046752079  0.045239828           20 
 4931000   0.46287328   -3.3412075    2774.1807  0.046883336  0.045228938           19 
 4932000   0.46576429   -3.3532176    2764.0937  0.046703394   0.04521803           26 
 4933000   0.45200768    -3.356606    2769.6469  0.046787737  0.045207113           15 
 4934000   0.46033763   -3.3494918    2770.0295  0.046784716  0.045196236           21 
 4935000   0.46657839   -3.3482192    2769.3392   0.04676358  0.045185373           17 
 4936000   0.45622429   -3.3604005    2767.6203  0.046725087  0.045174487           18 
 4937000   0.45986358   -3.3553201    2767.2137  0.046708759  0.045163594           24 
 4938000   0.47569816   -3.3555388     2764.644  0.046655934   0.04515272           37 
 4939000   0.45119211    -3.347128    2762.0533  0.046602775  0.045141788           43 
 4940000   0.46031934    -3.350241    2765.0266  0.046643499  0.045130874           47 
 4941000   0.47295621   -3.3527258    2769.6603  0.046712208  0.045120001           48 
 4942000   0.45527798   -3.3509681    2759.3264  0.046528504  0.045109094           14 
 4943000   0.46464579   -3.3552955    2767.0812  0.046649827  0.045098225           21 
 4944000   0.45895751   -3.3601024    2764.3325  0.046594062  0.045087331           32 
 4945000   0.46538266   -3.3364977    2761.1526  0.046531051  0.045076464           24 
 4946000   0.46581325   -3.3561873    2764.9868  0.046586245  0.045065581           18 
 4947000   0.45324546   -3.3656909    2768.0871  0.046629054  0.045054685           30 
 4948000   0.45738094   -3.3447271    2769.8591  0.046649472   0.04504382           12 
 4949000   0.44883586    -3.368303     2768.291  0.046613642  0.045032949           61 
 4950000   0.46199237   -3.3542229    2768.9454  0.046615243  0.045022115           14 
 4951000   0.46420353   -3.3638601    2773.5899  0.046684002  0.045011273           23 
 4952000   0.47391152   -3.3660074     2765.888  0.046544965  0.045000417           21 
 4953000    0.4725977   -3.3646323    2769.2169  0.046591575  0.044989556           30 
 4954000   0.45873658   -3.3664023    2767.5915  0.046554829  0.044978696           40 
 4955000   0.45546848   -3.3559545    2766.7859  0.046531886  0.044967832           21 
 4956000   0.45926674   -3.3525622    2764.7574  0.046488388  0.044956965           34 
 4957000   0.45437799   -3.3528018    2768.6978  0.046545253  0.044946157           21 
 4958000   0.46217501   -3.3567492    2765.4731  0.046481664  0.044935299           20 
 4959000   0.46295177   -3.3602394    2757.9158  0.046345295  0.044924452           58 
 4960000   0.46447616   -3.3664718    2761.6514  0.046398713  0.044913573           14 
 4961000   0.46166219   -3.3621522    2768.5173  0.046504692  0.044902698           18 
 4962000   0.46484572   -3.3616654    2765.4404  0.046443645  0.044891834           33 
 4963000   0.46169946   -3.3780845    2763.6654  0.046404484   0.04488091           27 
 4964000   0.45959033   -3.3501948     2766.444   0.04644178  0.044870042           38 
 4965000   0.45610421   -3.3519835    2758.5597  0.046300095   0.04485922           16 
 4966000   0.47321696   -3.3696474    2764.6027  0.046392179  0.044848417           22 
 4967000   0.45339307   -3.3552378    2766.3474  0.046412109  0.044837557           27 
 4968000   0.45889133   -3.3669667    2765.3348  0.046385782   0.04482671           48 
 4969000   0.45496004   -3.3546642    2767.1916  0.046407587  0.044815864           57 
 4970000   0.44362243    -3.360862    2765.5796  0.046371221  0.044805008           40 
 4971000   0.44661098   -3.3619372    2757.8716  0.046232676  0.044794153           32 
 4972000    0.4551315   -3.3694985    2767.6559  0.046387368  0.044783289           66 
 4973000   0.45956094   -3.3704455      2765.28  0.046338226  0.044772459          100 
 4974000   0.45909955   -3.3662615    2768.0732  0.046375707  0.044761612           91 
 4975000   0.46057678   -3.3674029    2772.2574  0.046436472  0.044750807          116 
 4976000   0.45503664   -3.3484389    2766.8175  0.046336037  0.044739995          101 
 4977000   0.46270986   -3.3835321    2762.9305  0.046261646  0.044729135           86 
 4978000   0.45232595   -3.3864609    2763.5631  0.046262943  0.044718261          151 
 4979000   0.44328472   -3.3593492    2764.4014   0.04626768  0.044707417           68 
 4980000   0.45370415   -3.3574754    2767.8394  0.046315921  0.044696588           45 
 4981000   0.46603141   -3.3648988    2770.6191  0.046353127  0.044685781           15 
 4982000   0.46039322   -3.3725383    2763.7548  0.046229004  0.044674947           19 
 4983000   0.45225363   -3.3567246    2763.5063  0.046215571  0.044664112           11 
 4984000    0.4542397   -3.3782198    2762.8462  0.046195262  0.044653286           27 
 4985000   0.45350678   -3.3720539    2768.9071  0.046287314  0.044642433           19 
 4986000   0.44507297   -3.3710965    2759.9304  0.046127998  0.044631589           21 
 4987000   0.45813792   -3.3604692    2764.9436  0.046202521  0.044620792           28 
 4988000   0.45163231   -3.3759552    2762.3382  0.046149729  0.044610034           18 
 4989000   0.44481532   -3.3739415    2763.9351  0.046167153  0.044599231           12 
 4990000   0.45709377    -3.365391    2767.4678  0.046216898  0.044588437           14 
 4991000   0.44867988   -3.3792221    2767.6472  0.046210633  0.044577636           20 
 4992000   0.46061815   -3.3662708    2765.6078  0.046167332  0.044566838           17 
 4993000   0.45775895    -3.357356    2764.2697  0.046135751  0.044556054           13 
 4994000   0.45610891   -3.3780378    2756.9682  0.046004676   0.04454524           21 
 4995000   0.43930973   -3.3702361    2762.0118   0.04607961  0.044534441           27 
 4996000   0.44927729   -3.3851575     2766.012   0.04613711  0.044523641           20 
 4997000   0.44614168   -3.3599784    2766.1141  0.046129579  0.044512859           49 
 4998000   0.45734798   -3.3792238    2764.8433  0.046099161  0.044502083           43 
 4999000   0.46140605    -3.378561    2759.7951  0.046005787  0.044491316           24 
 5000000   0.44823599   -3.3667327    2765.6808  0.046094681  0.044480564           21 
 5001000   0.45293737   -3.3390706    2767.9308  0.046122955  0.044469832           22 
 5002000   0.45750862   -3.3763733    2768.2005  0.046118227  0.044459072           60 
 5003000   0.45737241   -3.3766577    2761.7033  0.046000788  0.044448291           22 
 5004000   0.44339262   -3.3621574       2762.3  0.046001532  0.044437504           11 
 5005000   0.45854112   -3.3806619    2768.3661  0.046093342  0.044426707           29 
 5006000   0.44804189    -3.374428    2763.4066  0.046001575  0.044415946           32 
 5007000   0.45074699   -3.3628676    2761.0625  0.045953374  0.044405161           50 
 5008000   0.45507935   -3.3742793    2765.2099  0.046013211  0.044394384           48 
 5009000   0.44942779   -3.3764867    2763.5147  0.045975822  0.044383612           36 
 5010000   0.45227236   -3.3808292    2768.0756  0.046042508  0.044372831           35 
 5011000   0.45599005   -3.3827256    2765.8315     0.045996  0.044362045           21 
 5012000   0.45093503   -3.3756341    2763.0949  0.045941322  0.044351232           16 
Loop time of 12022.1 on 48 procs for 5000000 steps with 4000 atoms

Performance: 71867.909 tau/day, 415.902 timesteps/s
99.4% CPU use with 48 MPI tasks x no OpenMP threads

MPI task timing breakdown:
Section |  min time  |  avg time  |  max time  |%varavg| %total
---------------------------------------------------------------
Pair    | 802.76     | 853.53     | 915.15     |  94.3 |  7.10
Neigh   | 80.574     | 83.75      | 86.608     |  19.0 |  0.70
Comm    | 757.88     | 822.43     | 873.49     | 102.1 |  6.84
Output  | 16.947     | 16.951     | 17.05      |   0.4 |  0.14
Modify  | 10120      | 10142      | 10160      |   9.0 | 84.36
Other   |            | 103.2      |            |       |  0.86

Nlocal:        83.3333 ave          90 max          76 min
Histogram: 1 1 4 6 8 11 9 4 2 2
Nghost:        2169.06 ave        2183 max        2154 min
Histogram: 3 2 2 4 12 7 7 7 2 2
Neighs:        14299.0 ave       15521 max       12754 min
Histogram: 1 4 2 4 6 8 10 7 2 4
FullNghs:      28663.2 ave       30821 max       26290 min
Histogram: 1 3 3 9 3 11 8 5 3 2

Total # of neighbors = 1375833
Ave neighs/atom = 343.95825
Neighbor list builds = 271646
Dangerous builds = 0

#clear
#
#next RN
#
#jump SELF
Total wall time: 3:20:25
