
units lj                  # Use reduced LJ style units
atom_style atomic         # Uncharged point particles
atom_modify map hash      # Needed for indexing of clusters etc
                          # Used to be able to find where atoms are in relation to each other.

lattice fcc 1.0 spacing 1 1 1
Lattice spacing in x,y,z = 1.5874011 1.5874011 1.5874011
region box block 0 10 0 10 0 10 units lattice
create_box 2 box
Created orthogonal box = (0.0000000 0.0000000 0.0000000) to (15.874011 15.874011 15.874011)
  3 by 4 by 4 MPI processor grid
create_atoms 1 box
Created 4000 atoms
  using lattice units in orthogonal box = (0.0000000 0.0000000 0.0000000) to (15.874011 15.874011 15.874011)
  create_atoms CPU = 0.031 seconds
set type 1 type/fraction 2 0.91 78393
Setting atom values ...
  3634 settings made for type/fraction
mass 1 1.0
mass 2 1.0
pair_style lj/cut  3.5
pair_modify tail  yes
pair_coeff 1  1  1.0  1.0   # Intearaction between 1 and 1 set with epsilon = 1 and sigma = 1
pair_coeff 1  2  1.5  0.8
pair_coeff 2  2  0.5  0.88

write_data data.0
System init for write_data ...
Neighbor list info ...
  update every 1 steps, delay 10 steps, check yes
  max neighbors/atom: 2000, page size: 100000
  master list distance cutoff = 3.8
  ghost atom cutoff = 3.8
  binsize = 1.9, bins = 9 9 9
  1 neighbor lists, perpetual/occasional/extra = 1 0 0
  (1) pair lj/cut, perpetual
      attributes: half, newton on
      pair build: half/bin/atomonly/newton
      stencil: half/bin/3d
      bin: standard
WARNING: Not all mixed pair coeffs generated from mixing. Use write_data with 'pair ij' option to store all pair coeffs. (../write_data.cpp:312)


#############################
#   M E L T   S Y S T E M   #
#############################

velocity all create 2.4 6229865 mom yes dist gaussian # Assign velocities
                                                    # Temperature 2.4, random number seed, zero linear momentum
                                                                                # Gaussian distribution

timestep 0.002   # simulation timestep
thermo 1000       # output thermodynamic data every 1000 steps bf 100

# Define a fix  in this case with index 1 applied to all
# particles in the simulation. This fix is for simulations
# in the anisotropic NPT ensemble. Note that we use the MTK
# correction.
fix 1 all npt temp 2.4 2.4 0.1 iso 5.68 5.68 0.5 mtk yes tchain 5 pchain 5 # Use NPT ensemble
                                                                         # Set temperature and pressure and damping
                                                                         # Numbers of thermostats in chain and in barostat
run 10000          # run for 10000 steps
Per MPI rank memory allocation (min/avg/max) = 3.642 | 3.644 | 3.648 Mbytes
Step Temp E_pair E_mol TotEng Press Volume 
       0          2.4    -3.140535            0     0.458565   -2.4974117         4000 
    1000      2.38256   -2.1436116            0    1.4293349     5.622357    4038.5944 
    2000    2.3566378   -2.2055993            0    1.3284737    5.7158149     3979.339 
    3000    2.4127978   -2.1565354            0    1.4617565    5.5824616    4043.2447 
    4000    2.3886574   -2.1319304            0      1.45016    5.6845931    4045.2891 
    5000    2.3488563   -2.1585355            0    1.3638681    5.4011669    4064.5723 
    6000    2.3664056   -2.2089568            0    1.3397642    5.3227365    4027.8934 
    7000    2.3434695   -2.1351851            0    1.3791403    5.6543484    4041.5754 
    8000    2.3945614   -2.1498893            0    1.4410548    5.5973881    4046.3878 
    9000    2.4111001   -2.1780079            0    1.4377381    5.5161563    4025.0202 
   10000    2.4401411   -2.1464462            0    1.5128503     5.583975    4049.3083 
Loop time of 2.58067 on 48 procs for 10000 steps with 4000 atoms

Performance: 669594.619 tau/day, 3874.969 timesteps/s
99.5% CPU use with 48 MPI tasks x no OpenMP threads

MPI task timing breakdown:
Section |  min time  |  avg time  |  max time  |%varavg| %total
---------------------------------------------------------------
Pair    | 1.0582     | 1.1446     | 1.3066     |   3.9 | 44.35
Neigh   | 0.20584    | 0.21383    | 0.24536    |   1.4 |  8.29
Comm    | 0.76143    | 0.89422    | 1.0239     |   5.4 | 34.65
Output  | 0.00024481 | 0.00025123 | 0.00031551 |   0.0 |  0.01
Modify  | 0.24478    | 0.3126     | 0.36212    |   4.9 | 12.11
Other   |            | 0.01518    |            |       |  0.59

Nlocal:        83.3333 ave          97 max          74 min
Histogram: 3 4 5 16 4 7 5 2 1 1
Nghost:        1633.27 ave        1672 max        1602 min
Histogram: 2 3 9 10 6 5 3 6 2 2
Neighs:        9426.35 ave       11104 max        8198 min
Histogram: 2 4 7 12 8 5 4 4 1 1

Total # of neighbors = 452465
Ave neighs/atom = 113.11625
Neighbor list builds = 903
Dangerous builds = 196

# Equilibrate just above the melting temperature to avoid step fn in T

fix 1 all npt temp 1.25 1.25 0.1 iso 5.68 5.68 0.5 mtk yes tchain 5 pchain 5
run 2000
Per MPI rank memory allocation (min/avg/max) = 3.643 | 3.645 | 3.649 Mbytes
Step Temp E_pair E_mol TotEng Press Volume 
   10000    2.4401411   -2.1464462            0    1.5128503     5.583975    4049.3083 
   11000     1.237279   -3.2283039            0   -1.3728494    5.6645345     3115.942 
   12000    1.2569293    -3.196551            0   -1.3116284    5.6032745    3141.2575 
Loop time of 0.600435 on 48 procs for 2000 steps with 4000 atoms

Performance: 575582.627 tau/day, 3330.918 timesteps/s
99.6% CPU use with 48 MPI tasks x no OpenMP threads

MPI task timing breakdown:
Section |  min time  |  avg time  |  max time  |%varavg| %total
---------------------------------------------------------------
Pair    | 0.26632    | 0.28916    | 0.30568    |   1.9 | 48.16
Neigh   | 0.039549   | 0.04158    | 0.043625   |   0.5 |  6.92
Comm    | 0.20145    | 0.22008    | 0.24389    |   2.3 | 36.65
Output  | 5.1801e-05 | 5.3794e-05 | 7.0358e-05 |   0.0 |  0.01
Modify  | 0.040357   | 0.044805   | 0.049371   |   1.2 |  7.46
Other   |            | 0.004757   |            |       |  0.79

Nlocal:        83.3333 ave          93 max          75 min
Histogram: 2 3 5 10 6 10 5 4 2 1
Nghost:        1940.06 ave        1964 max        1913 min
Histogram: 2 1 4 4 10 9 10 3 3 2
Neighs:        12159.1 ave       13962 max       10508 min
Histogram: 2 1 6 10 7 9 7 2 3 1

Total # of neighbors = 583635
Ave neighs/atom = 145.90875
Neighbor list builds = 144
Dangerous builds = 18

#############################
# L I N E A R  Q U E N C H  #
#############################

# Define solid atoms. This closely follows ten Wolde  Ruiz-Montero and Frenkel  Faraday Discuss  1996  104  93-110
# Compute components of the per-atom q6 vector
compute q6 all orientorder/atom degrees 1 6 components 6 nnn NULL cutoff 1.3 # compute the Q6 parameter.
                                                                             # Use all neighbours within 1.3 unit cell.

# get number of connections
compute coord_number all coord/atom orientorder q6 0.5

# An atom is solid if it has 8 or more connections (of a possible 14)
variable is_solid atom c_coord_number>=8
group solid dynamic all var is_solid    # Must be dynamic to update
dynamic group solid defined

# do clustering
compute cluster solid cluster/atom 1.3 # Create a cluster where all atoms within are solid and max 1.3 units from another member

# define chunks one chunk per cluster
compute clus_chunks solid chunk/atom c_cluster nchunk every compress yes  # Says which atoms are in which chunk

# count the size of each chunk
compute size_chunks solid property/chunk clus_chunks count


# Find the maximum entry in the vector of chunk sizes
variable max_n equal max(c_size_chunks)


# Thermo style which includes this variable
# thermo_style custom step temp pe vol v_max_n

thermo ${N}  # Print the thermo information every 100 steps
thermo 1000  

# Reset the npt fix at a lower temperature (below freezing)
fix 1  all npt temp  ${temp} ${temp}  0.1  iso  5.68  5.68  0.5  mtk yes tchain  5  pchain  5
fix 1  all npt temp  0.45 ${temp}  0.1  iso  5.68  5.68  0.5  mtk yes tchain  5  pchain  5
fix 1  all npt temp  0.45 0.45  0.1  iso  5.68  5.68  0.5  mtk yes tchain  5  pchain  5

dump dmp2 all dcd ${N} traj.dcd
dump dmp2 all dcd 1000 traj.dcd


compute msd all msd com yes
variable twopoint equal c_msd[4]/6/(step*dt+1.0e-6)
fix 9 all vector 10 c_msd[4]
variable fit equal slope(f_9)/6/(10*dt)
thermo_style custom step temp pe c_msd[4] v_twopoint v_fit v_max_n

fix 1 all npt temp 1.25 ${temp} 0.1 iso 5.68 5.68 0.5 mtk yes tchain 5 pchain 5
fix 1 all npt temp 1.25 0.45 0.1 iso 5.68 5.68 0.5 mtk yes tchain 5 pchain 5
run 5000000 # 5000000  # Run for this many steps
Neighbor list info ...
  update every 1 steps, delay 10 steps, check yes
  max neighbors/atom: 2000, page size: 100000
  master list distance cutoff = 3.8
  ghost atom cutoff = 3.8
  binsize = 1.9, bins = 8 8 8
  4 neighbor lists, perpetual/occasional/extra = 1 3 0
  (1) pair lj/cut, perpetual
      attributes: half, newton on
      pair build: half/bin/atomonly/newton
      stencil: half/bin/3d
      bin: standard
  (2) compute orientorder/atom, occasional
      attributes: full, newton on
      pair build: full/bin/atomonly
      stencil: full/bin/3d
      bin: standard
  (3) compute coord/atom, occasional
      attributes: full, newton on
      pair build: full/bin/atomonly
      stencil: full/bin/3d
      bin: standard
  (4) compute cluster/atom, occasional
      attributes: full, newton on
      pair build: full/bin/atomonly
      stencil: full/bin/3d
      bin: standard
Per MPI rank memory allocation (min/avg/max) = 9.823 | 9.827 | 9.833 Mbytes
Step Temp PotEng c_msd[4] v_twopoint v_fit v_max_n 
   12000    1.2569293    -3.196551 2.0782541e-30 1.4432319e-32 8.3333333e+20            1 
   13000    1.2289605   -3.2310373    1.0301284 0.0066033868  0.088228807            2 
   14000    1.2896916    -3.199575    2.1202997  0.012620831  0.090144163            1 
   15000     1.242568   -3.1970823    3.2122973  0.017846096  0.090027792            1 
   16000    1.2515761   -3.2159704    4.3311211  0.022557922  0.091535144            3 
   17000    1.2421261   -3.2246192    5.4391342  0.026662422   0.09182706            2 
   18000     1.220317   -3.2526212    6.5673161   0.03040424  0.091798959            2 
   19000    1.2503368   -3.2357191    7.6025539  0.033344534  0.092020326            2 
   20000    1.2487985   -3.1984691    8.6654116  0.036105881  0.091485436            2 
   21000    1.2323979   -3.2006889    9.7550471  0.038710503  0.091196219            2 
   22000    1.2553709    -3.219337    10.888747  0.041245252  0.090819614            2 
   23000    1.2251286   -3.1759379     12.04919  0.043656484  0.091025972            2 
   24000    1.2366331   -3.2510698    13.082232  0.045424417  0.091166926            2 
   25000    1.2667704   -3.2288425    14.208029  0.047360097  0.091138384            1 
   26000    1.2552247   -3.2486234    15.309631  0.049069328  0.091404282            3 
   27000    1.2661149   -3.2124686    16.365307  0.050510205  0.091457977            1 
   28000     1.237793   -3.2174969    17.444656  0.051918617  0.091390009            2 
   29000    1.2717669   -3.2204962    18.489622  0.053131095  0.091266936            3 
   30000    1.2753237   -3.1967799    19.249208  0.053470023  0.090947121            3 
   31000    1.2328134   -3.1981326    20.306101  0.054586293  0.090460717            2 
   32000    1.2214782   -3.2409411    21.340958   0.05557541  0.090117093            1 
   33000    1.2522024   -3.2278897    22.632359   0.05715242  0.089856263            1 
   34000    1.2441565   -3.2351103    23.479353  0.057547433  0.089649593            2 
   35000    1.2399297   -3.2296943    24.480004  0.058285723  0.089482312            1 
   36000    1.2390166   -3.2208947    25.773279  0.059660367  0.089348058            1 
   37000      1.24544   -3.2337183    26.754266  0.060257354  0.089251752            1 
   38000    1.2453582    -3.227461    27.835558  0.061042889  0.089145346            1 
   39000    1.2625508   -3.2512176    29.011439  0.061990253  0.089107764            2 
   40000    1.2625166   -3.2188934    30.292539  0.063109456  0.089135295            1 
   41000    1.2680214   -3.2284674    31.215612  0.063446365  0.089178583            1 
   42000    1.2336428   -3.2287297    32.332263  0.064151315   0.08920011            2 
   43000    1.2406373   -3.1906786    33.312716  0.064559527  0.089181154            5 
   44000    1.2507409   -3.2224715    34.492856  0.065327378  0.089204845            1 
   45000    1.2468315    -3.235114     35.26096  0.065298073  0.089158766            2 
   46000    1.2410548   -3.2440187    36.353668  0.065858093  0.089098156            4 
   47000    1.2509631   -3.2154249    37.247156  0.066041056  0.088993697            3 
   48000    1.2509247   -3.2320251    38.512314  0.066861655  0.088972671            3 
   49000    1.2620954   -3.2225326    39.640881  0.067416464  0.088934778            2 
   50000    1.2617918   -3.2292266    40.613654  0.067689423  0.088895338            1 
   51000    1.2542658   -3.2277203    41.795867  0.068293899  0.088918937            1 
   52000    1.2506895   -3.2252413    43.011775  0.068929126  0.088953236            1 
   53000     1.250162   -3.2288958    44.135055  0.069394739  0.088976576            3 
   54000    1.2240506   -3.2088492    45.343877  0.069975118   0.08901924            2 
   55000     1.243822    -3.247461    46.052722  0.069776851  0.089066151            2 
   56000    1.2380829   -3.2148326    47.509204   0.07069822  0.089102972            1 
   57000    1.2177284   -3.1932139    48.208979  0.070480963  0.089129162            1 
   58000    1.2434122   -3.2636485     49.07864  0.070515286  0.089099917            1 
   59000    1.2383059   -3.2483239    50.232477  0.070949826  0.089033594            2 
   60000    1.2319717   -3.2085492    51.267784  0.071205255  0.089004392            1 
   61000    1.2148827   -3.2409747    52.228504  0.071350415  0.088954428            2 
   62000     1.241643   -3.1983293    53.463527  0.071859579  0.088912076            2 
   63000    1.2520091   -3.2315574    54.412197  0.071973806  0.088854948            1 
   64000    1.2306279   -3.2176417    55.463254  0.072217778  0.088800825            2 
   65000    1.2304146   -3.2314017    56.588379  0.072549204  0.088759411            3 
   66000    1.2449928   -3.2077563      57.5879  0.072711994  0.088711835            1 
   67000     1.264725   -3.2134256    58.654665  0.072953563  0.088657086            2 
   68000    1.2482198   -3.2285443    59.579605  0.073014221  0.088635108            1 
   69000    1.2236334   -3.1999639    60.671728  0.073275033  0.088599477            2 
   70000    1.2383778   -3.2020348    61.770467   0.07353627  0.088589538            3 
   71000    1.2339313   -3.2054702    62.954061  0.073889742  0.088589804            1 
   72000    1.2526099   -3.2417453    64.034105  0.074113548  0.088577727            3 
   73000    1.2390914   -3.2354784    64.993986  0.074194047  0.088577621            5 
   74000    1.2269749   -3.2412697    66.316802  0.074681082   0.08859047            3 
   75000    1.2273078   -3.2402827    67.354574  0.074838415  0.088620959            3 
   76000    1.2465579   -3.2630082    68.453283  0.075058424  0.088667743            1 
   77000    1.2466421   -3.2404249    69.637772  0.075365553  0.088713518            3 
   78000    1.2397017   -3.2536748    70.877332  0.075723645  0.088764373            1 
   79000    1.2542226   -3.2075753    72.365595  0.076335016  0.088824717            4 
   80000    1.2760052   -3.2175563    73.088952  0.076134324  0.088862954            1 
   81000    1.2518213   -3.2486265    73.397113  0.075511433  0.088865504            2 
   82000     1.260732   -3.2275985    74.878769   0.07609631  0.088860434            1 
   83000     1.240911   -3.2331507    75.757761  0.076062008  0.088837814            1 
   84000    1.2630274   -3.2223926    76.582958  0.075975157  0.088804167            2 
   85000    1.2316923   -3.2427184    77.235151  0.075720736  0.088754534            1 
   86000    1.2365165   -3.2527268    78.024239  0.075604882  0.088699614            5 
   87000    1.2491252   -3.2355085    79.234411  0.075895029  0.088635426            1 
   88000    1.2247732   -3.2638163    80.561222  0.076289035  0.088593015            1 
   89000    1.2336206   -3.2433366    81.711689  0.076509072  0.088561182            1 
   90000    1.2358319   -3.2378219    82.775974   0.07664442  0.088542193            1 
   91000    1.2235701   -3.2356745    84.456575  0.077341186  0.088532048            2 
   92000    1.2449772   -3.2231212    85.229384  0.077200528  0.088548973            2 
   93000    1.2342009   -3.2191279    86.727593  0.077712896  0.088569904            1 
   94000     1.245853   -3.2279441    87.835114  0.077868009  0.088596015            1 
   95000    1.2319636   -3.2573829    89.069571  0.078131203  0.088635188            2 
   96000    1.2275408   -3.2453717    90.535376  0.078589736  0.088690838            1 
   97000    1.2379098   -3.2350393    90.972254  0.078154857  0.088750107            1 
   98000    1.2513312   -3.2503352    92.560965  0.078708303  0.088795777            1 
   99000    1.2413394   -3.2307951    93.984757  0.079111748  0.088869821            1 
  100000      1.24425   -3.2494678    95.057309  0.079214424  0.088958456            4 
  101000    1.2482509   -3.2360551     96.40951    0.0795458  0.089034738            2 
  102000    1.2458987   -3.2582316    96.645794  0.078958981  0.089092645            2 
  103000    1.2375393   -3.2104051    98.582584  0.079759372  0.089146572            3 
  104000    1.2495995   -3.2270814    99.335421   0.07959569  0.089187538            1 
  105000    1.2255639   -3.2615368    99.493097  0.078962775  0.089215144            2 
  106000    1.2442534   -3.2654001    101.11113  0.079489879  0.089232077            1 
  107000    1.2207314   -3.2804852    101.48654  0.079039361  0.089240776            2 
  108000    1.2362134   -3.2316128    103.36352  0.079755805  0.089246878            4 
  109000    1.2482266    -3.243051    103.88904  0.079425869  0.089263411            2 
  110000    1.2391924   -3.2390303    105.37935  0.079832839  0.089288806            2 
  111000    1.2455677   -3.2670585    106.59395  0.080025485  0.089314935            1 
  112000    1.2354189   -3.2456984    107.87208  0.080261965  0.089342214            1 
  113000    1.2433766   -3.1887459    109.26764  0.080580852  0.089394321            1 
  114000       1.2235   -3.2247271    110.44634  0.080735627  0.089440924            2 
  115000    1.2354891   -3.2450052    111.17123  0.080558865  0.089484291            2 
  116000    1.2257728   -3.2266741    113.01731  0.081190595   0.08952624            3 
  117000      1.23771   -3.2519738    114.38604   0.08147154  0.089589044            1 
  118000    1.2516502   -3.2360688    115.53127  0.081589877  0.089657355            2 
  119000    1.2219086   -3.2436311    116.41515  0.081523212  0.089718142            2 
  120000     1.232292   -3.2565717    117.03088  0.081271444  0.089770389            1 
  121000    1.2243142   -3.2433486    118.18841  0.081396973  0.089817958            3 
  122000    1.2195637   -3.2437673    120.35206  0.082207688  0.089879546            2 
  123000    1.2506074   -3.2421482    121.19316  0.082109185  0.089940307            2 
  124000     1.270537   -3.2611863     121.1564  0.081422311  0.089995481            2 
  125000    1.2441722   -3.2532741     123.2876  0.082191736  0.090053702            1 
  126000    1.2162875   -3.2189329    124.18892  0.082135528  0.090105441            2 
  127000    1.2405906   -3.2194627    125.50112  0.082349813  0.090162923            2 
  128000    1.2171752   -3.2529472    126.44472  0.082320782  0.090218164            3 
  129000    1.2507461   -3.2376122    127.04338   0.08206937  0.090264073            2 
  130000    1.2748908   -3.2515003    128.20248  0.082181079  0.090304109            2 
  131000    1.2306547   -3.2022304    129.65162  0.082475587  0.090340804            3 
  132000    1.2313291    -3.253629    130.64017  0.082474853  0.090384128            3 
  133000    1.2468079   -3.2569913    131.18618  0.082196857  0.090415301            3 
  134000    1.2444864   -3.2397317    132.73576  0.082547113  0.090445579            3 
  135000    1.2209403   -3.2391227    134.56213  0.083063042  0.090483688            1 
  136000    1.2346297   -3.2139497    135.24706  0.082871973  0.090523734            2 
  137000    1.2241352   -3.2559582     135.9589  0.082700058  0.090564405            4 
  138000    1.2160316   -3.2103224    137.05357  0.082761819  0.090594311            2 
  139000    1.2288873   -3.2280158    137.73103  0.082572562  0.090617861            1 
  140000     1.244719   -3.2459667    139.10608   0.08280124  0.090640675            2 
  141000    1.2273873    -3.214655    140.47117  0.083020784  0.090657871            2 
  142000    1.2290113   -3.2359213    141.34043  0.082946264  0.090676805            3 
  143000    1.2126781   -3.2365416    142.80611  0.083220341    0.0907007            3 
  144000    1.2406403   -3.2150439      143.975  0.083318864  0.090719745            2 
  145000    1.2270628   -3.2442729    144.99984  0.083333241  0.090735809            1 
  146000    1.2246741   -3.2334565    146.26587  0.083485088  0.090750456            1 
  147000    1.2271371   -3.2777629    147.11385  0.083397874  0.090766715            1 
  148000     1.212731   -3.2258801    147.78008  0.083209503  0.090773879            1 
  149000    1.2102916   -3.2114653    149.66071   0.08370286  0.090782394            1 
  150000    1.2507679   -3.2506871    149.87583  0.083264348  0.090800642            2 
  151000    1.2449881   -3.2623139    151.00796  0.083337729  0.090810538            3 
  152000    1.2561074   -3.2363988     152.8034  0.083773791  0.090831701            2 
  153000    1.2425709   -3.2510609    153.55015  0.083632978  0.090846217            3 
  154000    1.2254974   -3.2347396    154.31331  0.083502874   0.09085615            2 
  155000     1.246002   -3.2402941    155.45906  0.083580137  0.090859901            1 
  156000    1.2093685   -3.2576807    157.18882  0.083968384  0.090867282            1 
  157000    1.2256569   -3.2575919    156.73046  0.083190265  0.090866406            1 
  158000     1.215836   -3.2618958    157.88553  0.083272956  0.090854416            2 
  159000    1.2752163   -3.2418975    159.24371  0.083461065    0.0908483            2 
  160000    1.2106081   -3.2442721    159.95741  0.083311151  0.090830013            2 
  161000    1.2205262   -3.2291767    161.25985  0.083467833  0.090806682            2 
  162000    1.2254397   -3.2330555    161.88762  0.083275526  0.090787877            2 
  163000    1.2264131   -3.2385606    162.84277  0.083252948  0.090766098            1 
  164000    1.2269958   -3.2617628    163.45444  0.083056117  0.090741199            1 
  165000    1.2245224   -3.2497667    165.43606  0.083553568  0.090721627            2 
  166000    1.2264404   -3.2450404    167.23411  0.083952865  0.090708126            1 
  167000    1.2265164   -3.2630961    167.15188   0.08340912  0.090693002            2 
  168000    1.2436722    -3.250521    168.76467  0.083712632  0.090680042            2 
  169000    1.2248847   -3.2494449    169.56641  0.083612628  0.090667327            2 
  170000    1.2142168   -3.2570708    170.54485  0.083600416  0.090659161            1 
  171000    1.2421124   -3.2047854    171.28168  0.083470603  0.090642016            1 
  172000    1.2507621   -3.2550033    172.94957  0.083793394  0.090624632            1 
  173000     1.227734   -3.2157866    174.34144  0.083979498  0.090612974            4 
  174000    1.2459331   -3.2345716    175.54574  0.084073629  0.090601667            5 
  175000    1.1856266   -3.2281297    176.53515  0.084064356  0.090591175            2 
  176000    1.2303326   -3.2462195    177.41564  0.084003616  0.090587514            4 
  177000    1.1834631   -3.2768392    177.73639  0.083680031  0.090583178            2 
  178000    1.2352025    -3.262935    179.68982  0.084124446  0.090579058            2 
  179000    1.2342681   -3.2518428       180.46  0.084013034  0.090575437            1 
  180000    1.2091269   -3.2050379    183.33084   0.08487539  0.090576506            1 
  181000    1.2136908   -3.2629755    182.61062  0.084074872  0.090580724            1 
  182000     1.219088    -3.279395    183.56611  0.084050416  0.090572633            1 
  183000    1.2208085   -3.2610719    184.48341  0.084008837  0.090565026            2 
  184000    1.2152914   -3.2379537    185.24148  0.083895598     0.090553            2 
  185000    1.2274022    -3.254865    186.99424  0.084231639  0.090537043            2 
  186000    1.2320239   -3.2147498    188.00756  0.084232778  0.090520106            1 
  187000    1.2164779   -3.2410068    188.37178  0.083944642  0.090500326            4 
  188000    1.2335024   -3.2640924     189.2041  0.083867064  0.090482422            1 
  189000    1.1954738   -3.2709682     189.4719    0.0835414  0.090456511            1 
  190000    1.2155166   -3.2915694     190.2491  0.083442587  0.090425661            2 
  191000    1.2281545   -3.2528795     191.6255  0.083606237  0.090401437            1 
  192000    1.2102175   -3.2332481    194.01709  0.084208806  0.090378257            2 
  193000    1.2212559   -3.2424128    194.50956  0.083985131  0.090352794            1 
  194000    1.2249091   -3.2509248    194.86431  0.083704599  0.090324024            1 
  195000     1.255809   -3.2715022    194.86915  0.083277413  0.090299708            2 
  196000    1.2070204   -3.2611711     197.0026  0.083759611  0.090272543            2 
  197000    1.2250751   -3.2344081     198.4236  0.083935533  0.090249774            2 
  198000    1.2076793   -3.2623674    198.77274  0.083658559  0.090220681            1 
  199000    1.2261373   -3.2904907    200.30459  0.083879643  0.090192894            2 
  200000    1.2638031   -3.2813705     201.9457  0.084144043  0.090166409            3 
  201000    1.2302487   -3.2472903     203.1758  0.084235405  0.090151254            1 
  202000     1.232554   -3.2440711    203.85217  0.084097429  0.090133863            1 
  203000    1.2286203   -3.2606568    205.31415  0.084283311  0.090113489            1 
  204000    1.2131546   -3.2615104    205.66974  0.084015417  0.090101102            1 
  205000    1.2181185   -3.2705289    207.21686  0.084234495  0.090086201            3 
  206000    1.2225938   -3.2542872    208.92769  0.084517672  0.090079026            1 
  207000    1.2060331   -3.2420609    210.22622  0.084632132  0.090079019            2 
  208000    1.2253388   -3.2454572    212.20505   0.08501805  0.090084528            1 
  209000    1.1998318    -3.260714    212.29908  0.084648758  0.090088299            2 
  210000    1.2159107   -3.2150996    213.57379  0.084751505  0.090084658            1 
  211000    1.2235955   -3.2540726    214.62454  0.084764825  0.090080297            2 
  212000    1.1935966   -3.2612702    215.68419  0.084781521  0.090072302            2 
  213000    1.2298558   -3.2655305    217.04208  0.084914743   0.09006262            1 
  214000    1.2142883   -3.2309662    217.50261  0.084697279  0.090046949            1 
  215000    1.1891649   -3.2562658    217.77464  0.084408775  0.090033778            1 
  216000    1.2076926    -3.252128    219.12584  0.084539288  0.090018985            2 
  217000    1.2219919   -3.3012708    219.76992  0.084397051  0.090005559            2 
  218000    1.2296913   -3.2779621    220.69613  0.084363965  0.089991773            4 
  219000    1.2319386   -3.2672323    222.92413  0.084826532  0.089978258            1 
  220000    1.1970519   -3.2555487    223.79538  0.084770978  0.089964621            1 
  221000    1.2353669   -3.2540371    224.69293  0.084725842   0.08995165            1 
  222000    1.2397092   -3.2753814    224.62071  0.084317082  0.089934372            2 
  223000    1.2079953   -3.2906629    225.67408  0.084332616  0.089914842            2 
  224000    1.2081251   -3.2902745     226.9988  0.084448957  0.089896289            2 
  225000    1.2555241   -3.2712709    226.98216  0.084067465  0.089877236            1 
  226000    1.2268339   -3.2712875    228.76261  0.084351996  0.089857672            1 
  227000    1.2223725   -3.2195426    230.84245  0.084743923  0.089837628            2 
  228000    1.2337482   -3.2633081    231.74085  0.084700603  0.089820271            1 
  229000    1.1914297   -3.2493244    232.05843    0.0844463  0.089802571            2 
  230000    1.2131012   -3.2408687    233.36074  0.084550994  0.089784274            1 
  231000    1.2019493   -3.2509672    234.23534  0.084500485  0.089767457            1 
  232000    1.2164541   -3.2471815    234.08854  0.084083528  0.089742326            2 
  233000     1.212387   -3.2636331    235.93225  0.084382063  0.089715682            1 
  234000    1.2258429    -3.253458    236.47204  0.084213689  0.089687969            4 
  235000    1.1987947   -3.2637264    238.09838  0.084432051  0.089661415            1 
  236000    1.2276267   -3.2596289    238.87887  0.084349882  0.089637803            2 
  237000    1.2227267   -3.2874998     239.9267  0.084362411  0.089614939            2 
  238000    1.2189567   -3.3049181    241.38583  0.084518847  0.089596813            2 
  239000    1.2019936   -3.2399371    243.33889  0.084846196  0.089583644            3 
  240000    1.2049018   -3.2700171    242.45207  0.084184746  0.089567977            2 
  241000    1.2099248   -3.2871437    243.26945  0.084118068  0.089550164            1 
  242000    1.2106348   -3.2372604     246.0211   0.08471801   0.08953129            2 
  243000    1.2099572   -3.2573096    246.04067  0.084376088  0.089509525            3 
  244000    1.2039943   -3.2543864    247.69775  0.084596226  0.089490841            2 
  245000    1.2276849    -3.282222    249.36525  0.084818111  0.089473324            2 
  246000    1.2302366   -3.2890225    250.65631  0.084910674  0.089454249            1 
  247000    1.2035403   -3.2619013    250.58266  0.084542058  0.089440141            1 
  248000    1.2079147   -3.2324654    253.39421  0.085145904  0.089428052            2 
  249000    1.2188164   -3.2524977    253.61934  0.084879298  0.089420073            1 
  250000     1.185848   -3.2621356    255.16749  0.085055829  0.089412055            1 
  251000    1.1964749   -3.2996153    255.16079  0.084714738  0.089405522            2 
  252000    1.2265229   -3.2669955    257.28182  0.085079966  0.089399742            1 
  253000     1.224497    -3.247315    260.31154  0.085741613  0.089400615            3 
  254000    1.2006482   -3.2582029    258.91319  0.084945273  0.089393044            2 
  255000    1.2244788   -3.2654343    260.08413  0.084994812  0.089385217            1 
  256000    1.1922526   -3.2417568     261.9748  0.085278256  0.089382426            2 
  257000    1.2260803    -3.261105    261.95729  0.084940754  0.089374811            1 
  258000    1.2061775   -3.2844165     264.5477  0.085448222  0.089371703            2 
  259000    1.1936161   -3.2529908    266.25336  0.085667105  0.089375053            2 
  260000    1.2150311   -3.2876634    266.83684  0.085524628  0.089378385            2 
  261000    1.2009023   -3.2641332    268.97675  0.085880188  0.089383746            2 
  262000    1.2005524   -3.2989941    267.88294  0.085204497  0.089391849            1 
  263000    1.2048667   -3.2900774    271.64869  0.086073728   0.08940064            6 
  264000    1.2452732   -3.2640454    272.54372  0.086030215  0.089413476            2 
  265000    1.2015558    -3.268764    273.25919  0.085930561  0.089426218            4 
  266000    1.2012868   -3.2585695    274.46895  0.085986513    0.0894357            3 
  267000    1.1790231   -3.2845596    274.84495   0.08578182  0.089446742            1 
  268000     1.203376   -3.2754649    276.59407   0.08600562  0.089457997            2 
  269000    1.1782279   -3.3097816    275.93647  0.085482179  0.089463329            1 
  270000    1.2044438   -3.2750991    278.48579  0.085952404  0.089471844            2 
  271000    1.2151879   -3.3110657    279.61463  0.085982359  0.089482321            8 
  272000    1.2020914   -3.3035657    281.40063  0.086213429  0.089496365            3 
  273000    1.2146679   -3.2712351    282.86497   0.08634462  0.089510746            2 
  274000     1.196131   -3.2838074    282.64401  0.085962289  0.089524478            2 
  275000    1.1885786   -3.2631877     284.7355  0.086283485  0.089537516            1 
  276000    1.1934342   -3.2771214    284.99411  0.086048947  0.089550075            1 
  277000    1.2178747   -3.2745407    286.37501  0.086153735  0.089565594            3 
  278000    1.1932569   -3.2658674    288.59584  0.086509545  0.089577494            1 
  279000    1.2291467   -3.2921412    288.16318  0.086070245  0.089583367            3 
  280000     1.216996   -3.2716903    289.20726  0.086073589  0.089587904            2 
  281000    1.2239228   -3.2720459    289.69489  0.085911888  0.089593222            3 
  282000    1.2297458   -3.2408647    290.34542  0.085799475  0.089596346            2 
  283000    1.2321933   -3.3166925    290.78216  0.085624899  0.089597384            1 
  284000    1.2132083   -3.2637615    291.87099  0.085642897  0.089595542            2 
  285000    1.2020752    -3.271154    293.35495  0.085776302  0.089596779            1 
  286000     1.204475   -3.2723864    295.72783  0.086167784   0.08959807            1 
  287000    1.2051674   -3.2896286    294.63467  0.085550135  0.089597575            2 
  288000    1.2301234   -3.2671593    296.43923  0.085775241  0.089597348            1 
  289000    1.2158894   -3.2821415    298.38187  0.086038601  0.089596281            2 
  290000    1.2063857   -3.2917831    298.13272  0.085670322  0.089592169            2 
  291000    1.2154648   -3.2851996    299.69193   0.08582243  0.089594386            1 
  292000    1.2121084   -3.2539124    302.12023  0.086221528   0.08959425            2 
  293000    1.2134498   -3.2519342      303.077  0.086199375  0.089595972            3 
  294000    1.1958327   -3.2935308    302.70872  0.085801791  0.089594175            4 
  295000    1.1960824   -3.2769433    305.42404  0.086277978  0.089592007            2 
  296000    1.2213626   -3.3004959    304.84135  0.085822451  0.089586467            3 
  297000    1.2250126    -3.240926    306.09196  0.085884389   0.08958522            1 
  298000     1.202603   -3.3001415    306.61667  0.085742916  0.089580047            3 
  299000    1.2084212   -3.2982799    306.65513  0.085466871  0.089571964            2 
  300000    1.1735402   -3.2943046    308.43426  0.085676185  0.089565008            2 
  301000    1.2014504    -3.281284    310.39414  0.085934146  0.089560703            2 
  302000    1.1897051   -3.2755794    311.24985  0.085885719  0.089559681            2 
  303000    1.2091047   -3.2860851     313.5253  0.086228079  0.089554425            2 
  304000    1.2106446   -3.2981613    312.84718  0.085758547  0.089552035            1 
  305000    1.2222581   -3.2846534    314.36044  0.085890831  0.089548216            2 
  306000    1.2101044   -3.2720603    317.08052  0.086350905  0.089543402            1 
  307000     1.158764   -3.2595373    315.32826  0.085593991  0.089537049            3 
  308000    1.2179171   -3.2429345    316.72647  0.085694391  0.089529914            4 
  309000    1.1802531   -3.3166278    317.38199  0.085593849  0.089521393            1 
  310000    1.2395807   -3.2582455    319.86557  0.085985369  0.089514232            2 
  311000    1.1820486   -3.2700741    320.16689  0.085789627  0.089509621            1 
  312000    1.2191051   -3.2801726    321.31963  0.085822551  0.089503028            2 
  313000    1.2231202   -3.2728481    323.09447  0.086020892   0.08949485            2 
  314000    1.1790487   -3.3055627    323.69787  0.085907078  0.089488266            1 
  315000    1.1926193   -3.2894642    322.20285   0.08523885  0.089478649            2 
  316000    1.1997532    -3.263669    324.39697  0.085547723  0.089467658            3 
  317000    1.2218587    -3.300157    324.80317  0.085384641  0.089457299            1 
  318000    1.2052302   -3.2457976    326.21296  0.085485577  0.089445316       -1e+20 
  319000    1.2461689   -3.2503453    329.10327  0.085972641  0.089432845            1 
  320000    1.2288541    -3.289422     328.1427  0.085453829  0.089418897            3 
  321000    1.1961162   -3.2882589    330.32354  0.085753774  0.089405144            2 
  322000    1.1989601   -3.2533492    331.40461  0.085767238  0.089393186            1 
  323000    1.2005887   -3.2906879    330.38836  0.085239514  0.089377276            2 
  324000     1.188218   -3.2757646     332.4778  0.085513837  0.089365281            2 
  325000    1.1870196   -3.2818635     334.5988  0.085794564  0.089352761            3 
  326000    1.1935589   -3.2799166    335.02965  0.085641526  0.089338432            1 
  327000    1.2163818   -3.3056096    335.39712  0.085473271  0.089326571            2 
  328000    1.1892858   -3.2798851    336.42128  0.085472886  0.089316095            2 
  329000    1.1765951   -3.2577061     338.1917  0.085661525   0.08930245            1 
  330000    1.2069457   -3.2569129    340.48043  0.085979905   0.08929327            3 
  331000    1.2157647   -3.3069022    339.57271  0.085491618  0.089282271            2 
  332000    1.2071477    -3.275475    340.85136  0.085555061  0.089272438            2 
  333000    1.1914344   -3.2490322    344.26439   0.08615225  0.089264333            3 
  334000     1.207643   -3.2839003    344.44046  0.085938239  0.089255314            3 
  335000    1.2093885    -3.278239    344.87467  0.085789719  0.089247476            2 
  336000    1.1876843   -3.2943812     347.6893  0.086232466  0.089240484            1 
  337000    1.1803148   -3.2908173    347.49123  0.085927603  0.089237989            1 
  338000    1.2004524   -3.3086788    346.95985  0.085542369  0.089231941            2 
  339000    1.1902752   -3.2943612    350.75509  0.086222981  0.089225905            5 
  340000    1.2211983   -3.2744539    350.84367  0.085991095  0.089222504            2 
  341000    1.2157614   -3.2548813    351.02246  0.085782614  0.089217298            3 
  342000    1.1868157    -3.286532    352.60856  0.085918266  0.089210166            1 
  343000    1.1804354   -3.2999214    352.60849  0.085667756  0.089202216            2 
  344000    1.2017116   -3.2892342    352.87184  0.085482518  0.089193923            1 
  345000    1.1837739   -3.3173512    353.46296  0.085377526  0.089180791            4 
  346000    1.1926432   -3.2881024    356.25784  0.085803912  0.089168118            2 
  347000    1.2047098   -3.2784844      357.315  0.085810518  0.089159493            1 
  348000    1.2124955   -3.2601153     359.0606  0.085981944  0.089151805            1 
  349000    1.1754899   -3.2788867    359.06468  0.085736551  0.089145916            2 
  350000    1.2025834    -3.273423     362.1964  0.086237237  0.089140684            1 
  351000    1.1851512   -3.2947651    362.27688  0.086010656  0.089134342            4 
  352000    1.2225763   -3.2971459    362.01262  0.085703746  0.089126891            2 
  353000    1.2221617   -3.2640671    362.56484  0.085591321  0.089115461            1 
  354000    1.2228443   -3.2739479    365.26885  0.085986076  0.089105455            2 
  355000    1.1883747   -3.2889064    364.91839  0.085661595   0.08909513            1 
  356000    1.1939782   -3.3139363    365.13448  0.085471554  0.089082882            1 
  357000    1.1750035   -3.2898579    366.81135  0.085623564  0.089073569            1 
  358000    1.1936943   -3.2942697    367.15786  0.085465052   0.08906245            2 
  359000    1.1859024   -3.3091734     367.8169  0.085379967  0.089049347            2 
  360000    1.1611111   -3.3048998    368.74297  0.085357169  0.089034417            1 
  361000    1.1811563    -3.353183    369.19813  0.085225791  0.089020198            2 
  362000    1.2057163   -3.2754715    373.29358  0.085933144  0.089005854            1 
  363000    1.1682611   -3.2982671    372.47343  0.085508133  0.088991395            2 
  364000    1.2123311   -3.3043759     371.9863  0.085161699   0.08897628            1 
  365000    1.2029215   -3.3280275    373.30844  0.085230238  0.088960069            5 
  366000     1.158647    -3.298575    374.69854  0.085313874  0.088944337            3 
  367000    1.1756925     -3.27636     375.8291  0.085338124  0.088928613            1 
  368000    1.1732127   -3.2985344    376.98439  0.085367842  0.088912237            3 
  369000    1.2019772   -3.3225726    377.37689  0.085225133  0.088896301            1 
  370000    1.1772834   -3.3128839    379.38652  0.085447413  0.088881161            4 
  371000    1.1892503   -3.3139009    380.41054  0.085447112  0.088867188            1 
  372000    1.2042778   -3.2460214    383.54226  0.085918966  0.088854401            3 
  373000    1.1810995   -3.2774885    381.60469  0.085255739  0.088843952            1 
  374000    1.1812791   -3.3012022    384.73903  0.085726166   0.08883125            2 
  375000    1.2004501   -3.2689191    385.43321  0.085651824  0.088818303            2 
  376000    1.1843532   -3.3072737    384.55445  0.085229267  0.088802311            1 
  377000    1.1856286    -3.316831     385.5351   0.08521996  0.088789136            1 
  378000    1.1862895   -3.3201595    387.35332  0.085395353  0.088774062            1 
  379000    1.1893241   -3.2648343    388.64781  0.085454664  0.088758843            3 
  380000     1.182256   -3.3084706    389.92795  0.085510516  0.088742479            2 
  381000    1.2383663   -3.2986702     388.7651  0.085031736  0.088722849            2 
  382000    1.2063247   -3.2833614    392.54367  0.085633437  0.088704352            3 
  383000    1.1901147    -3.292409     392.1286  0.085319539  0.088690021            2 
  384000    1.1892201   -3.2848824    393.46615  0.085387619  0.088674137            2 
  385000    1.1581755   -3.3156048    393.31074  0.085132195   0.08865849            2 
  386000    1.1974231   -3.3008169    395.90196  0.085471063  0.088642551            2 
  387000    1.1994225   -3.3059807    396.12971  0.085299249  0.088628171            2 
  388000    1.1710879   -3.2903888    399.08562  0.085714265  0.088614719            1 
  389000    1.1773489    -3.278461    400.24583  0.085742467  0.088602513            2 
  390000    1.2159307   -3.2895607    401.64355  0.085821272  0.088593716            1 
  391000    1.2031292   -3.3260748    399.32521  0.085107674   0.08858481            2 
  392000    1.1908786   -3.2865219     403.3588  0.085748045   0.08857452            1 
  393000    1.1933486   -3.2771002      404.543  0.085780959  0.088566206            1 
  394000    1.1967831   -3.3102374    404.53601  0.085561763  0.088555516            1 
  395000    1.1831124   -3.2973565    406.34842  0.085727515  0.088546322            1 
  396000    1.1874455   -3.3365243    406.33305  0.085507797  0.088539378            1 
  397000    1.1933232   -3.2867137    410.35642  0.086136949  0.088532589            4 
  398000    1.1796794   -3.2579437    411.18863  0.086094772  0.088525762            1 
  399000    1.2001605     -3.29209    410.79526  0.085796838  0.088519739            1 
  400000    1.1680648   -3.2967066    412.42469   0.08592181  0.088513916            3 
  401000    1.1861034   -3.3014984    413.72125  0.085976984  0.088507646            1 
  402000    1.1783096   -3.3087556    413.65456  0.085749287  0.088499392            2 
  403000    1.1888716   -3.2780402    414.11017  0.085630721  0.088490379            2 
  404000    1.1879475   -3.2879087    415.24725  0.085653311   0.08848295            2 
  405000    1.1914096   -3.2578022    420.41761  0.086505681   0.08847637            2 
  406000    1.1913524    -3.298486    418.75244  0.085950829  0.088469175            5 
  407000    1.2051774   -3.3146502     418.1457  0.085615418  0.088461747            1 
  408000    1.1820757    -3.292246    420.90877  0.085969928  0.088454887            8 
  409000    1.1867321   -3.2819223    420.66287  0.085709631  0.088449494            1 
  410000    1.2020928   -3.2893028    421.12396  0.085594301  0.088443927            2 
  411000    1.1734848   -3.2576488     425.7158  0.086317072  0.088441284            1 
  412000     1.208523   -3.2676908    425.91813  0.086148489  0.088438114            2 
  413000    1.1836511   -3.2855555    427.74171   0.08630785  0.088437557            1 
  414000    1.1972832   -3.2879666    429.03253  0.086359204  0.088436363            1 
  415000    1.1741294   -3.3012145    430.21967  0.086389491   0.08843467            4 
  416000    1.2051714   -3.2913945     431.4227  0.086422816  0.088436059            2 
  417000    1.1748508   -3.2875226    429.86044  0.085903366  0.088433875            2 
  418000    1.1526893   -3.2669975    432.18094  0.086160474  0.088429939            1 
  419000    1.1829129    -3.286183    433.54142  0.086225421  0.088428029            2 
  420000     1.172417    -3.291008    433.96101  0.086103375  0.088426163            2 
  421000    1.1753915   -3.2921064    435.16298  0.086136774  0.088421031            2 
  422000    1.2046614   -3.3348729    436.32654  0.086162429  0.088418063            2 
  423000    1.1736191   -3.3083595    436.48138  0.085989239  0.088414425            2 
  424000    1.1794774   -3.3050493    438.03798   0.08609237  0.088409848            3 
  425000    1.1672344   -3.2950971    440.13955  0.086301873   0.08840708            2 
  426000    1.1893803   -3.3103161    440.46059  0.086162088  0.088405202            2 
  427000    1.1851964   -3.3019794    441.94232  0.086249477  0.088403752            2 
  428000    1.1534223   -3.2946878     443.7136  0.086392834  0.088403927            1 
  429000    1.1785063   -3.3345378    444.91783  0.086425375   0.08840446            1 
  430000    1.1730083   -3.3143861    445.45013  0.086327544  0.088406005            1 
  431000    1.1929008   -3.3032229    447.56993  0.086537109  0.088409998            3 
  432000    1.1851709   -3.3226756    445.64596  0.085965656  0.088410885            2 
  433000    1.2023249   -3.2777815    447.31642   0.08608861    0.0884106            1 
  434000    1.1566117    -3.294779    449.37326  0.086285187  0.088409546            3 
  435000    1.2077592    -3.288738    449.64984  0.086139817  0.088407181            1 
  436000    1.2015813   -3.2983428    449.64037  0.085940437   0.08840517            1 
  437000    1.1664924   -3.3052507    453.21857  0.086426119   0.08840523            2 
  438000    1.1708634   -3.2957029    455.35672    0.0866356  0.088405085            5 
  439000    1.1705826   -3.3083212    453.76519  0.086136141  0.088403474            2 
  440000    1.1402696   -3.3006904    456.47903  0.086454362  0.088402536            2 
  441000    1.1917825   -3.3030986    457.57692  0.086465782  0.088401934            1 
  442000    1.1527238   -3.3026362    456.62195  0.086090111  0.088402691            3 
  443000    1.2067989   -3.3417567    457.01389  0.085969506  0.088400474            3 
  444000     1.193542   -3.2910601    458.95965  0.086141076  0.088397775            3 
  445000    1.1753925    -3.299248    459.86188  0.086116458  0.088394829            1 
  446000    1.1656212   -3.2843408    462.60553  0.086436011  0.088392623            2 
  447000    1.1537104   -3.2633681      464.138  0.086528336  0.088389718            2 
  448000    1.1697336   -3.2976751    463.72732  0.086258801  0.088386053            2 
  449000    1.1748272   -3.2893963    465.41601  0.086380107  0.088383644            2 
  450000     1.176628   -3.3167312    466.11139  0.086316924  0.088383703            1 
  451000    1.1932173   -3.2592094    467.51311  0.086384535  0.088383418            1 
  452000    1.1910381   -3.3104005    469.21513  0.086507213  0.088385095            1 
  453000    1.1664064   -3.3204338    469.73399  0.086411699  0.088384906            2 
  454000    1.1646845    -3.340777     469.0486  0.086095557   0.08838326            3 
  455000    1.1819303   -3.2854304    469.62102  0.086011175  0.088380038            2 
  456000     1.175251   -3.2984024    470.93751  0.086063142  0.088376732            2 
  457000     1.159582   -3.3121075    472.21076  0.086106996  0.088373362            2 
  458000    1.1726938   -3.3045289    473.91183  0.086228499  0.088370556            3 
  459000    1.2151525   -3.3025532    471.80509   0.08565815  0.088365488            2 
  460000    1.1713273   -3.3489832    472.45487   0.08558965  0.088359675            6 
  461000     1.175178   -3.2587304    475.84168  0.086016211  0.088353428            1 
  462000    1.1612607   -3.2970594    477.12098  0.086060782  0.088346812            2 
  463000    1.1813805   -3.3408158    476.86767  0.085829314  0.088338904            1 
  464000    1.1467969   -3.3292253    478.59627  0.085954789  0.088333094            2 
  465000    1.1715642   -3.3072485    480.04641  0.086029822  0.088327453            2 
  466000    1.2134841   -3.3066253    479.92319  0.085823175  0.088320017            1 
  467000    1.1725168   -3.2908663    479.79938  0.085617305  0.088312716            1 
  468000     1.181234   -3.2996538    483.71313  0.086131255  0.088305095            2 
  469000    1.1459634   -3.3245044    481.83933  0.085614664  0.088297813            2 
  470000    1.1763892   -3.3026505       484.96  0.085985816  0.088289552            1 
  471000    1.1875519   -3.3019328    483.54923   0.08555365  0.088280263            2 
  472000    1.1568999   -3.2911149    486.96224  0.085974971  0.088271374            2 
  473000    1.1771585   -3.3079875    486.88024  0.085778759  0.088260947            3 
  474000    1.1737081   -3.2680555    489.30901  0.086024792  0.088252748            2 
  475000    1.1737989   -3.3083152    486.93097  0.085426485   0.08824239            2 
  476000    1.1903364   -3.3090929    488.76808  0.085568641  0.088232847            2 
  477000    1.1559067   -3.3347312    490.16013  0.085632448  0.088220674            3 
  478000    1.1720223   -3.3113019    490.82824  0.085569777  0.088209551            2 
  479000    1.2092234   -3.3256624    491.97558  0.085590741  0.088198194            2 
  480000     1.189725   -3.3504509    491.58913  0.085345336  0.088187444            2 
  481000    1.1729528   -3.3313199    494.82618  0.085728721  0.088176206            2 
  482000    1.1822526    -3.334464    494.52651   0.08549905  0.088164163            2 
  483000    1.1848788   -3.3029568    495.41383  0.085475126   0.08815204            2 
  484000    1.1478164   -3.3248155    494.85874  0.085202952  0.088139609            7 
  485000    1.1955044   -3.3485941    497.07819  0.085408624  0.088127843            3 
  486000     1.171314   -3.2955077    498.90864  0.085546749   0.08811389            1 
  487000    1.1642773   -3.3205314    500.54282  0.085650721  0.088101601            2 
  488000    1.1512748   -3.2822382    501.17949  0.085583929   0.08809139            2 
  489000       1.1789   -3.3259375    500.49211   0.08529177  0.088079586            2 
  490000       1.1712   -3.2879777    502.11134  0.085393085  0.088068835            2 
  491000    1.1648304   -3.3144782     503.1629  0.085397641   0.08805672            2 
  492000    1.1685917   -3.3092406    504.83435  0.085507173  0.088042508            2 
  493000    1.1728221   -3.3468576    504.27587  0.085239329   0.08802937            1 
  494000    1.1405595   -3.3184323    504.34941  0.085079185   0.08801328            1 
  495000    1.1950663   -3.2984079    505.56283  0.085111588  0.087996925            3 
  496000    1.1787875   -3.2959563    504.73782   0.08480138  0.087979039            2 
  497000     1.197913   -3.3345305    506.29673  0.084892141  0.087960871            1 
  498000    1.1602373   -3.3486374     506.8339  0.084811563  0.087945719            3 
  499000    1.1759062   -3.3050667    506.84215  0.084642977  0.087929619            1 
  500000     1.172045   -3.3210815    511.79875  0.085299792  0.087914569            2 
  501000    1.1846005   -3.3206898     510.8732  0.084975583  0.087899438            2 
  502000    1.1909323   -3.3282171    512.70601  0.085110559  0.087887134            1 
  503000    1.1633432    -3.331555    514.54146  0.085245438   0.08787475            5 
  504000    1.2033486   -3.2910132    516.92295  0.085470065  0.087863791            1 
  505000     1.187377   -3.3182678    514.34812  0.084875928  0.087851439            2 
  506000    1.1914146   -3.3110526     518.0923  0.085324819  0.087838668            2 
  507000    1.1499689   -3.3415944    517.31092  0.085028093  0.087824986            1 
  508000    1.1964339   -3.2996946    521.04878  0.085473882  0.087811964            2 
  509000    1.1598087    -3.297947     520.6178  0.085235396  0.087800326            2 
  510000    1.1756217   -3.3307384    519.35619  0.084862123  0.087788302            4 
  511000    1.1937337    -3.313033    521.97776  0.085123575  0.087774698            3 
  512000     1.169167    -3.341473    523.50504  0.085205898  0.087761271            2 
  513000    1.1731883   -3.3353351    523.86181  0.085097759  0.087749336            3 
  514000    1.1485595   -3.3141579    524.60862  0.085053278  0.087736035            1 
  515000    1.1538515   -3.3401953    525.32071   0.08500335   0.08772336            1 
  516000    1.2010145   -3.2875013    528.01133  0.085273147  0.087712836            1 
  517000    1.2017538   -3.3434942    529.23058  0.085304736   0.08770239            3 
  518000     1.178714   -3.3265392    529.92923  0.085252449  0.087691607            2 
  519000    1.1827988     -3.34099    531.15046  0.085284274  0.087681127            1 
  520000    1.1576738   -3.3364029    529.97624   0.08493209  0.087670389            2 
  521000    1.1865515   -3.3480451    531.67597  0.085040941  0.087659747            2 
  522000    1.1909894   -3.2954421    534.46978  0.085324038  0.087647213            2 
  523000    1.1508014   -3.2795459    532.79789  0.084894501    0.0876333            2 
  524000     1.161391   -3.3216492    535.10851  0.085099953   0.08762098            3 
  525000    1.1520952   -3.2866481    538.05968  0.085406298  0.087608429            9 
  526000    1.1749436   -3.3219779    538.18196  0.085263302  0.087597939            3 
  527000    1.1628018   -3.3518172       537.37  0.084973118  0.087587695            2 
  528000    1.1676758   -3.3203916    540.20868  0.085260208  0.087576674            1 
  529000    1.1842545   -3.3210315    542.49091  0.085458556  0.087567301            2 
  530000    1.1525258   -3.3171661    540.99536  0.085062164  0.087555906            1 
  531000    1.1755003   -3.3257641    542.03499  0.085065126  0.087543611            2 
  532000     1.162627    -3.338682    543.91438   0.08519962  0.087533473            3 
  533000    1.1881562   -3.3391604    545.36837    0.0852671  0.087523178            2 
  534000    1.1819837    -3.341936    544.84744   0.08502613  0.087509461            1 
  535000    1.1850813   -3.3240886    546.57148  0.085135744  0.087497418            2 
  536000    1.1796019   -3.3161688    547.85756   0.08517686   0.08748635            2 
  537000    1.1745517   -3.3499509    547.82438  0.085013094  0.087474188            2 
  538000    1.1551529   -3.3513426     546.4886  0.084648173  0.087461461            3 
  539000    1.1711677   -3.2826022    548.66096  0.084826987  0.087446644            2 
  540000    1.1631366    -3.343274    548.74295  0.084682554   0.08743288            1 
  541000    1.1721703   -3.3181745    553.23427  0.085217848  0.087418914            8 
  542000    1.1647748   -3.3292474    553.47068  0.085096968  0.087405202            2 
  543000     1.122524   -3.3403034    551.26229  0.084601333  0.087391393            2 
  544000    1.1696492   -3.3097879    553.94965  0.084857483   0.08737925            2 
  545000    1.1708372   -3.3454239    554.60108  0.084801388  0.087365227            1 
  546000    1.1464557   -3.3421988    556.55989  0.084945039    0.0873503            1 
  547000    1.1698087   -3.3195567    556.48458  0.084778272  0.087336174            2 
  548000    1.1261367   -3.3356657    555.77662   0.08451591  0.087321111            1 
  549000    1.1628767   -3.3455071    558.67079  0.084801273   0.08730708            2 
  550000    1.1650807   -3.3149172    559.25284  0.084735278  0.087291744            5 
  551000    1.1828517   -3.3549645    560.25233  0.084732658  0.087276788            1 
  552000    1.1684321   -3.3514946    559.27591   0.08443175  0.087261123            1 
  553000     1.123865   -3.2849894    563.83205  0.084965649  0.087247324            2 
  554000      1.16453   -3.3336968    559.17152   0.08411124   0.08723196            2 
  555000    1.1792996   -3.3157798    564.18731   0.08471281  0.087218077            1 
  556000    1.1574652   -3.3256074    566.37822  0.084888821  0.087203106            1 
  557000    1.1608662   -3.3352772    565.58239  0.084617353  0.087187176            1 
  558000    1.1596941   -3.3231196    564.95318  0.084371742  0.087172888            2 
  559000    1.1892202    -3.312521    569.37767  0.084880393  0.087159053            2 
  560000    1.1762553    -3.327459    569.65535  0.084770142  0.087144645            1 
  561000    1.1273454   -3.3485727    572.00363  0.084967859  0.087130402            1 
  562000    1.1678836   -3.3375757     570.7585  0.084632043   0.08711709            2 
  563000    1.1538807   -3.3524564    572.84179  0.084790082  0.087102832            1 
  564000    1.1551669   -3.3303778    573.41363  0.084724236  0.087089781            2 
  565000     1.158723   -3.3234446    571.71198  0.084323301  0.087076675            1 
  566000    1.1553337    -3.323838     575.1341  0.084678165   0.08706176            1 
  567000    1.1534456   -3.3217651    575.30508  0.084553951  0.087048066            1 
  568000    1.1371241    -3.344859    573.44458  0.084132127  0.087032793            2 
  569000    1.1580974   -3.3544482    576.49688  0.084431294  0.087018264            1 
  570000    1.1826391   -3.3285952    577.62662  0.084448337  0.087002861            1 
  571000    1.1684183   -3.3333287    578.58862  0.084440838  0.086987611            2 
  572000    1.1856067   -3.3261431    577.99383  0.084206561  0.086970767            2 
  573000    1.1881889   -3.3145149     581.7665  0.084608275  0.086955125            3 
  574000    1.1471167   -3.3524122    580.47008  0.084272659  0.086940303            2 
  575000     1.145185   -3.3411133     581.5158  0.084277652  0.086923798            1 
  576000    1.1305514   -3.3235514    583.53912  0.084424063  0.086908446            1 
  577000    1.1687155   -3.3488818    585.34047  0.084537907  0.086893763            5 
  578000    1.1767404   -3.3282917    585.85669  0.084466074  0.086877055            3 
  579000    1.1638028   -3.3282369    586.48195  0.084410182  0.086861603            3 
  580000    1.1386211   -3.3240637    589.19493  0.084654443  0.086847517            2 
  581000    1.1576537   -3.3508916    589.62058  0.084569791   0.08683323            2 
  582000    1.1574285     -3.30199    589.82318  0.084453491  0.086819243            1 
  583000    1.1521432   -3.3231282    590.71066  0.084435486  0.086804942            3 
  584000    1.1631675   -3.3259591    592.55236  0.084553704  0.086791052            1 
  585000    1.1636835   -3.3390056    592.13039  0.084349058  0.086777321            2 
  586000    1.1790476   -3.3048888     591.3266  0.084090814  0.086762026            3 
  587000    1.1539375    -3.308703    593.94464  0.084319227  0.086747431            2 
  588000      1.13462   -3.3484682    593.42177  0.084101725  0.086733842            2 
  589000    1.1513971   -3.3284445    595.43117  0.084243232   0.08671978            3 
  590000    1.1542765   -3.3204685    597.27843   0.08436136  0.086705373            1 
  591000     1.171115    -3.349278    597.30557  0.084222444   0.08669236            1 
  592000    1.1746074     -3.30627    602.93635  0.084872796  0.086679696            1 
  593000    1.1652575   -3.3661711    598.78422   0.08414618  0.086666484            2 
  594000      1.16171   -3.3633295    599.35446   0.08408452  0.086652583            2 
  595000    1.1240145   -3.3472206    603.69701  0.084551401  0.086639018            1 
  596000    1.1473721    -3.322536    604.31515  0.084495967  0.086626444            1 
  597000    1.1631876   -3.3371813    603.30623  0.084213599    0.0866126            2 
  598000     1.174389   -3.3568562    606.45638  0.084511759   0.08659931            3 
  599000    1.1627545   -3.3632582    605.45242  0.084230999  0.086585685            3 
  600000    1.1478246   -3.3683056    604.29944  0.083930478  0.086571624            1 
  601000    1.1626531   -3.3521891    606.65206  0.084117035  0.086557437            4 
  602000    1.1472994   -3.3667799    606.82195  0.084000824  0.086542899            1 
  603000    1.1654425   -3.3528875    610.39188  0.084354876  0.086528395            1 
  604000    1.1430766   -3.3510899    610.71818  0.084260235  0.086516744            2 
  605000    1.1610704   -3.3324881    612.71992  0.084396683  0.086503623            2 
  606000    1.1655927    -3.321115    613.84785   0.08441252  0.086491073            1 
  607000    1.1709146     -3.35382    614.79658  0.084403705  0.086478311            2 
  608000    1.1536023   -3.3202575    615.85314  0.084409696  0.086467079            2 
  609000    1.1613006   -3.3124985    620.12598  0.084855771  0.086455869            4 
  610000    1.1325054   -3.3459359    617.81507  0.084400966  0.086442766            2 
  611000    1.1537796   -3.3472389    615.49013  0.083945735  0.086430202            3 
  612000    1.1629315   -3.3442569     616.5822  0.083957272  0.086415598            2 
  613000    1.1570028   -3.3044207    621.65405  0.084509795  0.086401398            2 
  614000    1.1561905   -3.3545107    617.47643  0.083805162  0.086387711            2 
  615000    1.1827843   -3.3510138    620.95368  0.084140065  0.086373722            2 
  616000    1.1580482   -3.3679972     624.6131  0.084498526  0.086360091            2 
  617000    1.1346428   -3.3469475    623.94948  0.084271945  0.086346934            2 
  618000    1.1463339   -3.3734205    623.93433  0.084133539  0.086332671            2 
  619000    1.1244281   -3.3455151    624.42833  0.084064126  0.086318134            2 
  620000    1.1628234   -3.3182137     624.7617  0.083973347  0.086302876            1 
  621000    1.1571353   -3.3242387    626.53312  0.084075835  0.086288725            4 
  622000    1.1560747   -3.3368628    626.04424  0.083875166  0.086274508            1 
  623000    1.1655035   -3.3432081     626.4526  0.083795157  0.086258796            5 
  624000    1.1362938   -3.3306971    626.83545  0.083711999  0.086242902            3 
  625000    1.1800715   -3.3549068    628.56391  0.083808521  0.086226145            3 
  626000    1.1352928   -3.3467734    629.55285  0.083806289  0.086210319            1 
  627000    1.1546394   -3.3389609    632.85259   0.08411119  0.086194391            2 
  628000    1.1619113   -3.3446783    631.99942  0.083864042  0.086177493            1 
  629000    1.1315025   -3.3354629    633.43752   0.08392124  0.086161036            2 
  630000    1.1370557   -3.3458028    633.30507  0.083770512  0.086144129            2 
  631000    1.1462172   -3.3424943    634.95567  0.083855741  0.086128446            2 
  632000    1.1596742   -3.3739002    633.03502  0.083469808  0.086112233            2 
  633000    1.1586964   -3.3532465    632.71478  0.083295785  0.086094875            1 
  634000    1.1440978   -3.3558214    637.71801  0.083822031  0.086079022            2 
  635000    1.1405539   -3.3616086    637.00473  0.083596421  0.086061807            1 
  636000    1.1589396   -3.3612391    637.62915  0.083546797  0.086044958            1 
  637000    1.1530248   -3.3345515    638.73673  0.083560535  0.086027939            2 
  638000    1.1608636   -3.3431823    638.56009   0.08340649  0.086011513            2 
  639000    1.1513758   -3.3680216    640.59693  0.083541592  0.085994182            1 
  640000    1.1527024   -3.3678656    643.01959  0.083726509  0.085978923            2 
  641000    1.1353427   -3.3234113    642.34321  0.083507957  0.085963161            2 
  642000    1.1759123   -3.3477342    645.25151  0.083755388  0.085947961            2 
  643000    1.1318403   -3.3925149    641.91747  0.083193036  0.085932808            3 
  644000    1.1267834   -3.3648288    643.78099  0.083304993  0.085916641            2 
  645000    1.1399171   -3.3503467    648.07802  0.083731011  0.085900524            4 
  646000    1.1493289   -3.3338447    643.74887  0.083042939  0.085883574            2 
  647000    1.1584625   -3.3473773    647.50255  0.083398061     0.085866            2 
  648000    1.1420511   -3.3650793    646.23568   0.08310644  0.085847278            1 
  649000    1.1718477   -3.3283279    650.32129  0.083502991  0.085830141            2 
  650000    1.1742018   -3.3883565    650.90659  0.083449563  0.085814724            2 
  651000    1.1490691   -3.3385506    651.46815   0.08339326  0.085797856            3 
  652000    1.1442274   -3.3735133    652.12407  0.083349191  0.085781378            1 
  653000    1.1555732   -3.3587464    654.06541  0.083469297  0.085765867            2 
  654000     1.138798   -3.3590158    653.52606  0.083272943  0.085750194            2 
  655000    1.1250739   -3.3434326    655.57737   0.08340679   0.08573475            2 
  656000     1.142581   -3.3511917    656.27725  0.083368553   0.08571852            2 
  657000    1.1459446   -3.3856835    655.45563  0.083137447  0.085701864            1 
  658000    1.1575284   -3.3584133    658.61682  0.083411451  0.085684754            3 
  659000    1.1189009   -3.3185634    662.46553  0.083771565  0.085669355            6 
  660000    1.1494149   -3.3391066    657.63039   0.08303414  0.085654359            3 
  661000    1.1190416   -3.3662983    659.46558  0.083139886  0.085638258            1 
  662000    1.1476822   -3.3433677    664.24534   0.08361598  0.085622206            1 
  663000    1.1555863   -3.3861649    661.01934  0.083084381  0.085606664            1 
  664000    1.1311372    -3.379552    662.47565  0.083142025  0.085590638            2 
  665000    1.1259379    -3.353173    666.22831  0.083487256  0.085574523            2 
  666000    1.1569049   -3.3826761    665.49658  0.083270342  0.085558402            1 
  667000    1.1342118   -3.3692797    668.94166   0.08357592  0.085542798            2 
  668000    1.1400911   -3.3272282    668.55451  0.083402509  0.085528178            2 
  669000    1.1468644   -3.3698531     669.6192  0.083410463  0.085513384            3 
  670000    1.1248083   -3.3473573    671.51157  0.083521339  0.085497092            1 
  671000    1.1530113    -3.366831    672.03078  0.083461348  0.085480803            2 
  672000    1.1659798   -3.3748144    671.65879  0.083291021  0.085464885            3 
  673000    1.1209335   -3.3650479    672.69066   0.08329503  0.085449229            1 
  674000    1.1214772   -3.3205619    673.91116  0.083322349  0.085434303            2 
  675000    1.1587163   -3.3429394    678.10602  0.083716793  0.085419471            1 
  676000    1.1344568   -3.3447606    677.12938  0.083472557  0.085404812            1 
  677000    1.1468802   -3.3132184    678.38773  0.083504151  0.085390081            2 
  678000    1.1375671   -3.3871588    678.84264  0.083436903  0.085375063            1 
  679000    1.1678449   -3.3595215    678.95864  0.083328257  0.085361283            1 
  680000    1.1528314   -3.3559621    679.57406  0.083281134  0.085346682            4 
  681000    1.1278058   -3.3684147    680.92837  0.083324568  0.085331641            1 
  682000     1.112523   -3.3531702     683.8794  0.083562976   0.08531868            4 
  683000    1.1430929   -3.3243883    685.93012  0.083690839  0.085304549            1 
  684000    1.1530081   -3.3362945    683.36897  0.083256453  0.085290888            1 
  685000    1.1516534   -3.3463227    685.33688  0.083374316  0.085277217            5 
  686000    1.1588365   -3.3504069    685.48924  0.083271288  0.085264658            3 
  687000    1.1295675   -3.3721059    689.21172  0.083601615  0.085251023            1 
  688000    1.1260075   -3.3314022    689.45353   0.08350939   0.08523796            3 
  689000      1.16487   -3.3127139    692.04201  0.083701259  0.085226097            6 
  690000    1.1119753   -3.3778493     687.4406  0.083024227   0.08521316            1 
  691000    1.1245315   -3.3655522    690.25818  0.083243871  0.085201114            3 
  692000    1.1596848   -3.3626954    695.07977  0.083704211  0.085188413            2 
  693000    1.1100511   -3.3586083    693.59702  0.083405125  0.085176924            3 
  694000    1.1661027    -3.384239    695.24252  0.083482531  0.085164923            1 
  695000    1.1487372   -3.3665005    696.26904  0.083485496  0.085152359            3 
  696000    1.1445046   -3.3356873    700.96049  0.083927262  0.085141205            2 
  697000    1.1302304   -3.3629507    699.81614  0.083670031  0.085129807            3 
  698000    1.1353956   -3.3585881    699.08441  0.083462799  0.085119742            3 
  699000    1.1515653   -3.3558877    702.72444  0.083777353  0.085108817            3 
  700000     1.132049   -3.3493059    701.37349  0.083496844  0.085098523            1 
  701000    1.1667098   -3.3937184    701.88616  0.083438678  0.085088017            3 
  702000    1.1496177   -3.3256985     702.6042  0.083405057   0.08507788            1 
  703000    1.1375516   -3.3501814    705.90021  0.083677123  0.085068416            5 
  704000    1.1286683   -3.3767584    704.06028  0.083340469  0.085058825            6 
  705000    1.1481215   -3.3729669    707.23662  0.083597709  0.085049751            2 
  706000    1.1408985   -3.3696853    706.78636  0.083426152  0.085039928            2 
  707000    1.1596009   -3.3376964    710.03479  0.083691041  0.085029305            1 
  708000    1.1389749   -3.3923121    705.84785  0.083080019  0.085018959            1 
  709000    1.1329872   -3.3228952    711.02306  0.083571117   0.08500826            1 
  710000    1.1566863   -3.3489314    713.66214  0.083763162  0.084997283            2 
  711000    1.1436578   -3.3535484    712.78696  0.083542775    0.0849853            2 
  712000    1.1697176   -3.3980789    708.89984  0.082970487  0.084973078            1 
  713000    1.1619337   -3.3579545    714.00495  0.083450789  0.084960152            1 
  714000    1.1483035   -3.3609459     714.0845  0.083343196  0.084946457            3 
  715000    1.1027431   -3.3724052    712.72656  0.083068364  0.084933131            3 
  716000    1.1384084   -3.3694074    713.59302  0.083053191  0.084919814            3 
  717000    1.1491112   -3.3872921    713.72486   0.08295268  0.084905793            2 
  718000    1.1149908   -3.3624238    715.38241  0.083029528  0.084892054            1 
  719000    1.1185102   -3.3560763    717.33156  0.083139958   0.08487815            1 
  720000     1.126107   -3.3547263    718.14084  0.083118153   0.08486455            1 
  721000    1.1172528   -3.3807946    714.98781  0.082638443  0.084851195            1 
  722000    1.1425889   -3.3567017    715.13966  0.082541512  0.084837244            2 
  723000    1.1299127   -3.3643068    715.96239  0.082522174  0.084823035            3 
  724000    1.1395401   -3.3551582    721.32705  0.083025673  0.084809595            2 
  725000    1.1297801    -3.346624    724.33435  0.083256822   0.08479678            2 
  726000    1.1374607   -3.3656676    720.88578  0.082746302  0.084782309            2 
  727000    1.1218868   -3.3372935    724.20821   0.08301332  0.084767154            1 
  728000    1.1249899    -3.356298    723.34383  0.082800347  0.084753026            1 
  729000    1.1161117   -3.3779365    724.87689  0.082862013  0.084738787            2 
  730000    1.1268944   -3.3643005    726.39736  0.082922074  0.084723907            4 
  731000    1.1407765   -3.3588044    729.09989  0.083116722  0.084710092            5 
  732000    1.1558696   -3.3522109    729.03982  0.082996337  0.084696922            2 
  733000    1.1458252   -3.3307508    728.64618  0.082838356  0.084683291            1 
  734000    1.1196473   -3.3581403    727.40773  0.082584892  0.084669762            2 
  735000     1.149016   -3.3435413     729.3282  0.082690272    0.0846554            1 
  736000    1.1381004   -3.3728506    729.96459  0.082649976  0.084640854            2 
  737000    1.1215456   -3.3813934    729.94771  0.082535923  0.084626075            2 
  738000    1.1619119   -3.3637487    732.90482  0.082757997  0.084611524            1 
  739000    1.1445911    -3.414048    728.95557  0.082200673   0.08459629            4 
  740000    1.1358406    -3.372082    732.44783  0.082482864  0.084581458            2 
  741000    1.1305687   -3.4016278    732.47241  0.082374315  0.084565389            2 
  742000    1.1167025   -3.3689614    736.80524  0.082749915   0.08455028            4 
  743000    1.1247773   -3.3456924    736.60687  0.082616294  0.084534843            1 
  744000    1.1216953   -3.3497504    739.46681  0.082825583  0.084520181            1 
  745000    1.1416075    -3.410802    737.01606  0.082440275  0.084504761            3 
  746000    1.1404413   -3.3703168    738.40701  0.082485144  0.084488149            2 
  747000    1.1382427   -3.3874757     740.1118  0.082564904    0.0844729            1 
  748000    1.1195897   -3.3883062    738.40977  0.082264903  0.084459064            2 
  749000    1.1333845   -3.3910878    740.02064  0.082334295  0.084444524            2 
  750000    1.1194385   -3.3623865    745.97394  0.082885994  0.084430157            3 
  751000    1.1262955     -3.37297    745.87316  0.082764443  0.084415415            2 
  752000    1.1293545   -3.4016772    741.59076  0.082179827  0.084401027            3 
  753000    1.1276288   -3.3989584    747.34721  0.082707748  0.084385869            3 
  754000    1.1217858   -3.3717497      747.447  0.082609085  0.084369773            1 
  755000    1.1269066   -3.3997719    746.77289  0.082425264   0.08435519            2 
  756000    1.1490964   -3.4236249    747.29716  0.082374026  0.084340155            1 
  757000     1.121199   -3.3900334    748.36959  0.082383266  0.084325365            4 
  758000    1.1299839   -3.3705574       749.51  0.082399956  0.084311649            3 
  759000    1.1092915   -3.3425734    752.60588    0.0826313  0.084297525            3 
  760000    1.1154804   -3.3771643    753.93254  0.082668041  0.084283781            3 
  761000    1.1265448   -3.4022502    754.32825  0.082602743  0.084271322            1 
  762000    1.1267847   -3.3650769    753.66979   0.08242233  0.084258017            2 
  763000    1.1457881   -3.4067392    754.40537  0.082394645   0.08424469            2 
  764000     1.140898   -3.3590093    756.94874  0.082564217  0.084230808            2 
  765000    1.1169221   -3.3814601    757.40003   0.08250545  0.084218677            4 
  766000    1.1387517   -3.3925237     760.0649  0.082687652  0.084205381            1 
  767000    1.1283172   -3.3969892    758.64552  0.082425633  0.084192321            6 
  768000     1.143208    -3.348126    760.16599  0.082483289  0.084178538            2 
  769000    1.1213113   -3.3751551    760.86817  0.082452121  0.084164754            4 
  770000    1.1159564   -3.3317103    763.19062  0.082596387  0.084150831            1 
  771000    1.1289748   -3.4057968    763.25997  0.082496754  0.084137426            2 
  772000    1.1323285   -3.3765285    761.79071  0.082231294  0.084123254            2 
  773000    1.1184377   -3.3679031    764.54316  0.082421643  0.084109425            2 
  774000    1.1372791   -3.4081101    764.13326  0.082271022  0.084095067            4 
  775000    1.1412021   -3.3755012    763.40455   0.08208651  0.084079772            3 
  776000    1.1456041   -3.3917346    763.54517   0.08199583  0.084064838            4 
  777000    1.1308278   -3.3898293    765.73256  0.082124899  0.084050696            2 
  778000    1.1185138    -3.392267    768.27924  0.082292121  0.084036994            1 
  779000    1.1352009   -3.3820679    769.80071  0.082349241  0.084023222            8 
  780000    1.1364512   -3.3639542    771.73824  0.082450666  0.084009598            4 
  781000    1.1354931   -3.3887711     770.0979   0.08217007   0.08399508            3 
  782000    1.1254308   -3.4064565    770.54653  0.082112801  0.083981217            2 
  783000    1.1143066   -3.3984748    774.52165  0.082430997  0.083967709            1 
  784000    1.1553301   -3.3852101    773.44805   0.08221174  0.083952854            2 
  785000         1.11   -3.3757655     773.7028  0.082134056  0.083939676            3 
  786000     1.130991   -3.3649543     773.5199  0.082010168  0.083925543            3 
  787000    1.1221938   -3.3911537    777.41687  0.082318602  0.083910711            2 
  788000    1.1298018   -3.3845241    775.88656  0.082052301  0.083895067            6 
  789000    1.1350433   -3.4033218    772.81912  0.081624326  0.083879137            2 
  790000    1.1176887   -3.3838635     773.4499  0.081587543  0.083863669            2 
  791000    1.1240066   -3.3592106    780.16102  0.082191426   0.08384754            5 
  792000    1.1371306    -3.398318    776.66952  0.081720277  0.083831021            3 
  793000     1.120183   -3.3903601    778.77161  0.081838126   0.08381542            4 
  794000    1.1236287   -3.3706223    780.34939   0.08190065  0.083800177            4 
  795000    1.1241078   -3.4153393    780.23876  0.081786034  0.083784518            2 
  796000    1.1115611   -3.3752778    784.45032  0.082124196  0.083769356            2 
  797000     1.117647   -3.4056614    782.90649  0.081859734  0.083754841            3 
  798000    1.1051073   -3.3594208    783.75333  0.081845586  0.083740758            3 
  799000    1.1210038   -3.3919179    785.77912  0.081954434  0.083726384            1 
  800000    1.1302668   -3.3478318    787.45381  0.082026438  0.083712125            1 
  801000     1.121474   -3.3854394    788.51794  0.082034742  0.083697266            2 
  802000    1.1291608   -3.3533416    788.51056  0.081931687  0.083683983            2 
  803000    1.1091201   -3.4097905    790.87456  0.082074985  0.083670288            1 
  804000    1.1276741   -3.3812575    791.39846  0.082027204  0.083655929            2 
  805000    1.1052277   -3.3923946    792.51491  0.082040881  0.083643017            2 
  806000    1.1332534   -3.3651322    795.13445  0.082209931  0.083629647            1 
  807000    1.1210412    -3.421811    791.69439  0.081752828  0.083616467            2 
  808000    1.1183444   -3.3760026    793.72852   0.08186144  0.083603089            3 
[...]
 4800000   0.48048767   -4.4653649    2195.5809  0.038117724  0.036782145           24 
 4801000   0.48662982    -4.468432    2197.1909  0.038137729  0.036772828           14 
 4802000   0.48469244   -4.4821602    2190.4331  0.038012514  0.036763505           32 
 4803000   0.48219828   -4.4406533    2197.1444  0.038121042  0.036754165           47 
 4804000   0.48672721   -4.4559884    2195.3164  0.038081398  0.036744864           67 
 4805000   0.47789241   -4.4655885    2195.3741  0.038074473  0.036735544           20 
 4806000   0.49020079   -4.4575946    2198.1446  0.038114589  0.036726222           20 
 4807000   0.47799432   -4.4579315    2197.2748  0.038091581  0.036716906           21 
 4808000   0.48388861    -4.482668    2195.7038   0.03805643  0.036707595            8 
 4809000   0.48734987    -4.465787     2198.563  0.038098063  0.036698251           34 
 4810000   0.48010955   -4.4715826    2194.8257  0.038025394   0.03668895           16 
 4811000   0.48733308   -4.4584554    2192.8897  0.037983956  0.036679651           15 
 4812000   0.47021316   -4.4628575    2197.4002  0.038054174  0.036670351           22 
 4813000   0.48924929   -4.4795487    2197.7304  0.038051985  0.036661034           10 
 4814000   0.47803936   -4.4628238    2194.3583  0.037985706  0.036651718           20 
 4815000   0.47839052   -4.4620653    2193.1405  0.037956742  0.036642428           22 
 4816000   0.49184894   -4.4735928    2195.3686  0.037987414  0.036633133           62 
 4817000   0.47907578   -4.4655504    2197.3619  0.038014012  0.036623831           20 
 4818000   0.48535698   -4.4744642    2196.2249  0.037986455  0.036614526           16 
 4819000   0.48695063   -4.4676654    2194.8634  0.037955029  0.036605237           27 
 4820000   0.48376947   -4.4752901    2193.0711  0.037916167  0.036595944           21 
 4821000   0.48828876   -4.4706478    2196.1179  0.037960967  0.036586667           37 
 4822000   0.48165953   -4.4544191     2192.033    0.0378825  0.036577359           23 
 4823000   0.48612723   -4.4602458    2193.2975  0.037896494  0.036568037           54 
 4824000   0.48910589   -4.4674121    2194.1395  0.037903184  0.036558705           28 
 4825000   0.47786158   -4.4757896    2191.6321  0.037852023  0.036549411           48 
 4826000   0.47882663   -4.4651304    2192.3655  0.037856843  0.036540106           29 
 4827000   0.48157676   -4.4459814    2195.8719  0.037909534  0.036530828           32 
 4828000   0.48130588   -4.4831539    2189.6317  0.037793974  0.036521545           21 
 4829000   0.48103602   -4.4836536    2192.7889  0.037840631  0.036512241           35 
 4830000    0.4776126   -4.4712484    2193.0387  0.037837106  0.036502929           33 
 4831000   0.47636839   -4.4720829    2192.9001  0.037826883  0.036493628           38 
 4832000   0.47532749   -4.4674599    2194.2429  0.037842213  0.036484352           26 
 4833000   0.47898751   -4.4738394    2197.8151  0.037895977  0.036475073           40 
 4834000   0.48316643   -4.4685682    2193.0363  0.037805756  0.036465786           21 
 4835000   0.48045862   -4.4677409    2198.0767  0.037884811  0.036456518           14 
 4836000   0.47905449   -4.4862083    2194.5431  0.037816086  0.036447235           57 
 4837000    0.4749414   -4.4757737    2190.6081  0.037740475  0.036437947           27 
 4838000    0.4836426   -4.4744188    2195.4342  0.037815803  0.036428668           24 
 4839000   0.46843685   -4.4866776    2193.6976  0.037778081  0.036419421           49 
 4840000   0.47550094   -4.4890551    2196.5408  0.037819228  0.036410167           37 
 4841000   0.48001985   -4.4857544    2194.5406  0.037776985  0.036400927           36 
 4842000    0.4725775   -4.4634035    2194.1438  0.037762354  0.036391673           40 
 4843000   0.47400979   -4.4744848    2192.0154  0.037717933  0.036382419           12 
 4844000   0.48531315   -4.4850232     2192.799  0.037723628  0.036373158           28 
 4845000   0.47304335   -4.4785345    2197.2879  0.037793049  0.036363911           11 
 4846000   0.48238275   -4.4672293    2192.6177   0.03770494  0.036354647           29 
 4847000   0.48807965   -4.4737801    2198.9776  0.037806506  0.036345403           13 
 4848000   0.46841594   -4.4812312    2196.5109  0.037756306  0.036336169           20 
 4849000   0.47455561   -4.4811602     2192.864  0.037685846  0.036326941           26 
 4850000   0.47061811   -4.4718808    2194.3015  0.037702775  0.036317735           20 
 4851000    0.4766563    -4.461326    2198.8802  0.037773659  0.036308519           50 
 4852000   0.47327892    -4.463347    2196.2353  0.037720448  0.036299301           74 
 4853000   0.47586662   -4.4710853    2195.3252  0.037697047   0.03629005           43 
 4854000   0.47877086   -4.4809946    2194.6561  0.037677792  0.036280796           18 
 4855000   0.47339742   -4.4873437    2198.2797  0.037732229  0.036271555           11 
 4856000    0.4768604    -4.468462    2195.8284  0.037682392  0.036262336           22 
 4857000   0.48654282   -4.4822579    2196.6947  0.037689497   0.03625312           21 
 4858000    0.4679272   -4.4728104    2196.2214  0.037673621  0.036243909           20 
 4859000   0.48156983   -4.4771302    2198.5816  0.037706346  0.036234691           33 
 4860000   0.46136698   -4.4873396    2195.3271  0.037642783  0.036225474            9 
 4861000   0.48174683   -4.4865429    2190.7852  0.037557175  0.036216235           20 
 4862000   0.46092108   -4.4745038    2194.3454  0.037610472  0.036207007           27 
 4863000    0.4839489   -4.4907534    2194.3699  0.037603158  0.036197786           21 
 4864000   0.47164582   -4.4865793    2198.3829  0.037664181  0.036188561           11 
 4865000   0.48361946   -4.4852626    2194.6995  0.037593345  0.036179343           34 
 4866000   0.47175922   -4.4791744    2198.1578  0.037644846  0.036170142           47 
 4867000   0.47454885   -4.4712449    2195.0418  0.037583758   0.03616093           30 
 4868000   0.47757588   -4.4753391    2196.0029   0.03759249  0.036151735           31 
 4869000   0.47375467   -4.4916352    2193.6579  0.037544634  0.036142533           39 
 4870000   0.47334073   -4.4878005     2190.978  0.037491068  0.036133311           33 
 4871000   0.48092933   -4.5034057    2193.0461  0.037518752   0.03612411           19 
 4872000    0.4722289   -4.4974889    2189.3231   0.03744737  0.036114894           17 
 4873000   0.46734565   -4.4812745    2196.0507  0.037554736  0.036105694           46 
 4874000   0.47069823   -4.4960216    2196.4674  0.037554154  0.036096513           25 
 4875000   0.47447002   -4.4821603    2189.6972  0.037430721  0.036087324           43 
 4876000   0.47784672   -4.5014483    2193.4459  0.037487112  0.036078117           41 
 4877000   0.47507917    -4.491936     2192.443  0.037462288  0.036068903           61 
 4878000   0.46200369   -4.4856543    2199.7624  0.037579651  0.036059713           16 
 4879000   0.46430393   -4.4906273     2190.021  0.037405564  0.036050521           24 
 4880000   0.47035909    -4.491268    2196.3105  0.037505303  0.036041309           30 
 4881000   0.47506082   -4.4892711    2189.0672  0.037373954  0.036032069           67 
 4882000   0.47521197   -4.4830957    2195.5038  0.037476168  0.036022855           19 
 4883000   0.46951251   -4.5154483    2195.4027  0.037466767  0.036013666           19 
 4884000    0.4583362   -4.4804571    2194.4201   0.03744233   0.03600449           33 
 4885000   0.46694057   -4.4852187    2193.2089  0.037414003  0.035995307           46 
 4886000   0.47440399   -4.4768197    2195.5957  0.037447055  0.035986118           33 
 4887000   0.46318197   -4.4903866    2192.3358  0.037383803  0.035976955           72 
 4888000   0.46800137   -4.4874811    2195.4587  0.037429397  0.035967769           70 
 4889000    0.4619782   -4.5035272    2189.2537  0.037315976  0.035958577           81 
 4890000   0.47245966   -4.4867944    2190.0605  0.037322095  0.035949388           95 
 4891000   0.46838876   -4.4885594    2193.2545  0.037368883  0.035940218           72 
 4892000   0.47055408   -4.5028654    2192.8858  0.037354963  0.035931024          129 
 4893000   0.46624178   -4.5069763     2189.806  0.037294877  0.035921822           67 
 4894000   0.46936816   -4.5044258    2194.3645  0.037364877  0.035912609           56 
 4895000   0.46585648   -4.5032151    2192.6535  0.037328115  0.035903402           28 
 4896000   0.46255966   -4.5039546    2191.5564  0.037301817  0.035894199           55 
 4897000   0.47260873   -4.4979104    2192.6673  0.037313105  0.035884991           71 
 4898000   0.47352646   -4.5063175    2188.3745   0.03723245  0.035875775          102 
 4899000   0.47132948   -4.5083131    2193.2272  0.037307395  0.035866579           49 
 4900000   0.46446141   -4.5004486    2191.3234  0.037267405  0.035857337           61 
 4901000   0.45578955   -4.5072086    2191.7231  0.037266597  0.035848107           85 
 4902000   0.47334413   -4.5029491    2187.7647  0.037191702  0.035838892           49 
 4903000   0.46085429   -4.5109383     2192.229  0.037259993  0.035829678           45 
 4904000   0.46741678   -4.4978051    2188.5326  0.037189583  0.035820473           73 
 4905000   0.46749354   -4.5092938     2190.143  0.037209362  0.035811258           29 
 4906000   0.46701185   -4.5022151    2189.2608  0.037186792  0.035802057          109 
 4907000   0.46856783   -4.4995721    2195.4325  0.037284025  0.035792879           68 
 4908000   0.47559945   -4.4920674     2193.375  0.037241494   0.03578368           34 
 4909000   0.47371772   -4.4965373    2192.6187  0.037221069  0.035774485           41 
 4910000   0.46385816   -4.4975321    2191.6885    0.0371977  0.035765325           46 
 4911000   0.46975854   -4.5012877    2190.6048  0.037171737  0.035756163           45 
 4912000   0.46517072   -4.5126102    2192.0683  0.037188998  0.035746978           34 
 4913000    0.4715294   -4.5033875    2190.3191  0.037151759  0.035737765           57 
 4914000   0.46535835    -4.491658    2192.8114  0.037186463  0.035728561           33 
 4915000   0.46427444   -4.5099987    2189.0937  0.037115865  0.035719367           53 
 4916000   0.46272758   -4.5081746    2189.6474  0.037117701   0.03571016           35 
 4917000   0.46458705   -4.5097538    2191.1701  0.037135959  0.035700968           36 
 4918000   0.46196128   -4.5187694    2190.5118  0.037117252   0.03569177           50 
 4919000   0.46530618   -4.5152031    2192.4533  0.037142598  0.035682593           47 
 4920000   0.45378048   -4.4848892    2190.4941  0.037101865  0.035673417           26 
 4921000   0.46860135   -4.5091607    2191.5475  0.037112163  0.035664279           66 
 4922000   0.45632604   -4.4978658    2194.6229  0.037156693  0.035655147           43 
 4923000   0.46775086    -4.497209    2190.9795  0.037087472  0.035646021           19 
 4924000   0.46994981   -4.4885007    2191.8854  0.037095271  0.035636888           63 
 4925000    0.4736976   -4.5035681     2189.148  0.037041421  0.035627772           74 
 4926000   0.45933106   -4.4940484    2192.8675  0.037096825  0.035618604           72 
 4927000   0.45847254    -4.486993     2192.443  0.037082115  0.035609464           85 
 4928000   0.46291359   -4.5072221    2188.9888   0.03701618  0.035600328           56 
 4929000    0.4545633   -4.5049115    2190.7571  0.037038566  0.035591175          122 
 4930000   0.46072015   -4.5173934    2188.8615  0.036999011  0.035582045           71 
 4931000   0.45995456   -4.4996596    2191.4166   0.03703469  0.035572916          124 
 4932000   0.46845499   -4.4804644    2194.0222  0.037071206  0.035563795           91 
 4933000   0.46704107   -4.4920339    2188.3824  0.036968417  0.035554682           92 
 4934000   0.46567188   -4.5048366    2189.4738  0.036979357  0.035545538           88 
 4935000   0.46820719   -4.5106807    2192.6945   0.03702625  0.035536385          125 
 4936000   0.46519395    -4.506078    2186.3488  0.036911615  0.035527243           93 
 4937000   0.45827833    -4.490275     2191.851  0.036997013  0.035518108          106 
 4938000   0.45192062   -4.5073246    2190.6765    0.0369697  0.035508955          124 
 4939000   0.46206501   -4.5107797    2187.9263  0.036915812  0.035499795          102 
 4940000   0.46280917   -4.5261268    2185.5829  0.036868808  0.035490629          120 
 4941000   0.46085028   -4.5131978    2189.9167  0.036934438  0.035481454           85 
 4942000   0.45302114   -4.5137183     2193.399  0.036985684   0.03547228           90 
 4943000   0.45864185   -4.5142868    2189.1071  0.036905844   0.03546314          155 
 4944000    0.4635565   -4.5203287    2184.6458  0.036823183  0.035453987          121 
 4945000   0.45008298   -4.5058918    2188.3545  0.036878236  0.035444811           93 
 4946000   0.45277028   -4.5166929    2188.8541  0.036879197  0.035435662           88 
 4947000    0.4634221   -4.5055997    2192.0365   0.03692535  0.035426547           85 
 4948000   0.45106422   -4.5011131    2190.3561  0.036889587  0.035417452           91 
 4949000   0.45515387    -4.506449    2190.8874  0.036891079   0.03540833           50 
 4950000   0.46660117   -4.5016283    2192.1542  0.036904953  0.035399219           48 
 4951000   0.46737798   -4.5312172    2189.3447  0.036850211   0.03539009           25 
 4952000   0.45953397   -4.5162875     2192.874   0.03690216  0.035380982           33 
 4953000   0.45630013   -4.5126058    2192.1234  0.036882082  0.035371863           28 
 4954000   0.45952754   -4.5078324    2187.3397  0.036794167  0.035362748           27 
 4955000   0.44880156   -4.5106796    2186.5092  0.036772776  0.035353629           14 
 4956000   0.46302985    -4.523039     2189.442  0.036814669  0.035344489           32 
 4957000   0.46411667   -4.5302836    2186.8584  0.036763809  0.035335359           50 
 4958000   0.46010006   -4.5206137    2186.5705  0.036751556  0.035326202           52 
 4959000   0.45918499   -4.5126917    2187.6526  0.036762327  0.035317061           61 
 4960000   0.46299744   -4.5340333    2189.3984  0.036784247  0.035307921           55 
 4961000   0.45437282   -4.5176531    2189.3308  0.036775696   0.03529878           62 
 4962000   0.45841202   -4.5185499    2186.5246  0.036721157  0.035289667           34 
 4963000   0.45286205   -4.5083197    2184.6428  0.036682162  0.035280535           66 
 4964000    0.4554409   -4.5238749    2190.1978  0.036768026  0.035271451           30 
 4965000   0.46169397   -4.5216616    2186.5795  0.036699891  0.035262337           44 
 4966000   0.44911518   -4.5217895    2191.8237  0.036780502  0.035253228           31 
 4967000   0.45014717   -4.5148591    2191.7523    0.0367719  0.035244138           40 
 4968000   0.45618946   -4.5164409    2186.9228  0.036683488   0.03523505           44 
 4969000   0.45289909   -4.5114703    2189.7615  0.036723711  0.035225969           42 
 4970000   0.46097329   -4.4984279    2188.6654  0.036697944  0.035216882           70 
 4971000   0.45260129   -4.5103701    2186.4838   0.03665399  0.035207789           40 
 4972000   0.46560237   -4.5107112    2187.4031  0.036662026  0.035198691           21 
 4973000   0.46063125   -4.5372505    2186.1807  0.036634169  0.035189596           30 
 4974000    0.4507208   -4.5325404     2187.718   0.03665256   0.03518048           79 
 4975000   0.45493425    -4.539577    2190.7661   0.03669625  0.035171368           24 
 4976000   0.46236833      -4.5203    2185.7855  0.036605464  0.035162274           43 
 4977000   0.45799642   -4.5243801    2189.5069   0.03666042  0.035153186           16 
 4978000   0.45654794   -4.5064418    2184.2295  0.036564709  0.035144103           35 
 4979000   0.45849483   -4.5348772    2193.5345  0.036713103  0.035135025           15 
 4980000   0.45231763   -4.5228584    2183.1866  0.036532574  0.035125945           25 
 4981000     0.452895   -4.5310057    2190.2039  0.036642641  0.035116856           17 
 4982000   0.45281384   -4.5289757     2188.478  0.036606416  0.035107769           18 
 4983000   0.44728174   -4.5245911    2189.2468  0.036611928  0.035098673           31 
 4984000   0.45804633   -4.5245663    2191.3039  0.036638976  0.035089587           29 
 4985000   0.45090482   -4.5358002    2184.7916  0.036522761  0.035080515           26 
 4986000   0.45322843   -4.5215889    2186.7568  0.036548282  0.035071427           22 
 4987000   0.46348893   -4.5126807    2192.7807  0.036641613  0.035062376           29 
 4988000   0.45304458   -4.5225992    2185.2848  0.036509035  0.035053326           41 
 4989000   0.44944091   -4.5102399    2189.1868  0.036566895  0.035044261           35 
 4990000   0.45090656   -4.5314751    2189.1543  0.036559022  0.035035207           34 
 4991000   0.44798204    -4.528124    2193.9507  0.036631782  0.035026144           24 
 4992000   0.45451466   -4.5216991    2185.9361  0.036490653  0.035017103           20 
 4993000   0.45956642   -4.5248767    2189.6596  0.036545491  0.035008076           25 
 4994000   0.45555845   -4.5224602    2189.3539  0.036533072  0.034999039           37 
 4995000   0.44665289   -4.5276629    2191.9782  0.036569539  0.034989977           22 
 4996000   0.45561892   -4.5296542    2188.2815  0.036500558  0.034980902           77 
 4997000   0.44129328   -4.5115369     2185.711  0.036450386  0.034971839           45 
 4998000   0.45005328   -4.5346588    2185.3165  0.036436516  0.034962793           29 
 4999000   0.44683766    -4.526865    2188.7622  0.036486668  0.034953766           60 
 5000000    0.4497748   -4.5348459    2185.7191  0.036428651  0.034944687           72 
 5001000   0.44553602   -4.5299223    2195.2435  0.036580076  0.034935642          166 
 5002000   0.44668151   -4.5226233    2187.0115  0.036435617  0.034926627           83 
 5003000   0.46977464    -4.528754    2185.3504  0.036400667  0.034917572          100 
 5004000   0.44856378   -4.5370941    2190.7727  0.036483692  0.034908529           78 
 5005000   0.45101184   -4.5308365     2189.123  0.036448934  0.034899466           86 
 5006000   0.44927026    -4.534658    2186.8414  0.036403672  0.034890444           80 
 5007000   0.45683825   -4.5297721    2186.6473  0.036393171  0.034881408           81 
 5008000   0.44544122    -4.531488     2187.043  0.036392488  0.034872404          128 
 5009000   0.45103697   -4.5341527    2187.2393  0.036388489  0.034863397          196 
 5010000   0.44690562   -4.5386393    2189.2231  0.036414223   0.03485434          154 
 5011000   0.44382809   -4.5245713    2186.8068  0.036366772  0.034845307          148 
 5012000   0.45115053   -4.5368522    2182.7145  0.036291476  0.034836302          220 
Loop time of 12744.5 on 48 procs for 5000000 steps with 4000 atoms

Performance: 67794.191 tau/day, 392.327 timesteps/s
99.4% CPU use with 48 MPI tasks x no OpenMP threads

MPI task timing breakdown:
Section |  min time  |  avg time  |  max time  |%varavg| %total
---------------------------------------------------------------
Pair    | 848.1      | 919.71     | 1002.6     | 140.0 |  7.22
Neigh   | 83.433     | 87.453     | 92.063     |  27.1 |  0.69
Comm    | 771.42     | 859.89     | 927.8      | 137.6 |  6.75
Output  | 14.082     | 14.087     | 14.172     |   0.3 |  0.11
Modify  | 10695      | 10748      | 10789      |  23.0 | 84.33
Other   |            | 115.6      |            |       |  0.91

Nlocal:        83.3333 ave          89 max          77 min
Histogram: 4 4 4 3 4 11 4 5 3 6
Nghost:        2263.33 ave        2286 max        2239 min
Histogram: 1 5 3 5 8 5 10 9 1 1
Neighs:        15136.3 ave       17022 max       13162 min
Histogram: 1 5 5 3 4 12 8 6 2 2
FullNghs:      30272.6 ave       32741 max       27301 min
Histogram: 1 2 9 3 4 7 8 5 5 4

Total # of neighbors = 1453083
Ave neighs/atom = 363.27075
Neighbor list builds = 270491
Dangerous builds = 0

#clear
#
#next RN
#
#jump SELF
Total wall time: 3:32:28
