
units lj                  # Use reduced LJ style units
atom_style atomic         # Uncharged point particles
atom_modify map hash      # Needed for indexing of clusters etc
                          # Used to be able to find where atoms are in relation to each other.

lattice fcc 1.0 spacing 1 1 1
Lattice spacing in x,y,z = 1.5874011 1.5874011 1.5874011
region box block 0 10 0 10 0 10 units lattice
create_box 2 box
Created orthogonal box = (0.0000000 0.0000000 0.0000000) to (15.874011 15.874011 15.874011)
  3 by 4 by 4 MPI processor grid
create_atoms 1 box
Created 4000 atoms
  using lattice units in orthogonal box = (0.0000000 0.0000000 0.0000000) to (15.874011 15.874011 15.874011)
  create_atoms CPU = 0.021 seconds
set type 1 type/fraction 2 0.64 78393
Setting atom values ...
  2566 settings made for type/fraction
mass 1 1.0
mass 2 1.0
pair_style lj/cut  3.5
pair_modify tail  yes
pair_coeff 1  1  1.0  1.0   # Intearaction between 1 and 1 set with epsilon = 1 and sigma = 1
pair_coeff 1  2  1.5  0.8
pair_coeff 2  2  0.5  0.88

write_data data.0
System init for write_data ...
Neighbor list info ...
  update every 1 steps, delay 10 steps, check yes
  max neighbors/atom: 2000, page size: 100000
  master list distance cutoff = 3.8
  ghost atom cutoff = 3.8
  binsize = 1.9, bins = 9 9 9
  1 neighbor lists, perpetual/occasional/extra = 1 0 0
  (1) pair lj/cut, perpetual
      attributes: half, newton on
      pair build: half/bin/atomonly/newton
      stencil: half/bin/3d
      bin: standard
WARNING: Not all mixed pair coeffs generated from mixing. Use write_data with 'pair ij' option to store all pair coeffs. (../write_data.cpp:312)


#############################
#   M E L T   S Y S T E M   #
#############################

velocity all create 2.4 5300450 mom yes dist gaussian # Assign velocities
                                                    # Temperature 2.4, random number seed, zero linear momentum
                                                                                # Gaussian distribution

timestep 0.002   # simulation timestep
thermo 1000       # output thermodynamic data every 1000 steps bf 100

# Define a fix  in this case with index 1 applied to all
# particles in the simulation. This fix is for simulations
# in the anisotropic NPT ensemble. Note that we use the MTK
# correction.
fix 1 all npt temp 2.4 2.4 0.1 iso 5.68 5.68 0.5 mtk yes tchain 5 pchain 5 # Use NPT ensemble
                                                                         # Set temperature and pressure and damping
                                                                         # Numbers of thermostats in chain and in barostat
run 10000          # run for 10000 steps
Per MPI rank memory allocation (min/avg/max) = 3.642 | 3.644 | 3.648 Mbytes
Step Temp E_pair E_mol TotEng Press Volume 
       0          2.4   -4.5154638            0  -0.91636384   -3.9779215         4000 
    1000    2.3787056    -4.243523            0  -0.67635667    5.6407305    3601.6363 
    2000    2.4116128    -4.240069            0  -0.62355416     5.698598    3617.6419 
    3000    2.3643068   -4.2745164            0  -0.72894271     5.714442    3587.2335 
    4000    2.4080366   -4.2527877            0  -0.64163592    6.0226868    3592.2648 
    5000    2.3945146    -4.228335            0  -0.63746101     5.599023     3637.182 
    6000    2.4220122   -4.2565243            0  -0.62441417    6.0946956    3566.1018 
    7000    2.3851576   -4.2479059            0  -0.67106401    5.5814252    3626.2395 
    8000    2.4461031   -4.2776513            0  -0.60941394    5.7705841    3589.0444 
    9000    2.3856817   -4.1813235            0  -0.60369562    5.5660085    3651.9584 
   10000    2.4472163   -4.1965464            0  -0.52663971    5.5688017    3644.3855 
Loop time of 2.62257 on 48 procs for 10000 steps with 4000 atoms

Performance: 658896.402 tau/day, 3813.058 timesteps/s
99.7% CPU use with 48 MPI tasks x no OpenMP threads

MPI task timing breakdown:
Section |  min time  |  avg time  |  max time  |%varavg| %total
---------------------------------------------------------------
Pair    | 1.2113     | 1.268      | 1.3281     |   2.3 | 48.35
Neigh   | 0.21727    | 0.2231     | 0.23429    |   0.7 |  8.51
Comm    | 0.81247    | 0.87489    | 0.95063    |   3.3 | 33.36
Output  | 0.00024632 | 0.00025163 | 0.00032034 |   0.0 |  0.01
Modify  | 0.21932    | 0.24078    | 0.26768    |   2.6 |  9.18
Other   |            | 0.01552    |            |       |  0.59

Nlocal:        83.3333 ave          89 max          73 min
Histogram: 2 0 0 7 1 10 8 6 6 8
Nghost:        1747.33 ave        1777 max        1712 min
Histogram: 1 2 2 4 10 8 10 7 2 2
Neighs:        10486.9 ave       11635 max        9117 min
Histogram: 2 3 4 2 7 10 7 5 5 3

Total # of neighbors = 503371
Ave neighs/atom = 125.84275
Neighbor list builds = 905
Dangerous builds = 207

# Equilibrate just above the melting temperature to avoid step fn in T

fix 1 all npt temp 1.25 1.25 0.1 iso 5.68 5.68 0.5 mtk yes tchain 5 pchain 5
run 2000
Per MPI rank memory allocation (min/avg/max) = 3.644 | 3.646 | 3.650 Mbytes
Step Temp E_pair E_mol TotEng Press Volume 
   10000    2.4472163   -4.1965464            0  -0.52663971    5.5688017    3644.3855 
   11000    1.2417392   -6.2340735            0   -4.3719303     5.472088    2770.8587 
   12000    1.2433446    -6.231282            0   -4.3667313    5.8033604    2762.0176 
Loop time of 0.653504 on 48 procs for 2000 steps with 4000 atoms

Performance: 528841.262 tau/day, 3060.424 timesteps/s
99.7% CPU use with 48 MPI tasks x no OpenMP threads

MPI task timing breakdown:
Section |  min time  |  avg time  |  max time  |%varavg| %total
---------------------------------------------------------------
Pair    | 0.30323    | 0.32437    | 0.34598    |   2.1 | 49.64
Neigh   | 0.041296   | 0.043164   | 0.045562   |   0.5 |  6.61
Comm    | 0.21502    | 0.23661    | 0.26065    |   2.8 | 36.21
Output  | 5.0705e-05 | 5.2629e-05 | 6.8002e-05 |   0.0 |  0.01
Modify  | 0.040322   | 0.044413   | 0.04783    |   1.1 |  6.80
Other   |            | 0.004891   |            |       |  0.75

Nlocal:        83.3333 ave          90 max          77 min
Histogram: 2 1 4 10 5 9 11 5 0 1
Nghost:        2109.77 ave        2125 max        2093 min
Histogram: 2 4 2 5 9 9 6 5 3 3
Neighs:        13844.6 ave       15245 max       12631 min
Histogram: 3 1 6 11 8 3 9 4 1 2

Total # of neighbors = 664539
Ave neighs/atom = 166.13475
Neighbor list builds = 142
Dangerous builds = 13

#############################
# L I N E A R  Q U E N C H  #
#############################

# Define solid atoms. This closely follows ten Wolde  Ruiz-Montero and Frenkel  Faraday Discuss  1996  104  93-110
# Compute components of the per-atom q6 vector
compute q6 all orientorder/atom degrees 1 6 components 6 nnn NULL cutoff 1.3 # compute the Q6 parameter.
                                                                             # Use all neighbours within 1.3 unit cell.

# get number of connections
compute coord_number all coord/atom orientorder q6 0.5

# An atom is solid if it has 8 or more connections (of a possible 14)
variable is_solid atom c_coord_number>=8
group solid dynamic all var is_solid    # Must be dynamic to update
dynamic group solid defined

# do clustering
compute cluster solid cluster/atom 1.3 # Create a cluster where all atoms within are solid and max 1.3 units from another member

# define chunks one chunk per cluster
compute clus_chunks solid chunk/atom c_cluster nchunk every compress yes  # Says which atoms are in which chunk

# count the size of each chunk
compute size_chunks solid property/chunk clus_chunks count


# Find the maximum entry in the vector of chunk sizes
variable max_n equal max(c_size_chunks)


# Thermo style which includes this variable
# thermo_style custom step temp pe vol v_max_n

thermo ${N}  # Print the thermo information every 100 steps
thermo 1000  

# Reset the npt fix at a lower temperature (below freezing)
fix 1  all npt temp  ${temp} ${temp}  0.1  iso  5.68  5.68  0.5  mtk yes tchain  5  pchain  5
fix 1  all npt temp  0.45 ${temp}  0.1  iso  5.68  5.68  0.5  mtk yes tchain  5  pchain  5
fix 1  all npt temp  0.45 0.45  0.1  iso  5.68  5.68  0.5  mtk yes tchain  5  pchain  5

dump dmp2 all dcd ${N} traj.dcd
dump dmp2 all dcd 1000 traj.dcd


compute msd all msd com yes
variable twopoint equal c_msd[4]/6/(step*dt+1.0e-6)
fix 9 all vector 10 c_msd[4]
variable fit equal slope(f_9)/6/(10*dt)
thermo_style custom step temp pe c_msd[4] v_twopoint v_fit v_max_n

fix 1 all npt temp 1.25 ${temp} 0.1 iso 5.68 5.68 0.5 mtk yes tchain 5 pchain 5
fix 1 all npt temp 1.25 0.45 0.1 iso 5.68 5.68 0.5 mtk yes tchain 5 pchain 5
run 2000000 # 5000000  # Run for this many steps
Neighbor list info ...
  update every 1 steps, delay 10 steps, check yes
  max neighbors/atom: 2000, page size: 100000
  master list distance cutoff = 3.8
  ghost atom cutoff = 3.8
  binsize = 1.9, bins = 8 8 8
  4 neighbor lists, perpetual/occasional/extra = 1 3 0
  (1) pair lj/cut, perpetual
      attributes: half, newton on
      pair build: half/bin/atomonly/newton
      stencil: half/bin/3d
      bin: standard
  (2) compute orientorder/atom, occasional
      attributes: full, newton on
      pair build: full/bin/atomonly
      stencil: full/bin/3d
      bin: standard
  (3) compute coord/atom, occasional
      attributes: full, newton on
      pair build: full/bin/atomonly
      stencil: full/bin/3d
      bin: standard
  (4) compute cluster/atom, occasional
      attributes: full, newton on
      pair build: full/bin/atomonly
      stencil: full/bin/3d
      bin: standard
Per MPI rank memory allocation (min/avg/max) = 9.846 | 9.851 | 9.856 Mbytes
Step Temp PotEng c_msd[4] v_twopoint v_fit v_max_n 
   12000    1.2433446    -6.231282 5.6119565e-30 3.8971918e-32 8.3333333e+20            4 
   13000    1.2514165   -6.2978454    0.5319288 0.0034097999  0.043383277            2 
   14000    1.2449168    -6.317581    1.0580112 0.0062976855  0.042644121            1 
   15000    1.2684204   -6.2861668    1.5228385 0.0084602137  0.041890809            3 
   16000    1.2687305   -6.3347223    1.9608628  0.010212827  0.040650447            1 
   17000    1.2376191   -6.3649092    2.4436469  0.011978661  0.040070883            2 
   18000    1.2268327    -6.334336     2.942268  0.013621611  0.040111686            3 
   19000    1.2804051   -6.2415365    3.4032035  0.014926331   0.04015656            3 
   20000    1.2305052   -6.2948627    3.8194689  0.015914453  0.039719183            2 
   21000    1.2404826   -6.3473585    4.2825303  0.016994167  0.039408829            6 
   22000    1.2345979   -6.2648529    4.7974128  0.018172018  0.039243908            4 
   23000    1.2666213   -6.3131328    5.2569918  0.019047071  0.039300114            1 
   24000    1.2822679   -6.3142643    5.7169405  0.019850487  0.039212593            2 
   25000    1.2507313   -6.3479343    6.2567753  0.020855917  0.039284609            2 
   26000    1.2550878   -6.3280487    6.7865915  0.021751896  0.039438447            2 
   27000     1.270812   -6.3395043    7.3887019  0.022804635  0.039781661            2 
   28000    1.2165032   -6.3417063    7.9188972  0.023568146  0.040134894            2 
   29000    1.2554694    -6.348896    8.5047897   0.02443905  0.040526473            4 
   30000    1.2641547   -6.3195494    9.0125612  0.025034892  0.040930906            2 
   31000    1.2060308   -6.3249738     9.504228     0.025549     0.041133            1 
   32000    1.2495187   -6.3350495    9.9355873  0.025873925  0.041277534            2 
   33000    1.2353757   -6.3446458     10.39577  0.026251945  0.041367892            1 
   34000     1.252146   -6.3667112    10.864214  0.026627975   0.04139139            3 
   35000    1.2302263   -6.3317363    11.346549  0.027015592  0.041402719            2 
   36000    1.2386507   -6.3350127    11.772321  0.027250744  0.041357818            2 
   37000    1.2439785   -6.3227283    12.372658  0.027866346  0.041360007            4 
   38000    1.2472634   -6.3180274    12.890614   0.02826889  0.041368077            4 
   39000     1.249679   -6.3432545    13.294578  0.028407218   0.04136771            2 
   40000    1.2509869   -6.3204176    13.724286  0.028592261  0.041308885            2 
   41000     1.235445   -6.3892914    14.313571  0.029092624  0.041304777            2 
   42000    1.2494924   -6.2779835    14.890063  0.029543775     0.041333            4 
   43000    1.2110713   -6.3420511    15.215312  0.029487038  0.041347487            3 
   44000    1.2430037   -6.3569662    15.686457  0.029709199  0.041295831            6 
   45000    1.2609281   -6.3383158    16.080544  0.029778784   0.04122923            3 
   46000     1.271893   -6.3508853    16.572381  0.030022429  0.041148389            2 
   47000    1.2434846   -6.3175718    17.197129  0.030491364   0.04109427            2 
   48000    1.2303387   -6.3028964    17.550778    0.0304701  0.041039705            2 
   49000    1.2315495   -6.3549002    17.900523  0.030443067  0.040981776            2 
   50000     1.233063   -6.3194041    18.357825  0.030596374  0.040873864            2 
   51000    1.2440271   -6.3741315    18.774042  0.030676539  0.040778466            1 
   52000    1.2315197   -6.3752564    19.135647    0.0306661  0.040663989            2 
   53000    1.2544532   -6.3144683    19.653756  0.030902132  0.040549097            1 
   54000    1.2229691   -6.3866182    19.964897  0.030810026  0.040438424            5 
   55000     1.244671   -6.2890957    20.627867  0.031254344  0.040338205            4 
   56000    1.2212098   -6.3762201    21.096004  0.031392863  0.040262067            3 
   57000    1.2418454   -6.3572163    21.484943  0.031410736  0.040168854            6 
   58000    1.2132256   -6.3368334    21.948376  0.031535023  0.040099288            2 
   59000    1.2336353   -6.3325126    22.390499  0.031624999  0.040016004            5 
   60000    1.2593749   -6.3680799    22.670423  0.031486699  0.039909885            2 
   61000    1.2255878   -6.3393399    23.214675  0.031714037  0.039814177            2 
   62000    1.2411486    -6.364843    23.766192  0.031943806  0.039743421            2 
   63000    1.2069961   -6.3760875    24.131793   0.03192036   0.03967849            2 
   64000    1.2513321   -6.3665204     24.44244  0.031826094  0.039601625            4 
   65000    1.2324969    -6.308704    25.060141  0.032128385  0.039525995            4 
   66000    1.2160053     -6.36324    25.321119   0.03197111  0.039459265            2 
   67000    1.2420059   -6.3052266    26.082252  0.032440611  0.039400487            2 
   68000    1.2059694   -6.3327083    26.433003  0.032393386  0.039337445            3 
   69000    1.2232583   -6.3282405    26.951766  0.032550441  0.039290072            3 
   70000    1.2130885   -6.3481722    27.378119  0.032592998  0.039261912            3 
   71000    1.2267621   -6.3570933    27.738737  0.032557203  0.039214118            3 
   72000    1.2472172   -6.3365142    28.272296  0.032722564   0.03915691            3 
   73000    1.2281302   -6.3271285    28.624795  0.032676707  0.039104165            1 
   74000    1.2250829   -6.3883539    29.003397  0.032661483  0.039056121            3 
   75000    1.2327412   -6.3502183    29.565416  0.032850462  0.039006698            2 
   76000    1.2182403   -6.3814926    29.972459  0.032864538  0.038958522            2 
   77000    1.2376273   -6.3734719     30.53756  0.033049307  0.038918247            2 
   78000    1.2570682   -6.3940337    30.926631  0.033041273   0.03888908            2 
   79000    1.2153546   -6.3512298    31.265574  0.032980563  0.038860319            2 
   80000    1.2301751   -6.3927361    31.665345  0.032984734  0.038818911            3 
   81000    1.2280327   -6.3945866    32.167739  0.033094381  0.038780478            2 
   82000    1.2258717   -6.4215247    32.645449  0.033176269  0.038743856            5 
   83000    1.2259976   -6.3514923    33.167443  0.033300645  0.038715156            1 
   84000    1.2200746    -6.379024    33.668328  0.033401118  0.038682309            3 
   85000    1.2028983   -6.3900814    33.936207  0.033270791  0.038649104            2 
   86000    1.2402267   -6.3765606    34.338444  0.033273686   0.03861465            2 
   87000     1.196753   -6.4152904    34.668943    0.0332078  0.038577721            2 
   88000    1.2072727   -6.3642864    35.293918   0.03342227  0.038538417            1 
   89000    1.2432312   -6.3906448    35.811964  0.033531801  0.038501969            1 
   90000    1.2196434    -6.391494    36.186863  0.033506355  0.038477625            3 
   91000    1.2343328   -6.3809893    36.817155  0.033715343  0.038454651            2 
   92000    1.2073213    -6.398544    37.035353  0.033546515  0.038427505            3 
   93000    1.2366579   -6.4495629    37.452316  0.033559423  0.038397528            5 
   94000    1.2134509   -6.3589274    38.058349  0.033739671  0.038374914            1 
   95000     1.215345   -6.4003419    38.376278  0.033663401  0.038350434            3 
   96000    1.2452111   -6.3879348    38.780202   0.03366337  0.038318299            1 
   97000    1.1839654   -6.4210571     39.13797  0.033623685  0.038285056            4 
   98000    1.2095287   -6.3990822    39.672649  0.033735246  0.038254827            2 
   99000    1.2341241   -6.3852407    39.911821  0.033595809  0.038218664            2 
  100000    1.2491902   -6.4167737    40.469739  0.033724782   0.03818504            3 
  101000    1.2024046   -6.3857078    41.003246  0.033831061  0.038155365            1 
  102000    1.2119254   -6.4145958    41.108239  0.033585162  0.038121537            4 
  103000    1.2137276   -6.3740898    41.728277  0.033760741   0.03808774            5 
  104000    1.2261377    -6.393189    42.036225  0.033682873  0.038053922            1 
  105000    1.2151779    -6.379758      42.4028  0.033653016  0.038010564            5 
  106000    1.2127934   -6.4032198    42.578011  0.033473279   0.03796138            2 
  107000    1.2207925    -6.435734     43.04418  0.033523505  0.037909191            2 
  108000    1.2055677   -6.3627487    43.569965    0.0336188   0.03786158            2 
  109000    1.1884223   -6.4524646    43.809303  0.033493351   0.03781368            2 
  110000    1.2231744    -6.381588    44.661188  0.033834233  0.037770463            2 
  111000    1.2095317   -6.3813573    44.851805  0.033672526  0.037731851            2 
  112000    1.2313247   -6.4058559     45.19348  0.033626101  0.037686581            5 
  113000    1.2063632   -6.3745919    45.810021  0.033783201  0.037649922            2 
  114000    1.2241256   -6.4322627    46.023681  0.033643042  0.037612828            2 
  115000    1.1993082   -6.3810256    46.609122  0.033774726  0.037579287            5 
  116000    1.1912003   -6.4257818     47.03828  0.033791867  0.037541581            4 
  117000    1.2093332   -6.3677949     47.36231  0.033733839  0.037504295            2 
  118000     1.220075   -6.4371179    47.596642  0.033613448  0.037465107            5 
  119000    1.2156586   -6.3598906    48.307739  0.033828948  0.037427604            2 
  120000    1.1832298   -6.4049387    48.599678  0.033749777  0.037393273            2 
  121000    1.1960226   -6.4278334    49.199245  0.033883778  0.037362666            2 
  122000    1.1824191   -6.4060364     49.41687  0.033754693  0.037332093            2 
  123000    1.2040664   -6.4445015    49.734598  0.033695527  0.037298656            2 
  124000      1.21346   -6.3894634    50.227535  0.033755063  0.037260019            4 
  125000    1.2045219   -6.3996256    50.678249  0.033785499  0.037224475            3 
  126000    1.2230694   -6.4120396    51.085409  0.033786646  0.037194218            8 
  127000    1.1839362   -6.4599499    51.177904  0.033581302  0.037159703            3 
  128000    1.2248818   -6.4239381    52.008941  0.033859987  0.037127856            2 
  129000    1.2241858   -6.4310685     52.42543  0.033866557  0.037097862            4 
  130000    1.1958857   -6.4138282    52.990217  0.033968088  0.037073132            6 
  131000    1.1747009    -6.404189      53.3861  0.033960623  0.037050262            1 
  132000    1.1917894   -6.3918789    53.796396  0.033962371   0.03703074            1 
  133000    1.2208452   -6.4390369     54.03393  0.033855846  0.037005249            3 
  134000    1.1891449   -6.4170767    54.458829  0.033867431   0.03697714            3 
  135000    1.1980376    -6.407144    55.046126   0.03397909  0.036952976            4 
  136000     1.176612   -6.4067851     55.41515  0.033955361  0.036927904            7 
  137000    1.2349838   -6.4667828    55.365202   0.03367713  0.036897295            1 
  138000    1.2040824   -6.4462466    56.100381  0.033877042  0.036870572            3 
  139000    1.1899501   -6.4125073    56.501339  0.033873704  0.036844787            2 
  140000    1.1822959   -6.4104654    57.070697  0.033970653  0.036819558            4 
  141000     1.207189   -6.4262307    57.482725  0.033973242  0.036798335            2 
  142000    1.1914419   -6.4431426    57.540971  0.033768175  0.036770804            1 
  143000    1.1808028    -6.406386    58.156151  0.033890531  0.036744021            4 
  144000    1.2022093   -6.4060483    58.677759  0.033957036  0.036719768            2 
  145000    1.1956792   -6.4662692    59.133067  0.033984521  0.036701519           10 
  146000    1.1955399   -6.4320958    59.525034  0.033975476  0.036679946            6 
  147000    1.2044531   -6.4300033    60.207251  0.034131094  0.036662325            6 
  148000    1.2006006   -6.4799271    60.322876  0.033965583  0.036646167            3 
  149000    1.2225802   -6.4767177    60.985638  0.034108298  0.036631707            2 
  150000    1.1652166   -6.4275526    61.381637  0.034100909  0.036613764            3 
  151000    1.1952691   -6.4287496    61.583424  0.033986437  0.036593918            4 
  152000    1.1985054   -6.4946677    61.974676  0.033977344  0.036573924            6 
  153000    1.2027464   -6.4866166    62.433939  0.034005413  0.036553629            3 
  154000    1.2026181   -6.4460206    63.061798  0.034124349  0.036536108            2 
  155000    1.1734757   -6.4710653    63.366715  0.034068126  0.036521426            2 
  156000    1.2048994    -6.459163    63.882344  0.034125184  0.036509794            1 
  157000    1.1759563   -6.4229503    64.494927  0.034232976   0.03650225            4 
  158000    1.1668613   -6.4710041    64.684144   0.03411611  0.036492418            1 
  159000    1.1963982   -6.4318919    65.369547  0.034260769   0.03648106            2 
  160000    1.1741805   -6.4356129    65.753527  0.034246629  0.036470844            3 
  161000    1.1995071    -6.486516    66.067584  0.034196472  0.036460179            4 
  162000    1.1846757   -6.4479587    66.726834  0.034324503   0.03644657            2 
  163000    1.1827911   -6.5192078    66.600378  0.034049273  0.036432864           11 
  164000      1.16726   -6.4573891    66.930572  0.034009437  0.036415964            3 
  165000    1.1646029   -6.4585156    67.657254   0.03417033  0.036399809            5 
  166000    1.1706527   -6.4380022    68.165627  0.034219692  0.036385575            5 
  167000    1.1899621   -6.4348628    68.345264  0.034104423  0.036366013            2 
  168000    1.1890787   -6.4605249    68.697596  0.034076189  0.036349125            2 
  169000    1.1688481   -6.4200735    68.915019  0.033981765  0.036329546            4 
  170000     1.177894   -6.4449435    69.516631   0.03407678  0.036309994            2 
  171000    1.1603005   -6.4923839     69.62747  0.033931515    0.0362938            3 
  172000    1.2063305   -6.4637335     70.34395  0.034081371  0.036274502            2 
  173000    1.1854205    -6.512918    70.498351  0.033958743  0.036257802            1 
  174000    1.1928872   -6.4660137    70.990197  0.033999137  0.036238673            5 
  175000    1.2120425   -6.4691846     71.48499  0.034040471  0.036224165            2 
  176000    1.1731913   -6.4201419    71.988356  0.034085396  0.036208665            3 
  177000    1.1921372   -6.4683551    72.259784  0.034020614  0.036190522            3 
  178000    1.1881313   -6.4532384    72.642993  0.034008892  0.036172149            2 
  179000    1.1734288   -6.4316635    72.723332    0.0338563  0.036149044            3 
  180000    1.1993709   -6.4619702    73.153818  0.033867508  0.036123171            2 
  181000    1.1805672   -6.4642546    73.519981  0.033848978  0.036097724            2 
  182000     1.160453    -6.509895    73.688594  0.033740199  0.036072254            4 
  183000    1.2186018   -6.4733517    74.323337  0.033844871  0.036044956            5 
  184000    1.1890652   -6.4580807    74.634468  0.033801842  0.036020565            2 
  185000    1.1710854   -6.4577678    74.727437  0.033661008  0.035991846            3 
  186000    1.1683619   -6.5122889    75.166097  0.033676567  0.035963489            2 
  187000    1.1665296   -6.4610336    75.522087  0.033655119   0.03593688            4 
  188000    1.2051124    -6.494366    75.510352  0.033470901  0.035904953            6 
  189000    1.1425186   -6.4649945    75.958261  0.033491297   0.03587029            3 
  190000    1.1805252   -6.4997478    76.050445  0.033355458  0.035835247            3 
  191000    1.1767429   -6.4881581    76.825917  0.033519161  0.035806026            5 
  192000    1.2045765   -6.5091856    77.075136   0.03345275  0.035778739            1 
  193000    1.1778351   -6.4730007    78.008968  0.033682629  0.035751455            5 
  194000    1.1920759   -6.5461172    77.882269  0.033454583  0.035724125            3 
  195000     1.181951   -6.4910447    78.148256   0.03339669  0.035693928            3 
  196000    1.1609004   -6.4488584    78.726873   0.03347231  0.035663269            3 
  197000    1.1942196   -6.5015788    78.914614  0.033381816  0.035632466            2 
  198000    1.1798355   -6.4511186    79.669114  0.033530772  0.035602438            3 
  199000    1.1938865   -6.4607837    80.207487  0.033587725  0.035574704            3 
  200000    1.1878244   -6.4623724    80.159195  0.033399665  0.035547108            2 
  201000    1.1869442   -6.4799588    80.754655  0.033480371  0.035519538            3 
  202000    1.1621487   -6.4961193     80.87214  0.033363094   0.03549157            4 
  203000    1.1718404   -6.5259167    81.109808  0.033296309  0.035463038            2 
  204000    1.1647156   -6.4727616    82.131461  0.033550433  0.035437271            1 
  205000    1.1810738   -6.5125557    82.342217  0.033472446  0.035410819            3 
  206000    1.1573462   -6.4680324     82.74199  0.033471679   0.03538497            2 
  207000    1.1920708   -6.5087562    83.030519  0.033426135  0.035361613            6 
  208000    1.1782964   -6.4645774    83.267173  0.033360246  0.035336163            3 
  209000    1.1680586    -6.521621     83.78134  0.033405638  0.035310695            2 
  210000    1.1675179   -6.4987215    84.478033  0.033523029  0.035287176            4 
  211000    1.1297781   -6.5087208    84.422163  0.033342086  0.035263966            5 
  212000    1.1695437   -6.5056244     84.61483  0.033260546  0.035239536            3 
  213000    1.1776865   -6.5121044    85.149202  0.033313459  0.035214341            1 
  214000     1.185463   -6.5249495    85.516863  0.033300959  0.035187263            2 
  215000    1.1527126   -6.5343656    85.596509  0.033176942  0.035159361            1 
  216000    1.1505083   -6.4564393    86.430478  0.033345092  0.035132972            3 
  217000    1.1709781   -6.5069983    86.688207  0.033290402  0.035107853            3 
  218000    1.1625891   -6.5005677    87.107339  0.033297912  0.035083713            1 
  219000    1.1739728   -6.5043585    87.679239  0.033363485  0.035060274            5 
  220000    1.1667985   -6.5211477    87.684089   0.03321367  0.035037481            2 
  221000    1.1883355   -6.5249952     88.41197  0.033337847  0.035013148            3 
  222000    1.1466424   -6.5398628    88.874195  0.033361184  0.034989583            4 
  223000    1.1488614   -6.5401096    89.132339  0.033308049  0.034968702            2 
  224000    1.1812615   -6.5195629     89.58997  0.033329602  0.034949728            2 
  225000    1.1545104   -6.5394139    90.154681  0.033390623  0.034931888            2 
  226000    1.1687006   -6.5298641    90.663527  0.033430504  0.034915395            2 
  227000    1.1751087   -6.5399452    90.942943  0.033385809  0.034897153            4 
  228000    1.1638737   -6.4965405    91.601767  0.033480178  0.034878892            2 
  229000    1.1530769   -6.5632514    91.959266   0.03346407  0.034862449            4 
  230000    1.1500008   -6.5192075    91.928973  0.033307599  0.034843393            3 
  231000    1.1538808   -6.5432277    92.313629  0.033302175  0.034823169            4 
  232000    1.1513623   -6.5083834    92.940379  0.033383757  0.034803726            2 
  233000    1.1739506   -6.5207808    92.781826  0.033183772  0.034784911            2 
  234000    1.1404525   -6.5594414    93.462115  0.033284229  0.034767301            4 
  235000    1.1760372   -6.5299803    94.068013  0.033357452   0.03475058            5 
  236000     1.145966   -6.5294783     94.37987  0.033326225  0.034735686            2 
  237000    1.1807695   -6.5293426     94.99942  0.033403453  0.034720867            3 
  238000    1.1457076   -6.5195997    95.677853  0.033500649  0.034707696            3 
  239000    1.1419349   -6.5274175    95.763815  0.033390451  0.034696033            4 
  240000    1.1507147   -6.5081436    96.927043  0.033655223  0.034686972            3 
  241000    1.1806217   -6.5233867      97.0977  0.033574585   0.03467829            3 
  242000    1.1808108   -6.5886791    96.789386  0.033329678  0.034666182            2 
  243000     1.139695   -6.5550987    97.743542  0.033519733  0.034653869            3 
  244000    1.1729261   -6.5233063    97.741113  0.033381527  0.034641815            4 
  245000    1.1836029   -6.5340964    98.050212  0.033350412    0.0346286            4 
  246000    1.1468667   -6.5094489    98.931848  0.033513499  0.034616204            3 
  247000    1.1587221   -6.5314068    98.863512  0.033354761  0.034603202            3 
  248000    1.1639988   -6.5675633    99.583723  0.033462273  0.034591537            3 
  249000    1.1678377   -6.5235862    99.572644  0.033324178  0.034579326            2 
  250000     1.155191    -6.510515    100.26101  0.033420337  0.034569195            2 
  251000    1.1686373   -6.5556312    100.41831  0.033339412  0.034559763            2 
  252000    1.1437042   -6.4812319    101.52215  0.033572139  0.034548035            1 
  253000    1.1501314   -6.5396455     101.1687  0.033323024   0.03453707            2 
  254000     1.172563   -6.5134389    101.86516  0.033420329  0.034523308            4 
  255000    1.1567709   -6.5143339    101.87183  0.033291449  0.034510557            4 
  256000    1.1496712   -6.5871176    101.88967  0.033167211  0.034496527            3 
  257000    1.1507858   -6.5668306    102.42178  0.033210695  0.034482689            3 
  258000    1.1597376   -6.5296208    103.12982  0.033310665  0.034469791            3 
  259000    1.1244974    -6.550123    103.39108  0.033266112  0.034456886            6 
  260000    1.1454946   -6.5017848    103.75261   0.03325404  0.034444372            4 
  261000    1.1589179   -6.5876759    103.60939  0.033080905   0.03443114            5 
  262000     1.156148   -6.5877918    104.30449   0.03317573  0.034414727            3 
  263000    1.1686459   -6.5446961    104.64759    0.0331583  0.034399444            3 
  264000    1.1588315   -6.5528289    105.40557  0.033271962  0.034386051            4 
  265000     1.125804    -6.557971    105.38851   0.03314104  0.034372925            1 
  266000     1.151368   -6.5406742    106.04557  0.033222296  0.034359378            3 
  267000    1.1288704   -6.5537063    106.27728  0.033170188  0.034343962            2 
  268000    1.1427415   -6.5183624    106.82113  0.033215524  0.034330078            3 
  269000     1.111005   -6.5794622     106.6296  0.033032713   0.03431539            3 
  270000    1.1369682   -6.5721284    107.44977  0.033163509  0.034300189            5 
  271000    1.1241473   -6.5333083    107.76716  0.033138734  0.034286056            5 
  272000    1.1663713   -6.5415386    108.34076  0.033192633  0.034272303            2 
  273000    1.1499644   -6.6155439    108.30387  0.033059791  0.034260006            3 
  274000    1.1429183   -6.5619427    108.99584  0.033149586  0.034245523            2 
  275000    1.1379561   -6.5417194    109.30273   0.03312204  0.034231317            4 
  276000    1.1389683   -6.5495269    109.50367  0.033062703  0.034217716            1 
  277000    1.1372173   -6.5239302    110.50254  0.033243845  0.034204356            3 
  278000    1.1372043   -6.5391364    110.70834  0.033185953  0.034192788            3 
  279000    1.1425214    -6.513257    111.40787  0.033275946  0.034181393            1 
  280000    1.1280464   -6.5541657     111.5169  0.033189553  0.034171146            4 
  281000    1.1374195   -6.5253685    112.08136  0.033238838  0.034160741            4 
  282000    1.1280693   -6.5678498     112.0692  0.033117377  0.034149094            3 
  283000     1.119554   -6.6051941    111.90956  0.032953344  0.034135268            6 
  284000    1.1332098   -6.5654756    112.81056  0.033101691  0.034121184            3 
  285000    1.1523127   -6.5719443    112.78825  0.032979022  0.034107718            1 
  286000    1.1336591   -6.6182006     113.1176  0.032959673  0.034093948            4 
  287000    1.1371105   -6.5883873    113.35736  0.032914448  0.034078822            6 
  288000    1.1403161   -6.5897926    113.62959  0.032878933  0.034062148            4 
  289000    1.1329493   -6.5730128    113.83766  0.032825161   0.03404647            4 
  290000    1.1344255   -6.5908156    114.64267  0.032943296  0.034029913            2 
  291000    1.1257854   -6.5746842     114.3605  0.032749285  0.034012394            2 
  292000    1.1426609    -6.601044    115.00423  0.032820842  0.033994935            6 
  293000    1.1091434   -6.6144132    115.27173  0.032784906  0.033977981            1 
  294000    1.1441761   -6.5752091    115.78014  0.032817499  0.033958744            3 
  295000    1.1340327   -6.5798246    116.32491  0.032860145  0.033942034            3 
  296000    1.1348713   -6.5675715    116.58031  0.032821035  0.033924941            3 
  297000    1.1516167   -6.5730903    116.79295  0.032770187  0.033908587            3 
  298000    1.1266315   -6.6214783    116.93557  0.032700104  0.033891831            2 
  299000    1.1204179   -6.5801392    117.68053  0.032798365  0.033875346            1 
  300000    1.1222532   -6.6323074    117.92985  0.032758292  0.033858713            4 
  301000    1.1187563   -6.6480823    117.69809  0.032585296  0.033841398            1 
  302000    1.0943736   -6.6485223    118.49724  0.032697912  0.033824526            2 
  303000    1.1411205   -6.5611563    118.90852  0.032703114  0.033806819            7 
  304000    1.1203724   -6.5880797    119.29666  0.032701936  0.033789618            4 
  305000    1.1237985   -6.6219119    118.98817  0.032510428  0.033771791            3 
  306000    1.1308761   -6.5692227    119.66501  0.032588511  0.033753128            4 
  307000    1.1126769   -6.6151983    119.97325   0.03256603  0.033735527            2 
  308000    1.1007093   -6.6395992    119.93595  0.032450203  0.033716882            3 
  309000    1.1255562   -6.5835598    120.91845  0.032610154  0.033698927            5 
  310000     1.134878   -6.5736627    121.36712  0.032625569  0.033681596            5 
  311000    1.1299697    -6.616168    121.24227  0.032487212  0.033663101            4 
  312000    1.1169285   -6.6335575    121.20469  0.032373048  0.033644087            5 
  313000    1.1242665   -6.6237854    121.33763  0.032305014   0.03362331            1 
  314000    1.1192415   -6.5996071    122.30036  0.032457633  0.033603392            2 
  315000    1.1329332   -6.6139076    121.91768  0.032253356   0.03358301            3 
  316000    1.0998035   -6.6034878    122.41283  0.032281866  0.033562778            4 
  317000    1.1397228   -6.6114354    122.97556  0.032327959  0.033542499            8 
  318000    1.1280854   -6.5873113    123.38738  0.032334218  0.033522278            6 
  319000    1.1243519   -6.5699798    123.85985  0.032356283  0.033502749            6 
  320000    1.1104195   -6.6253849    124.02202  0.032297402  0.033482723            4 
  321000    1.1464052   -6.5944388    124.39715  0.032294172  0.033462165            3 
  322000    1.1565974   -6.6117683    124.22025  0.032148099  0.033441355            6 
  323000    1.1159517   -6.6224309    124.97929  0.032244398  0.033420744            3 
  324000    1.1057881   -6.6448147    125.34276  0.032238364  0.033401438            4 
  325000     1.132264   -6.6171103    125.95928  0.032297252  0.033383503            4 
  326000    1.1329705   -6.6143454    126.23377  0.032268345  0.033365277            2 
  327000     1.121415   -6.5782761    127.10866  0.032392625  0.033347771            2 
  328000    1.1208619   -6.6070559    127.28676  0.032339117  0.033330422            4 
  329000    1.1202589   -6.6467913    127.25606  0.032233045  0.033312507            2 
  330000    1.1198215   -6.6094041    127.47932  0.032191748  0.033294285            2 
  331000    1.1192589   -6.6246639    127.43635  0.032083672  0.033275908            3 
  332000    1.1309155   -6.5972471    128.20353  0.032179601  0.033256418            3 
  333000     1.116662   -6.5878949    128.13827  0.032066633  0.033236824            3 
  334000    1.1054247   -6.6582158    128.64789  0.032097777   0.03321752            3 
  335000    1.1346091    -6.639925    129.26018  0.032154273  0.033199272            2 
  336000    1.1065117   -6.5919264    129.68541  0.032164039  0.033180906            2 
  337000    1.1094138   -6.5839685    130.04975  0.032158691  0.033163213            4 
  338000    1.1033645   -6.6462455    130.43166  0.032157707  0.033145499            3 
  339000    1.1004599   -6.6372122     130.5059  0.032081097  0.033126998            5 
  340000    1.1203034   -6.6456915    130.73634  0.032043222  0.033107763            8 
  341000    1.1203202   -6.6143002    131.42459  0.032117446  0.033089956            5 
  342000    1.1139859   -6.6293498    131.54315  0.032052425  0.033072133            3 
  343000    1.1269893   -6.6539737     131.6601   0.03198739  0.033053659            3 
  344000    1.0961404   -6.6541738    132.35776  0.032063411  0.033035463            2 
  345000    1.1428655   -6.6372053    131.86437  0.031851297  0.033015711            3 
  346000    1.0973784    -6.669665    132.39285  0.031886525  0.032996419            3 
  347000    1.1453352   -6.6468264    133.01579  0.031944234  0.032977574            4 
  348000    1.1182415   -6.6105195    132.93669  0.031833499  0.032959091            6 
  349000    1.1187723   -6.6272127    133.85648   0.03196191  0.032940444            5 
  350000    1.1164207   -6.6527065    133.51007  0.031788113  0.032920757            2 
  351000     1.114486   -6.6482158     134.1237  0.031843233  0.032900601            2 
  352000    1.1217765   -6.6493762    134.15455  0.031760073  0.032879612            3 
  353000    1.0801885   -6.6379466    134.65565  0.031788397  0.032858359            8 
  354000     1.096833   -6.5933374    135.46708  0.031889613  0.032838206            2 
  355000    1.1014268   -6.5891613    135.97486  0.031918982  0.032818878            4 
  356000    1.1133292   -6.6755623    135.69976  0.031764924  0.032799691            4 
  357000    1.0802646   -6.6246028    136.66574  0.031901432  0.032780075            7 
  358000    1.0961702   -6.6611087    135.91692  0.031638018  0.032761496            5 
  359000    1.1077184   -6.6442842    136.88132   0.03177375  0.032741776            2 
  360000    1.1226283    -6.692526     136.8053  0.031667894  0.032723129            4 
  361000    1.0838952   -6.6727188    137.07898  0.031643346  0.032703868            3 
  362000    1.1073567   -6.6903824    136.97617  0.031532268  0.032684022            3 
  363000    1.0982252   -6.6760125    138.03185  0.031687752   0.03266367            5 
  364000    1.1087238   -6.6913762    138.00749  0.031595122   0.03264395            3 
  365000    1.1027398   -6.6296591    138.73822  0.031675393  0.032624328            3 
  366000    1.1005799   -6.6472476    138.79752   0.03160235  0.032605456            7 
  367000    1.1334234   -6.6605498    139.30621  0.031631746  0.032586792            8 
  368000    1.1008339     -6.67842    139.15759  0.031512136  0.032567682            3 
  369000    1.0982243   -6.6697749    139.98778  0.031614224  0.032547688            4 
  370000    1.0977649   -6.6554111    140.02105  0.031536273  0.032528896            1 
  371000         1.12   -6.6604352    140.58225  0.031577326  0.032510459            3 
  372000    1.0965252   -6.6469271    141.26245  0.031644815  0.032492699            2 
  373000    1.1223201   -6.7060656    141.16494   0.03153819  0.032474967            3 
  374000    1.1035565   -6.6827846    141.60029  0.031550866  0.032456541            3 
  375000    1.0840244   -6.6864396    142.48803  0.031664006  0.032438024            3 
  376000    1.0892863    -6.659182     142.3724  0.031554167  0.032420783            4 
  377000    1.0969712    -6.690815    142.74997  0.031553928  0.032403328            4 
  378000    1.1240162    -6.670323    142.91473  0.031506775  0.032385132            3 
  379000    1.0981833   -6.6510216    143.38794  0.031527692  0.032367412            4 
  380000    1.0904619   -6.6721476    143.75473  0.031525161  0.032350079            5 
  381000    1.1222047   -6.7096939    143.96974  0.031489444  0.032332381            2 
  382000    1.1086105   -6.6862127    144.64953  0.031555308  0.032314645            3 
  383000    1.0760731   -6.6543263    145.32709  0.031620342  0.032297775            2 
  384000    1.0894218   -6.6616877    145.25534  0.031522425  0.032279511            7 
  385000    1.1284583   -6.6717797    144.89803  0.031363211  0.032262003            3 
  386000    1.0867351   -6.6627825    145.12339  0.031330611  0.032244458            2 
  387000    1.0929466   -6.6785841    145.99744  0.031437865  0.032227126            2 
  388000    1.0748886   -6.6574622    146.23406  0.031407659   0.03220962            1 
  389000    1.1221029    -6.701688    146.00424  0.031277686  0.032192055            4 
  390000    1.0961522   -6.7191568    146.18213  0.031235497  0.032173665            3 
  391000    1.0774829   -6.6798175    146.79931  0.031287151  0.032155163            6 
  392000    1.0935601   -6.6563358    147.08174  0.031267376  0.032136244            2 
  393000    1.1075488   -6.6936062    147.60131  0.031297987  0.032117791            3 
  394000    1.0781938   -6.6658541    147.38653  0.031173124  0.032099422            3 
  395000    1.1169151   -6.6353323     148.5274  0.031334895  0.032081196            2 
  396000     1.113526   -6.6463161    148.29811  0.031207514  0.032063127            3 
  397000    1.0870384   -6.6853113    149.28306  0.031335655  0.032045323            3 
  398000     1.122055   -6.6969591    149.17154  0.031233572  0.032027636            4 
  399000    1.0987146   -6.6925691    149.33869  0.031190202  0.032010004            2 
  400000    1.0967558    -6.713521    149.83648  0.031215934  0.031992218            3 
  401000    1.1116474   -6.7302677    149.61025  0.031091075  0.031974347            2 
  402000    1.0923502   -6.7052103    149.83683  0.031060702  0.031956098            2 
  403000    1.0669628   -6.6891581    150.73469  0.031169291  0.031938606            3 
  404000      1.09929   -6.6858302    150.89909  0.031126049  0.031921551            3 
  405000     1.088166   -6.7180303    151.08953   0.03108838  0.031903876            2 
  406000    1.1185311     -6.74383    151.29516  0.031054016  0.031885687            5 
  407000     1.093048   -6.6893169    151.68705  0.031057955  0.031867339            3 
  408000     1.112871   -6.7161144    151.96742  0.031039097  0.031849239            2 
  409000    1.0700465    -6.662049    153.02142  0.031177959  0.031832074            3 
  410000    1.0667396   -6.6780749     153.2257  0.031143436  0.031814212            2 
  411000    1.0917467   -6.6889845    153.40959  0.031104945  0.031797019            2 
  412000    1.0801949    -6.681542    153.52962  0.031053726   0.03178064            3 
  413000    1.1161327   -6.6613892    154.02412  0.031078312   0.03176301            4 
  414000    1.0733201   -6.7388505    153.11413  0.030820073  0.031744926            2 
  415000    1.0871518   -6.7012874    153.83803   0.03089117  0.031726159            4 
  416000    1.1037788    -6.755799    154.27898  0.030905245  0.031707513            3 
  417000    1.0741248   -6.6942721    154.77645  0.030930545  0.031689913            4 
  418000    1.0832107   -6.7288037    154.43385  0.030788247  0.031671888            2 
  419000    1.1053706   -6.7308298    154.73289  0.030774242  0.031653606            6 
  420000     1.070021   -6.7254598    155.22502  0.030798616  0.031634557            2 
  421000    1.0794186    -6.687271    155.46786  0.030773528  0.031615117            2 
  422000    1.0830998   -6.7212796    154.95323  0.030598978  0.031595112            3 
  423000    1.0918617   -6.6882832    155.78266  0.030690043  0.031575121            4 
  424000    1.0687611   -6.7448155    155.53538   0.03056906  0.031554204            4 
  425000    1.0944598   -6.6950004     156.6024  0.030706352  0.031533408            3 
  426000    1.1042884   -6.6956099    156.52112  0.030618372  0.031512387            3 
  427000    1.0757081   -6.7367898    156.17157  0.030478449  0.031491779            3 
  428000    1.0860135   -6.7505407    156.71412  0.030512874  0.031471132            5 
  429000    1.0568156    -6.701142    157.12781  0.030522107  0.031450276            4 
  430000    1.0942465   -6.7228944    157.34117  0.030492475  0.031429109            4 
  431000    1.1037599   -6.6936526    157.93522  0.030536586  0.031409015            5 
  432000    1.0834613   -6.7425729     158.4834  0.030571643   0.03138822            3 
  433000    1.0735599   -6.7503421    157.88487  0.030385849  0.031366872            2 
  434000    1.0691398   -6.7125691    158.62285  0.030457537  0.031346528            2 
  435000    1.0769692   -6.6951489    158.68201  0.030398852  0.031326009            6 
  436000    1.1023651   -6.7325975    158.78762  0.030349316   0.03130536            2 
  437000    1.0809605   -6.7496985    159.08483  0.030336543  0.031284055            5 
  438000    1.0879016   -6.7641912    159.37368  0.030322237  0.031263194            4 
  439000    1.0748845   -6.7267111    159.79006  0.030332206  0.031241996            3 
  440000     1.075541   -6.7196545    160.39041  0.030376971  0.031221357            6 
  441000    1.0702563    -6.732046    160.65657  0.030358384  0.031200964            7 
  442000     1.079738   -6.7296053    161.00435  0.030355269  0.031181048            3 
  443000     1.061712    -6.732763    161.31772  0.030345695  0.031160795            2 
  444000    1.0739873   -6.7606663    161.90457  0.030387495  0.031141278            4 
  445000    1.0837037   -6.7383027     162.4081  0.030413501  0.031121857            2 
  446000    1.0685714    -6.742264    162.12375  0.030292181  0.031101932            3 
  447000    1.0791828   -6.7365809     162.0418  0.030209135  0.031081753            4 
  448000    1.0655997   -6.7808314     162.1254  0.030157255  0.031061365            2 
  449000     1.089923   -6.7455359    162.32122  0.030126432  0.031040295            4 
  450000    1.0793753    -6.765535     162.7835  0.030145092  0.031018964            6 
  451000    1.0456102   -6.7493952    162.65998  0.030055429  0.030997282            2 
  452000    1.0711206    -6.745043      162.861  0.030025996  0.030976013            4 
  453000     1.068162   -6.7485221    162.83785  0.029955455  0.030953952            7 
  454000    1.0520558    -6.792147    163.34218  0.029982044  0.030932196            6 
  455000    1.0899892    -6.788701    163.79546  0.029999169  0.030909941            2 
  456000    1.0715207   -6.6983048    164.44949  0.030052904  0.030888866            3 
  457000    1.0785566   -6.7461974    164.44555  0.029986425  0.030867049            1 
  458000    1.0802575   -6.7229919    165.13734  0.030046823  0.030845545            3 
  459000    1.1087238   -6.7447922    164.54982  0.029874694  0.030824705            9 
  460000    1.0516229   -6.7132329    165.23695   0.02993423  0.030802547            3 
  461000    1.0656636   -6.7235474    165.32852  0.029885849  0.030780588            4 
  462000    1.0916928   -6.7475994    165.76846  0.029900516  0.030758811            4 
  463000    1.0562097   -6.7567139    165.21995  0.029737212  0.030736039           13 
  464000    1.0566189   -6.7852486     165.1755  0.029665141  0.030713077            4 
  465000    1.0646884   -6.7612688    165.89522  0.029730326  0.030691001            7 
  466000    1.0708503   -6.7773048    166.09639  0.029702501  0.030668924            4 
  467000    1.0720035   -6.7759994    166.40259  0.029693539  0.030646428            6 
  468000    1.0744712   -6.7830208    166.44191  0.029637092  0.030624235            4 
  469000    1.0787136   -6.7790944    167.15947  0.029701398  0.030602255            8 
  470000    1.0532484   -6.7549814    167.46732  0.029692788  0.030579761            6 
  471000    1.0377593   -6.7533795    167.99646  0.029723365  0.030558119            3 
  472000    1.0628326   -6.7785285    167.92984   0.02964863  0.030537241            3 
  473000    1.0730818   -6.7248125    168.46875  0.029680894  0.030516078            3 
  474000    1.0464307   -6.7454764    169.28578  0.029761916  0.030495751            2 
  475000     1.065224   -6.7735766    168.75314  0.029605814  0.030474937            3 
  476000    1.0679846   -6.7863629    169.07394  0.029599779  0.030453622            1 
  477000    1.0527534   -6.7876192    168.93924  0.029514194  0.030432469            6 
  478000    1.0581451   -6.7621733    169.84641  0.029610601  0.030411329            3 
  479000    1.0556795   -6.7652464    169.82957  0.029545853  0.030389474            2 
  480000    1.0685618   -6.8019645    169.74468  0.029469562  0.030368261            3 
  481000     1.057846    -6.771781    170.52294  0.029543129   0.03034762            4 
  482000    1.0721536   -6.8160611    170.15021  0.029417395  0.030326348            3 
  483000    1.0509036   -6.7769085    171.12625  0.029524889  0.030304959            3 
  484000    1.0566801   -6.7459607     171.8156  0.029582576  0.030284288            6 
  485000    1.0590535   -6.7998658    171.57839  0.029480823  0.030263673            4 
  486000    1.0873266   -6.7772349    171.74782  0.029449214  0.030243385            5 
  487000    1.0606086   -6.8053355    171.74247  0.029387828  0.030223264            4 
  488000    1.0493842   -6.7897181    172.23685  0.029412031  0.030202286            3 
  489000    1.0567891   -6.8143261    172.74628  0.029438698  0.030181444            4 
  490000    1.0743013   -6.7755424    173.61474  0.029526316  0.030160784            4 
  491000    1.0678613   -6.8127463    172.55529  0.029286369  0.030140052            4 
  492000    1.0594321   -6.7967935    173.36638  0.029364224  0.030119238            6 
  493000    1.0764505   -6.8057031    173.09241  0.029258352   0.03009835            3 
  494000    1.0806645   -6.8219498    173.25259  0.029226146  0.030077081            2 
  495000    1.0664729   -6.7969841    174.40424  0.029360984  0.030056399            3 
  496000    1.0629036   -6.7752409    173.99858  0.029233632  0.030035925            2 
  497000    1.0465952   -6.7702184    174.92161  0.029329579    0.0300145            3 
  498000    1.0558958   -6.7959946    174.54689   0.02920798  0.029993075            3 
  499000    1.0615642   -6.8046211    175.39521  0.029291118  0.029971887            3 
  500000    1.0393587    -6.800899     174.5279  0.029087983    0.0299511            3 
  501000    1.0584304   -6.7908264    175.38072  0.029171776  0.029929705           10 
  502000    1.0546057   -6.7853425    175.93662  0.029205946  0.029908344            5 
  503000    1.0818069   -6.8097043     175.8528  0.029133997  0.029887319            7 
  504000    1.0431974   -6.7844719    175.77159  0.029062762  0.029865853            4 
  505000     1.040896   -6.7998069    175.93557  0.029032272  0.029844535            5 
  506000    1.0858218   -6.8236183    175.81339  0.028954775  0.029822676            2 
  507000    1.0762062   -6.7868356    176.14376  0.028951966  0.029800991            4 
  508000    1.0602697    -6.792045    176.83196  0.029007867  0.029779032            6 
  509000    1.0566315   -6.8249258    176.30852  0.028865179  0.029757263            5 
  510000    1.0519963   -6.7819583    177.47689  0.028999492  0.029735715            5 
  511000    1.0745151   -6.8532666    176.85105   0.02884068  0.029713651            3 
  512000    1.0657342   -6.8289936    177.02997  0.028813471  0.029691765            5 
  513000    1.0388172   -6.8366365    178.40194  0.028980172  0.029669565            5 
  514000     1.040525   -6.8280108    177.74131  0.028816685  0.029647685            2 
  515000     1.042765   -6.8827844    177.42975  0.028710316  0.029625781            7 
  516000    1.0528264   -6.8462846    177.95275  0.028739139  0.029603613            3 
  517000    1.0413815    -6.806319    178.98476  0.028849897  0.029581271            2 
  518000    1.0266813   -6.8079319    179.27618  0.028841085  0.029559404            4 
  519000    1.0119801   -6.8134918    179.02388  0.028745003  0.029537807            3 
  520000    1.0245118   -6.8251677    179.55018  0.028774067  0.029516252            3 
  521000    1.0604681   -6.8447633    179.11655  0.028649481   0.02949412            5 
  522000    1.0562585   -6.8167964    179.75408  0.028696372  0.029472138            3 
  523000    1.0415667   -6.8394035    180.04151  0.028687302  0.029450419            3 
  524000    1.0598297   -6.8251485    179.95017  0.028618029  0.029427989            3 
  525000    1.0739717   -6.8399216    180.08866  0.028585501  0.029406292            2 
  526000    1.0465785   -6.8461928    180.71095  0.028629745   0.02938501            2 
  527000    1.0320436   -6.8528647    180.57879  0.028554521   0.02936346            5 
  528000    1.0432398   -6.8425279    181.03764  0.028572859  0.029342138            8 
  529000    1.0410464   -6.8302924    181.18191  0.028541574   0.02932079            3 
  530000    1.0396496   -6.8574089    181.81589  0.028587404  0.029299478            2 
  531000    1.0423115   -6.8373769    181.93546  0.028552332  0.029278508            4 
  532000    1.0584273   -6.8772814    182.32107  0.028559065  0.029257361            3 
  533000    1.0598063   -6.8048286    183.18182  0.028640059  0.029236671            2 
  534000    1.0274018   -6.8085017    183.19685  0.028588772  0.029216169            2 
  535000    1.0346276   -6.8395083    183.30747  0.028552566   0.02919563            4 
  536000    1.0310111   -6.8407558    183.49096  0.028527823  0.029174981            6 
  537000    1.0356731   -6.8183239     184.5203  0.028634435  0.029155005            2 
  538000    1.0452897   -6.8582814    184.15718  0.028524966  0.029135318            3 
  539000    1.0312724   -6.8386939    184.98403  0.028599881  0.029115675            9 
  540000    1.0262694   -6.8372789    185.15829   0.02857381  0.029096224            2 
  541000    1.0416568   -6.8164818     185.4161  0.028560705  0.029076642            3 
  542000    1.0372187   -6.8642176    185.68528  0.028549398   0.02905743            3 
  543000    1.0471667   -6.8785085    185.83265  0.028519437   0.02903782            3 
  544000    1.0440391   -6.9032168    185.52127  0.028419311  0.029018076            5 
  545000    1.0489371   -6.9006438    185.52875   0.02836831   0.02899793           10 
  546000    1.0376036   -6.8726035    185.90257  0.028373408  0.028977929            3 
  547000     1.039575   -6.8223726    186.53276  0.028417545  0.028957807            3 
  548000    1.0454101   -6.8346376    186.20703  0.028316154  0.028937908            3 
  549000    1.0387075    -6.838024    186.53995  0.028315111  0.028917864            6 
  550000    1.0318803   -6.7976782    186.72479  0.028291635  0.028897701            5 
  551000    1.0350025   -6.8541066    186.25442   0.02816915  0.028876819            4 
  552000    1.0380411   -6.8126557    187.38787  0.028289231  0.028856082            5 
  553000    1.0250499   -6.9006046    186.39246  0.028088074  0.028835169            3 
  554000    1.0283001   -6.8368889    187.50976  0.028205439  0.028813837            4 
  555000    1.0272793   -6.8446156    186.96187  0.028072353  0.028792705            4 
  556000      1.03722   -6.8548113    187.60849  0.028118779  0.028771625            5 
  557000    1.0081961   -6.8648152      187.502  0.028052364  0.028750889            5 
  558000    1.0081745   -6.8475751    187.88219   0.02805887   0.02873018            3 
  559000    1.0398215   -6.8992401    187.44643  0.027943713  0.028709321            2 
  560000    1.0215892   -6.8839354    188.36804  0.028030959  0.028688328            3 
  561000     1.041707   -6.8590478    189.17892  0.028101443  0.028667544            5 
  562000    1.0392576   -6.8456086    189.78374  0.028141124  0.028647458            2 
  563000     1.047288   -6.8642599    189.08265  0.027987366  0.028627621           11 
  564000    1.0184855   -6.8577559    189.06877  0.027935693  0.028607075            6 
  565000    1.0098856   -6.8214846    190.21146  0.028054787  0.028586779            6 
  566000    1.0251807   -6.8780124     189.5744  0.027911426  0.028566271            2 
  567000    1.0134552   -6.8768119    189.90451  0.027910716  0.028545723            6 
  568000    1.0287627   -6.8964483    189.62414  0.027820444  0.028524684            5 
  569000    1.0552991   -6.8526242    190.24239  0.027862096  0.028504007            6 
  570000    1.0062026    -6.866452    190.69703  0.027879682  0.028483263            3 
  571000    1.0325993   -6.9093808    190.36115  0.027781837  0.028462122            6 
  572000    1.0213435   -6.8563359    191.23116  0.027860018  0.028440976            6 
  573000    1.0018036   -6.8744071     190.4426  0.027696714  0.028420069            2 
  574000    1.0145151    -6.916281    190.82581  0.027704096  0.028399081            4 
  575000    1.0431859   -6.8713372    191.90291  0.027812016  0.028378311            5 
  576000    1.0261796   -6.9140776    191.01476  0.027635237  0.028357375            6 
  577000    1.0263164   -6.8975535    191.67758  0.027683071  0.028336256            2 
  578000     1.039469   -6.8622371    192.21194  0.027712217    0.0283153            2 
  579000    1.0085348   -6.8804129    192.70063   0.02773469  0.028294365            4 
  580000     1.012881    -6.902488    192.13488  0.027605586   0.02827336            2 
  581000    1.0183631   -6.9157088    192.49966  0.027610392  0.028252379           11 
  582000      1.01871   -6.8727224    192.98966  0.027633113  0.028231308            7 
  583000    1.0493363   -6.8875742    193.67757  0.027684043   0.02821069            4 
  584000    1.0145466   -6.9180955     192.8304  0.027515754  0.028190372            5 
  585000     1.033003   -6.9486967    193.43299  0.027554557    0.0281696            5 
  586000    1.0189368   -6.9017669    194.63706  0.027678763  0.028149538            5 
  587000    1.0262903   -6.9021933    194.80872   0.02765598   0.02812983            2 
  588000    1.0090665   -6.8633911    195.55488  0.027714695  0.028110122            7 
  589000    1.0336744    -6.967954    194.37877  0.027501241  0.028090361            3 
  590000     1.021202   -6.8798823    195.58834  0.027625472  0.028070618            2 
  591000    1.0215961   -6.9022741    195.70878  0.027595711  0.028051199            3 
  592000     1.019725    -6.889654    195.85789  0.027570086   0.02803204            4 
  593000    1.0346932   -6.8897245     196.2602  0.027580129  0.028012933            9 
  594000     0.998853   -6.8906225    196.53443   0.02757217  0.027993899            4 
  595000    1.0430343    -6.916299     196.1397  0.027470547  0.027974382            4 
  596000    1.0263955   -6.9338114    196.18253  0.027430443   0.02795504            4 
  597000    1.0260776   -6.9510318    196.59461  0.027442018  0.027935754            8 
  598000     1.015964   -6.9015701      196.819  0.027427396  0.027916137            2 
  599000    1.0038552   -6.9020663    197.41642  0.027464722  0.027896581            4 
  600000    1.0179696   -6.9209887    197.25164  0.027396061  0.027876681            5 
  601000    1.0310681   -6.8889758    197.40169  0.027371283  0.027857093            9 
  602000    1.0034549   -6.8913763    197.42472  0.027329004  0.027837616            8 
  603000    1.0169253   -6.8885585     197.8233  0.027338765   0.02781815            5 
  604000    1.0250348   -6.9199353    197.83069  0.027294521  0.027798475            3 
  605000    1.0212151   -6.9067556    198.32713  0.027317786  0.027778289            3 
  606000   0.99070206   -6.9230886    198.76063  0.027332319  0.027758647            7 
  607000    1.0400723   -6.9174711    198.14049  0.027202153  0.027738856            5 
  608000    1.0193324     -6.92087    198.65717  0.027228231  0.027718835            5 
  609000    1.0196555   -6.9296534    198.87026  0.027212679   0.02769929            7 
  610000   0.99836287   -6.9140828    198.78539  0.027156474  0.027679298            2 
  611000    1.0028953   -6.9221201     199.3826  0.027193481  0.027659108            3 
  612000    1.0071437   -6.9586902    198.33477  0.027006369  0.027638621            5 
  613000    1.0193492   -6.9220237    199.26916  0.027089337  0.027617997            3 
  614000    1.0129021   -6.9087798    199.43519  0.027067752  0.027597284            3 
  615000   0.98884108   -6.9424222     199.0075  0.026965786  0.027576384            4 
  616000    1.0014143   -6.9426157    199.54329  0.026994492  0.027556069            6 
  617000     1.002125    -6.917699    200.09472  0.027025218  0.027535866            7 
  618000    1.0193312   -6.8932545    200.55057  0.027042957  0.027515813            5 
  619000   0.99792229   -6.9027239    200.62544  0.027009349  0.027495328            2 
  620000    1.0036752    -6.912179    200.76848   0.02698501  0.027474876            3 
  621000    1.0133486   -6.9186291    201.42969  0.027030286  0.027454657            7 
  622000    1.0079291   -6.9621114    200.39978  0.026848846  0.027434598            3 
  623000    1.0271976   -6.9384453     201.1888  0.026911289  0.027413961            5 
  624000     1.004288   -6.9018377    201.68806  0.026934837  0.027393696            2 
  625000    1.0322153    -6.957932     201.2933  0.026839106  0.027373241            2 
  626000   0.98995471   -6.9325088    201.91839  0.026879445  0.027352518            6 
  627000    1.0105872   -6.9602556    201.12117  0.026730619  0.027331869            3 
  628000    1.0185563   -6.9431428     202.1084  0.026819056  0.027310892            4 
  629000    1.0379388   -6.8913579     202.5129  0.026830007  0.027290306            5 
  630000     1.018728   -6.9331549    202.75355  0.026819252  0.027269621            7 
  631000    1.0124361    -6.935638    202.77404  0.026779456  0.027249209            4 
  632000    1.0117188   -6.9557074    202.41921  0.026690297  0.027228468            4 
  633000    1.0026413   -6.9629958    202.41493  0.026647569  0.027207768            6 
  634000    1.0197383   -6.9105627    202.49069  0.026615495   0.02718733            6 
  635000   0.98058829   -6.9349042    203.59545  0.026718563  0.027166831            9 
  636000   0.97422834   -6.9534892    202.71194  0.026560789  0.027145812            4 
  637000   0.98707589   -6.9134017    203.39541  0.026608505   0.02712467            6 
  638000    1.0101635   -6.9607318    202.43457  0.026441297  0.027103513            4 
  639000   0.99339172   -6.9425451    202.86014  0.026455417  0.027082287            5 
  640000    1.0098041   -6.9501882    203.76076  0.026531349  0.027061326            3 
  641000   0.99300262   -7.0035918    203.07969  0.026401415  0.027040396            4 
  642000     1.008321   -6.9497563    204.02629  0.026483163   0.02701936            3 
  643000    0.9875775   -6.9556337    204.41824  0.026492774  0.026998599            6 
  644000     1.018878   -6.9898206    203.86202  0.026379661  0.026977792            4 
  645000    0.9840006   -6.9753993    204.96631  0.026481435  0.026956817            2 
  646000   0.99839215   -6.9605775    204.50063   0.02638037  0.026936447            5 
  647000   0.98780171   -6.9753936    205.37699  0.026452472  0.026915877            4 
  648000    1.0071526   -6.9356787    205.30834  0.026402821   0.02689511            5 
  649000   0.98034195   -6.9247093    205.37106  0.026370193  0.026874667            5 
  650000    1.0112248   -6.9615046    205.79132  0.026383502  0.026853879            6 
  651000    0.9990775   -6.9625202     205.5045   0.02630626  0.026833198            3 
  652000    1.0066883   -6.9625753    206.19836  0.026354596  0.026812593            5 
  653000   0.99267557   -6.9793068    205.84373  0.026268981  0.026791935            8 
  654000   0.99207827   -6.9923697    206.12178  0.026264243  0.026771466            5 
  655000   0.98579072   -6.9639821    207.09174  0.026347549  0.026751124            5 
  656000      0.99109   -7.0123089    206.28464  0.026204858  0.026730505            2 
  657000   0.99663532   -7.0025368    206.26907  0.026162998  0.026710122            7 
  658000   0.98761597   -6.9900154    206.89302  0.026202257  0.026689801            4 
  659000   0.98462603   -6.9782897    207.42442  0.026229694   0.02666974            7 
  660000   0.99771971    -6.967938     207.5483  0.026205593  0.026649577            4 
  661000    0.9871564   -6.9364773    208.69019  0.026309908  0.026629543            3 
  662000   0.95903001    -6.971673    208.49779  0.026245946  0.026609348            4 
  663000   0.96454909   -6.9766653    207.90514  0.026131868  0.026589287            3 
  664000   0.97931613   -6.9762469    208.58907  0.026178347  0.026569082            5 
  665000     1.008558   -6.9879961    208.59655  0.026139918   0.02654917            9 
  666000   0.99064148    -6.998196    208.82573  0.026129346  0.026529459            4 
  667000   0.98454088     -6.96165    209.52855   0.02617798  0.026509684            3 
  668000    1.0123689   -7.0316453    207.82978  0.025926869  0.026489791            4 
  669000   0.98671278   -7.0039081    209.25926  0.026066175  0.026470045            5 
  670000   0.97720527   -7.0267464    209.09275  0.026006561  0.026450791            5 
  671000    1.0043369   -6.9190235    210.37301  0.026126801   0.02643143            5 
  672000   0.97499826   -6.9896433    210.44352  0.026096667  0.026412536            3 
  673000   0.96014233   -6.9891908    210.51602  0.026066868  0.026393185            4 
  674000   0.98410297   -7.0251523    210.03106  0.025968232  0.026373848            3 
  675000   0.97967795   -7.0183941    210.94586  0.026042699  0.026354333            5 
  676000    1.0192676   -7.0056309    210.84559  0.025991814  0.026334774            6 
  677000   0.99982241   -6.9986002    210.57884  0.025920586  0.026315333            5 
  678000    1.0019341   -6.9888536    211.06111  0.025941631   0.02629609            3 
  679000     0.976742   -6.9561798    212.45058  0.026073954   0.02627723            6 
  680000   0.97350539    -6.972569    212.35381  0.026023752  0.026258285            4 
  681000   0.97930507   -7.0010697    212.07478  0.025951392  0.026239314            3 
  682000   0.97987945   -6.9959725    212.10856  0.025917468    0.0262202            3 
  683000   0.99376767   -6.9871663    212.45913  0.025922295  0.026200815            7 
  684000   0.99421228   -7.0319085    212.37019  0.025873562  0.026181555            3 
  685000   0.98444069   -7.0130462    212.59692  0.025863372  0.026162388            3 
  686000   0.99411578   -7.0276467    212.68582   0.02583647   0.02614328            8 
  687000   0.96680618   -6.9674239     213.0078  0.025837918  0.026124405            6 
  688000   0.96997718   -7.0241027    212.97591  0.025796501  0.026104988            3 
  689000   0.98069315   -7.0392098    212.17632  0.025662351  0.026085621            7 
  690000   0.98929602   -7.0487651     212.5722  0.025672971  0.026065886            6 
  691000   0.98424721   -6.9937127    214.10159   0.02582026  0.026046504            9 
  692000   0.96395579   -7.0511004    212.87796  0.025635593  0.026027294            4 
  693000   0.97882424   -7.0400919    213.44655  0.025666973  0.026008011            6 
  694000   0.98297799   -7.0293962     213.9788    0.0256939  0.025988907            6 
  695000   0.98273802   -6.9999168    214.48603  0.025717749  0.025969757            4 
  696000   0.98375551   -7.0400107    214.50782  0.025683408  0.025950937            4 
  697000   0.98781025   -7.0098026    214.81273  0.025683014  0.025931993           11 
  698000    0.9683804   -7.0226207    213.99288  0.025548339  0.025913002            4 
  699000   0.97535713    -6.991035    214.73252  0.025599966  0.025893915            8 
  700000   0.98246558   -7.0394753     215.2803  0.025628607  0.025874905            4 
  701000   0.97914293   -7.0180309    214.41519  0.025489205  0.025855669            8 
  702000   0.97054235   -7.0431322    214.94156   0.02551538  0.025836244            4 
  703000   0.97835325   -7.0614387    214.95072   0.02548017   0.02581727            4 
  704000    0.9660954   -7.0184083    215.59445  0.025520177  0.025798253            5 
  705000   0.98426613   -7.0384197     216.0169  0.025533912  0.025779634            4 
  706000    1.0009031   -7.0334172    215.90553    0.0254846  0.025761216            5 
  707000   0.94865173   -7.0287477    215.72324  0.025427067  0.025742477            5 
  708000   0.94992755   -7.0205096    217.11271  0.025554698  0.025723819           11 
  709000   0.97064322   -7.0300839     216.6124   0.02545985  0.025705149            5 
  710000   0.97278588   -7.0260721    216.27271  0.025384121  0.025686632            3 
  711000    0.9655181   -7.0408204    217.06366  0.025441123  0.025667979            8 
  712000   0.96931811   -7.0310641    217.08593  0.025407998  0.025649217            6 
  713000   0.98479833   -7.0512124    217.33101  0.025401006  0.025630527            7 
  714000   0.95835717   -7.0344389    217.56671   0.02539294  0.025612109            4 
  715000   0.96533447   -7.0611481    217.60538  0.025361932  0.025593578            5 
  716000   0.96314493   -7.0503233     217.2424  0.025284264  0.025575167            5 
  717000    0.9754041   -7.0221139    218.45211  0.025389599  0.025556751            9 
  718000   0.95319961    -7.065256    218.01921  0.025303994  0.025538278            5 
  719000   0.97269673   -7.0729825    218.00131  0.025266726   0.02551975            4 
  720000   0.97201447   -7.0455034    218.71793  0.025314575  0.025501732            7 
  721000   0.96947364   -7.0414856     218.9717  0.025308795  0.025483793           12 
  722000   0.96012264   -7.0453088    219.62505  0.025349152  0.025466115            6 
  723000   0.97757073   -7.0068611    220.20604  0.025381056  0.025448463            4 
  724000   0.95841543   -7.0128035    219.45235  0.025259249  0.025430881            9 
  725000   0.94109298   -7.0749142    219.66882  0.025249289  0.025413029            4 
  726000   0.96930448   -7.0579417    219.58538  0.025204934  0.025394889            8 
  727000   0.96978255   -7.0796237    219.51245  0.025161904  0.025376646            5 
  728000    0.9687262   -7.0443471    220.39941   0.02522887  0.025358405            5 
  729000    0.9549407   -7.0793552    219.69795  0.025114078  0.025340456            4 
  730000   0.97514461   -7.0268958    221.19534  0.025250609  0.025322668            6 
  731000   0.95778672   -7.0543373    221.18994  0.025215451  0.025304948            8 
  732000   0.94938813   -7.0439913    221.15898  0.025177479  0.025287399            5 
  733000   0.95807577   -7.0495299    221.04837  0.025130556  0.025269605            3 
  734000   0.96628596   -7.0568948    220.57982  0.025043123  0.025251558            5 
  735000   0.96315078   -7.0855276    220.85162  0.025039866  0.025233343            6 
  736000   0.96546694   -7.1118951    220.40587  0.024955374  0.025214927            3 
  737000   0.97313921   -7.0840261    220.56599  0.024939619  0.025196342            5 
  738000   0.96683542   -7.0648597    220.79155  0.024931296  0.025177708            3 
  739000   0.96413786    -7.009932    222.10233  0.025045369  0.025159359            4 
  740000   0.93728302   -7.0278093    221.79607  0.024977035   0.02514098            3 
  741000   0.94584245   -7.0809578    220.53824  0.024801871  0.025122505            5 
  742000   0.96511389   -7.0294587    221.75755  0.024905385  0.025103884           13 
  743000   0.98212061   -7.0441246    221.51025  0.024844128  0.025085402            6 
  744000   0.96655363   -7.0706382      221.677  0.024829413  0.025066701            6 
  745000   0.94929552   -7.0896827    221.75961  0.024805326  0.025047998            4 
  746000   0.96172058   -7.1087573    221.19326  0.024708809  0.025029232            8 
  747000   0.94107476   -7.1151666    221.53995  0.024714408  0.025010145            6 
  748000   0.94869803   -7.0876298    222.26665  0.024762328  0.024991191            2 
  749000    0.9507972   -7.0791735    222.18977  0.024720714  0.024972649            5 
  750000   0.92617197   -7.0616586    222.92211  0.024769123  0.024954193            6 
  751000   0.96195481   -7.0472193    223.29335  0.024777336  0.024935922            3 
  752000    0.9565606   -7.1052053    222.80666  0.024690454  0.024917488            5 
  753000   0.93769339   -7.1023773    223.20061  0.024701263  0.024898915            7 
  754000   0.93836878    -7.065635    223.38327  0.024688691  0.024880616            6 
  755000   0.97149438   -7.0771275    223.33572  0.024650742  0.024862256            9 
  756000    0.9389376   -7.0591374    223.99432  0.024690732  0.024844108            7 
  757000   0.94109901   -7.0650079    224.21628  0.024682549  0.024825914            9 
  758000   0.94827367   -7.0984785    224.36749   0.02466661  0.024807383            4 
  759000   0.94981423   -7.0984107    224.17624  0.024613113  0.024788829            6 
  760000   0.95847752   -7.1060388     224.0292  0.024564605  0.024770016            5 
  761000   0.95322048   -7.1025254    223.73933  0.024500584  0.024751417            3 
  762000   0.95608701   -7.1127236    224.02597  0.024499779  0.024732998            7 
  763000   0.96884187   -7.1000138    225.07296  0.024582018  0.024714368            3 
  764000   0.94702991   -7.1011687    225.01904  0.024543962    0.0246959            3 
  765000   0.96349214   -7.1093435    224.50863  0.024456277  0.024677747            7 
  766000   0.94393787    -7.103033    224.64524  0.024439212  0.024659342            4 
  767000    0.9562705    -7.067592    224.77844  0.024421821  0.024640649           10 
  768000   0.94998693   -7.1230236    224.13765  0.024320491  0.024621791            4 
  769000   0.96013079   -7.1235908    224.37653  0.024314752  0.024602845            3 
  770000   0.93617346   -7.1406787    224.94712  0.024344927  0.024583857            4 
  771000   0.94713872   -7.0937914    224.85387  0.024303272   0.02456501            3 
  772000   0.95627051   -7.0986808     224.7788  0.024263687  0.024545783           10 
  773000   0.94349085   -7.1530855    224.74614  0.024228777  0.024526628            5 
  774000    0.9592348   -7.1208889    225.33243  0.024260597  0.024507502            3 
  775000   0.94697039   -7.1214951    225.63198  0.024261504  0.024488321            6 
  776000   0.94299557   -7.0754494    225.67656  0.024235026  0.024469201            7 
  777000   0.92744046   -7.1444053    225.13256  0.024145492   0.02445005           14 
  778000   0.95860066    -7.133341    225.51202  0.024155101   0.02443071            4 
  779000   0.94458352   -7.0699918    225.95036  0.024170984  0.024411475           11 
  780000   0.93635215   -7.1090941    226.08461  0.024154339  0.024392627            5 
  781000   0.94191261    -7.093595    226.69365  0.024188397  0.024373749            3 
  782000   0.93080997   -7.1049931    227.13632  0.024204638  0.024355096            7 
  783000   0.93457165   -7.1205231    226.38694   0.02409397  0.024336357            9 
  784000   0.94362705   -7.0890812    227.02066  0.024130598  0.024317457            5 
  785000    0.9399753   -7.0927469    226.45633   0.02403995   0.02429861            5 
  786000   0.94456932   -7.1061004    226.82014  0.024047937  0.024279736            4 
  787000   0.94410507   -7.1076635    227.08062  0.024044962  0.024260904            7 
  788000   0.93713271   -7.0892025    227.27532  0.024035038  0.024242165            4 
  789000   0.92817788   -7.1215687    226.58699  0.023931875  0.024223125            5 
  790000   0.93337934   -7.1086139    227.09964  0.023955658  0.024204075           18 
  791000   0.93983655   -7.1642962    226.93653  0.023908189  0.024184967            5 
  792000   0.93993279   -7.1322906    227.17446  0.023903036  0.024165668           11 
  793000   0.93160371   -7.1626012    226.98108  0.023852572   0.02414635            4 
  794000   0.94345537   -7.1664515    227.22577  0.023848213  0.024127125            5 
  795000   0.94551102   -7.1240216     227.9525  0.023894392  0.024108143            5 
  796000   0.93869544   -7.1454055    227.38715  0.023805187  0.024089308            7 
  797000   0.93190643     -7.13783    227.50427  0.023787565  0.024070127            5 
  798000   0.94434175   -7.1487851    227.88609  0.023797628  0.024050867            4 
  799000   0.90551223   -7.1254709    228.03588  0.023783467  0.024031931            9 
  800000   0.93726656   -7.0943965    227.88865  0.023738401  0.024012933            5 
  801000   0.94261267   -7.1059889    228.65323   0.02378831  0.023993834            3 
  802000    0.9416598   -7.1448552    228.50856  0.023743616  0.023974815            8 
  803000   0.92767042   -7.1404942     228.7481  0.023738906   0.02395566            8 
  804000   0.94678444     -7.13777    228.82939  0.023717806  0.023936725            6 
  805000   0.93780124   -7.1970232    227.91506  0.023593692  0.023917278            3 
  806000   0.91390856   -7.1687689    228.02606  0.023575896  0.023897606            6 
  807000    0.9421843   -7.1587982    228.50101  0.023595726  0.023878264            6 
  808000    0.9401806   -7.1520553    228.42428   0.02355861  0.023858913            8 
[...]
 1800000   0.54138798    -8.302522    245.90575  0.011384525 0.0096774625         1177 
 1801000   0.52674432    -8.302746    246.23349  0.011393369 0.0096685808         1126 
 1802000   0.53675841   -8.3133209    246.12763  0.011382151 0.0096597128         1115 
 1803000   0.53102005   -8.3125306    245.79442  0.011360437 0.0096508592         1147 
 1804000   0.53560825   -8.3106558    245.73079  0.011351201 0.0096420124         1069 
 1805000   0.53037732    -8.304403    246.10475  0.011362177 0.0096331719         1122 
 1806000   0.54247813   -8.2917374    246.14678  0.011357825 0.0096243411         1145 
 1807000   0.53493833   -8.3097538    246.17433   0.01135281 0.0096155236         1134 
 1808000   0.52684966   -8.3188265      245.794  0.011329001 0.0096067121         1094 
 1809000   0.53397556   -8.3088593    245.92687  0.011328859 0.0095979074         1155 
 1810000   0.53298464    -8.310409    245.46615  0.011301388 0.0095891061         1181 
 1811000   0.53189061   -8.3097674    245.73608  0.011307569 0.0095803294         1170 
 1812000   0.54898394   -8.3099773    245.68669  0.011299057 0.0095715546         1131 
 1813000   0.53068189   -8.3052742    245.78811  0.011297486 0.0095627939         1114 
 1814000   0.52841363   -8.3108476    245.60451  0.011282824  0.009554054         1102 
 1815000   0.50975706   -8.3248018    245.49961  0.011271791 0.0095453151         1194 
 1816000   0.53069582   -8.3042352    245.88065   0.01128307 0.0095365851         1192 
 1817000   0.52582621     -8.30295    245.52432  0.011260517 0.0095278661         1175 
 1818000   0.53938216   -8.3102129    245.90653  0.011271843 0.0095191631         1175 
 1819000   0.50868355   -8.3089002    246.10505  0.011274741 0.0095104601         1032 
 1820000   0.53071708    -8.305122    245.67793  0.011248989 0.0095017729         1090 
 1821000   0.52326102   -8.3080615    245.83743  0.011250111 0.0094930938         1200 
 1822000   0.52652808   -8.3302481    245.23352  0.011216315 0.0094844211         1198 
 1823000   0.52087184    -8.309276    245.81493   0.01123674 0.0094757593         1168 
 1824000    0.5314806   -8.3209063    245.57185  0.011219474 0.0094671095         1105 
 1825000   0.52259507   -8.3272143    245.71246  0.011219747 0.0094584665         1173 
 1826000   0.52495148   -8.3146653    245.69497  0.011212804  0.009449829         1110 
 1827000   0.52648994   -8.3191215    245.51072  0.011198263 0.0094412037         1191 
 1828000   0.51850792    -8.308238    245.97285  0.011213204 0.0094325916         1136 
 1829000   0.51545247   -8.3131856    245.59808  0.011189998 0.0094239913         1235 
 1830000   0.52336151   -8.3097926    246.15941  0.011209445 0.0094153994         1084 
 1831000   0.51758569   -8.3280441    245.66513  0.011180827 0.0094068159         1077 
 1832000   0.51791613   -8.3240881    245.11607  0.011149748 0.0093982434         1172 
 1833000    0.5265655   -8.2997542    245.56836  0.011164228 0.0093896806         1204 
 1834000   0.51309312   -8.3323723    245.44518  0.011152544 0.0093811286         1200 
 1835000   0.51577246   -8.3209309    245.48595  0.011148317  0.009372586         1119 
 1836000   0.53180239   -8.3347066    245.99697   0.01116544 0.0093640555         1163 
 1837000   0.51405708   -8.3166903    245.84478  0.011152458 0.0093555366         1156 
 1838000   0.52547102   -8.3223465    245.74472  0.011141854 0.0093470227         1058 
 1839000   0.52378693   -8.3054787    246.10493  0.011152117 0.0093385346         1196 
 1840000   0.51218211   -8.3149869    245.60589  0.011123455 0.0093300427         1081 
 1841000   0.52192337     -8.32925    245.53646   0.01111427  0.009321564         1103 
 1842000   0.51653744   -8.3238905    245.37372  0.011100874 0.0093130867         1135 
 1843000   0.52007055   -8.3291392    245.74907  0.011111823 0.0093046262         1150 
 1844000   0.51573767   -8.3210396    245.56413  0.011097439 0.0092961758         1131 
 1845000   0.50590996   -8.3107247    245.57458  0.011091896  0.009287734         1114 
 1846000   0.51060869    -8.333355    245.24028  0.011070796 0.0092792999         1165 
 1847000   0.50612858   -8.3357932     245.5958  0.011080843 0.0092708917         1117 
 1848000   0.50832425   -8.3392452    245.44827  0.011068194 0.0092624871         1093 
 1849000   0.51154575   -8.3433633    245.43352  0.011061543 0.0092540833         1140 
 1850000   0.51444425   -8.3252555     245.0976  0.011040432 0.0092456982         1087 
 1851000   0.50396669   -8.3186295    245.59762  0.011056979 0.0092373224         1081 
 1852000   0.50971745   -8.3411895    245.04391  0.011026094 0.0092289428         1152 
 1853000   0.51728726   -8.3183847    245.31621  0.011032389 0.0092205815         1198 
 1854000   0.52041157   -8.3299706     245.7263  0.011044871 0.0092122228         1067 
 1855000   0.50790067   -8.3263621    245.58886  0.011032743 0.0092038715         1114 
 1856000   0.51383879   -8.3277131    245.62841  0.011028574 0.0091955374         1066 
 1857000   0.50444223   -8.3304019    246.01695  0.011040071 0.0091872042         1120 
 1858000   0.51448441    -8.327252    245.86182  0.011027172 0.0091788862          974 
 1859000   0.49637508   -8.3418346    245.69556  0.011013787 0.0091705795         1141 
 1860000   0.50912202   -8.3306554    245.32255  0.010991154 0.0091622806         1134 
 1861000   0.51778743   -8.3489591    245.60603  0.010997942 0.0091539869         1091 
 1862000   0.51067007   -8.3357801    245.78676  0.011000123 0.0091457016         1221 
 1863000   0.50401222   -8.3366075    245.61239  0.010986419 0.0091374311         1142 
 1864000   0.50713239   -8.3440181    245.17239  0.010960854 0.0091291798         1179 
 1865000   0.50783142   -8.3347326     245.7272  0.010979768 0.0091209287         1190 
 1866000   0.50210273   -8.3526143    245.09919  0.010945837 0.0091126876         1131 
 1867000   0.49537151   -8.3405674    245.72423  0.010967873 0.0091044485         1144 
 1868000   0.51575324   -8.3269424    245.54145  0.010953848 0.0090962331         1157 
 1869000   0.50334552   -8.3219649     245.5388  0.010947869 0.0090880175         1126 
 1870000    0.5216631   -8.3395274    245.26634  0.010929872  0.009079812         1142 
 1871000   0.50103523    -8.345801    245.11062  0.010917095 0.0090716132         1116 
 1872000   0.50886676    -8.344126     245.2089  0.010915638 0.0090634215         1151 
 1873000   0.50647516   -8.3585456     245.1621  0.010907728 0.0090552563         1069 
 1874000   0.50214864   -8.3525808    245.31982  0.010908921 0.0090470914         1140 
 1875000   0.51560354   -8.3510249    245.37144  0.010905398 0.0090389514         1151 
 1876000   0.50106058   -8.3381865    245.17209  0.010890729 0.0090308122         1035 
 1877000   0.50623598   -8.3557016    245.04164  0.010879135 0.0090226767         1100 
 1878000   0.50065694   -8.3365202     245.3888  0.010888747 0.0090145493         1079 
 1879000   0.50625117   -8.3630171    245.34375  0.010880954 0.0090064367         1114 
 1880000   0.49458708   -8.3389725    245.43354  0.010879146 0.0089983388         1114 
 1881000   0.48950949   -8.3485594    244.90837  0.010850096 0.0089902575         1094 
 1882000    0.5060643   -8.3572032     245.2647  0.010860109 0.0089821743         1124 
 1883000   0.51227919   -8.3280555    245.55828  0.010867334 0.0089740992         1166 
 1884000   0.51141431   -8.3656633    244.79128   0.01082764 0.0089660344         1156 
 1885000   0.51018143   -8.3587539     245.2899  0.010843939 0.0089579704         1125 
 1886000   0.50638233   -8.3540411    245.48678  0.010846889 0.0089499162         1118 
 1887000    0.4957957   -8.3579365    245.43879  0.010839021 0.0089418849         1104 
 1888000   0.49998696   -8.3511494    244.92046  0.010810402 0.0089338647         1077 
 1889000   0.49255469   -8.3372334    245.08633  0.010811996 0.0089258405         1107 
 1890000   0.50143432   -8.3590859    245.13831  0.010808568 0.0089178353         1107 
 1891000    0.5006004   -8.3650043    244.95201  0.010794642  0.008909834         1092 
 1892000    0.5029275   -8.3616987    245.47508  0.010811975 0.0089018352         1144 
 1893000   0.49371185   -8.3642375    245.04012  0.010787116 0.0088938432         1027 
 1894000   0.49436783     -8.36333    244.99542  0.010779453 0.0088858571         1063 
 1895000   0.48846102    -8.358391     245.5029  0.010796082 0.0088778848         1201 
 1896000   0.50040441   -8.3661092    245.27863   0.01078053  0.008869923         1044 
 1897000   0.50225771   -8.3634987    245.26416  0.010774212 0.0088619666         1116 
 1898000   0.50334076   -8.3567635    245.16909  0.010764361 0.0088540167         1065 
 1899000   0.49507224   -8.3414735    244.62998  0.010735035 0.0088460886         1262 
 1900000   0.48387624   -8.3523199    245.28017  0.010757902 0.0088381709         1060 
 1901000    0.4948051   -8.3556349    245.19067   0.01074832 0.0088302621         1049 
 1902000   0.49957927   -8.3772173    245.12723  0.010739889 0.0088223501         1114 
 1903000   0.48001361   -8.3789701    244.97918  0.010727762 0.0088144534         1157 
 1904000   0.48217445   -8.3569096    245.41203  0.010741073  0.008806569         1077 
 1905000   0.48655712   -8.3751659    245.01811  0.010718202 0.0087986937         1097 
 1906000   0.48428777   -8.3853291    244.92029  0.010708302 0.0087908226         1085 
 1907000   0.49234915   -8.3696494    245.13905  0.010712247 0.0087829715         1044 
 1908000   0.49339686    -8.367955    245.08945  0.010704466 0.0087751162         1029 
 1909000   0.49404826   -8.3666082    244.87631  0.010689554 0.0087672724         1134 
 1910000   0.48765842   -8.3633626    244.75791  0.010678792 0.0087594411         1021 
 1911000   0.49056242   -8.3683721    245.01214   0.01068429  0.008751623         1173 
 1912000   0.49320139   -8.3774521    245.35285  0.010693552 0.0087438044         1010 
 1913000   0.49151766   -8.3663532    245.27013  0.010684358 0.0087360066         1113 
 1914000   0.48463583   -8.3668898     244.8402  0.010660058 0.0087282067         1163 
 1915000    0.4851494   -8.3599921    245.03969  0.010663172 0.0087204159         1163 
 1916000   0.49030265   -8.3656698    244.77737  0.010646197   0.00871263         1098 
 1917000   0.48001846   -8.3806713    244.93895  0.010647668 0.0087048613         1161 
 1918000   0.48444181   -8.3683442    245.26698  0.010656369 0.0086970962         1214 
 1919000   0.49065123   -8.3611185     245.2137  0.010648502 0.0086893401         1150 
 1920000   0.48963894   -8.3955498    244.56033  0.010614597 0.0086816051         1130 
 1921000    0.4871425   -8.3854283    244.99399  0.010627884 0.0086738777         1147 
 1922000   0.49249252   -8.3728465    244.59866  0.010605214 0.0086661543         1184 
 1923000   0.48618756   -8.3785903    244.57818  0.010598812 0.0086584392         1146 
 1924000   0.48032105   -8.3841624    244.96793  0.010610184 0.0086507402         1163 
 1925000    0.4867961   -8.3785009    244.90823  0.010602088 0.0086430451         1146 
 1926000   0.49346414   -8.3771974    244.79779  0.010591805 0.0086353539         1153 
 1927000   0.47721563   -8.3757507    245.01281  0.010595607 0.0086276769         1158 
 1928000   0.47358685   -8.3901691    245.15285  0.010596164 0.0086200054         1124 
 1929000    0.4828446    -8.354983    245.19824  0.010592632 0.0086123393         1077 
 1930000   0.48159341   -8.3870279     244.5059   0.01055725  0.008604687         1138 
 1931000   0.48668143   -8.3883193    245.14201  0.010579234  0.008597043         1105 
 1932000   0.49135002   -8.3801863    244.94661   0.01056533 0.0085894124         1088 
 1933000   0.47190428   -8.3876283    244.85269  0.010555815 0.0085817848         1153 
 1934000   0.49273595    -8.396103    244.86008  0.010550676 0.0085741695         1186 
 1935000   0.47770322   -8.3841798    244.95379  0.010549259 0.0085665557         1135 
 1936000   0.47586693    -8.379285    245.03892  0.010547474 0.0085589553         1139 
 1937000   0.46628869   -8.3819797    245.02266  0.010541329 0.0085513664         1158 
 1938000   0.49644592   -8.4077759     244.5286  0.010514646 0.0085437842         1232 
 1939000   0.47751002   -8.3747352    244.86489  0.010523676 0.0085362082         1107 
 1940000   0.47924672   -8.3743267    245.15635  0.010530771 0.0085286427         1143 
 1941000    0.4681445   -8.3860214    245.06605  0.010521469 0.0085210899         1156 
 1942000   0.48012142    -8.406059    244.72322   0.01050134 0.0085135465         1108 
 1943000   0.47827712   -8.3989792    244.47794  0.010485415 0.0085060024         1161 
 1944000   0.48776251    -8.364857    244.92456  0.010499167 0.0084984741         1147 
 1945000   0.48991404   -8.3805558    244.91296  0.010493271 0.0084909654         1128 
 1946000   0.47018366   -8.3751423    244.66464  0.010477246 0.0084834582         1157 
 1947000    0.4774829   -8.4049126    244.71979  0.010474225 0.0084759489         1170 
 1948000   0.47461634   -8.3847903    244.64862  0.010465803  0.008468459         1101 
 1949000   0.47508594   -8.3976195    244.76667  0.010465481 0.0084609795         1093 
 1950000   0.47283427   -8.3958808    244.48463  0.010448061 0.0084535045         1150 
 1951000   0.47705889   -8.3940781    244.56044  0.010445944 0.0084460372         1156 
 1952000   0.46583739    -8.387796    244.72285  0.010447526 0.0084385826         1142 
 1953000   0.46812596   -8.3894008    244.58736  0.010436395 0.0084311282         1047 
 1954000   0.47931529    -8.399506    244.39009  0.010422641 0.0084236785         1212 
 1955000    0.4815464   -8.3877442    244.86289  0.010437463 0.0084162535         1199 
 1956000    0.4689155   -8.3778929    244.90024  0.010433718 0.0084088315         1127 
 1957000   0.47583476   -8.3905775    244.89177  0.010428026 0.0084014164          997 
 1958000   0.46676749    -8.397397    244.45861  0.010404265 0.0083940136         1090 
 1959000   0.45954194   -8.3936545     244.7054  0.010409452 0.0083866128         1172 
 1960000   0.46586328   -8.4167004    244.60465  0.010399858  0.008379225         1156 
 1961000   0.47719045   -8.4119806    244.61468  0.010394981 0.0083718391         1166 
 1962000   0.47126288   -8.4064795    244.89896  0.010401757 0.0083644622         1201 
 1963000   0.46393797   -8.3911027    244.93092  0.010397814 0.0083570964         1086 
 1964000   0.46431188   -8.3750988    244.86871  0.010389881 0.0083497375         1124 
 1965000   0.46968965   -8.4041185    244.67829  0.010376518 0.0083423849         1078 
 1966000   0.47353652   -8.3989297    244.42783  0.010360624 0.0083350444         1133 
 1967000   0.46732169   -8.4023478     244.3179  0.010350699 0.0083277101         1197 
 1968000   0.46966541   -8.4084111    244.58409  0.010356711 0.0083203842         1122 
 1969000    0.4727793   -8.4126952    244.39597  0.010343489 0.0083130687         1077 
 1970000   0.46171714   -8.3943492    244.59714  0.010346749 0.0083057552         1121 
 1971000   0.46272435   -8.4025686    244.73191  0.010347197 0.0082984564         1092 
 1972000   0.46408499   -8.3943214    244.70181  0.010340678 0.0082911626         1142 
 1973000   0.46773589   -8.4161271    244.31315  0.010319021 0.0082838754         1240 
 1974000   0.46275908   -8.4147487    244.90824  0.010338916 0.0082765993         1092 
 1975000    0.4552204   -8.4002464    244.78069  0.010328299 0.0082693269         1192 
 1976000   0.47048919   -8.4173498    244.64702  0.010317435 0.0082620653         1208 
 1977000   0.46277261   -8.4096216    244.36934  0.010300512 0.0082548156         1127 
 1978000   0.45936677   -8.4141556    244.46016   0.01029913 0.0082475827         1140 
 1979000   0.45729485   -8.4087764    244.56334  0.010298271 0.0082403476         1177 
 1980000   0.46501113   -8.4209766    244.65583  0.010296963 0.0082331276         1204 
 1981000   0.44685679   -8.4117816    244.42635  0.010282111 0.0082259086         1197 
 1982000   0.46295689   -8.4129372    244.83676  0.010294179 0.0082187017         1128 
 1983000   0.46232245   -8.4114326    244.78369  0.010286758 0.0082115018         1193 
 1984000   0.46199704   -8.4263447    244.37146  0.010264258 0.0082043093         1213 
 1985000   0.47108625   -8.4059708    244.28335  0.010255388 0.0081971264         1142 
 1986000   0.45793459   -8.4171155    244.41186  0.010255617 0.0081899524         1121 
 1987000   0.46593389   -8.4244171    243.94827  0.010231013 0.0081827866         1075 
 1988000   0.45312421   -8.4196103    244.52146  0.010249893 0.0081756181         1095 
 1989000   0.45654662    -8.411739    244.48581  0.010243247 0.0081684678         1112 
 1990000   0.44570356   -8.4189007    244.47255  0.010237544 0.0081613208         1104 
 1991000   0.47201891   -8.4086546     244.8104  0.010246543 0.0081541845         1148 
 1992000   0.45983692   -8.4071825    244.32088   0.01022092 0.0081470574         1142 
 1993000   0.44460021   -8.4288086    244.36401  0.010217595  0.008139935         1138 
 1994000   0.45438036   -8.4245427    244.08344  0.010200746 0.0081328137         1104 
 1995000   0.45923728   -8.4139586    244.29687  0.010204547 0.0081257081         1160 
 1996000   0.46022862   -8.4196448     244.1682  0.010194063  0.008118615         1160 
 1997000   0.45925551     -8.42079    244.64835  0.010208995 0.0081115298         1190 
 1998000   0.46513534   -8.4224578    244.35518  0.010191658 0.0081044568         1191 
 1999000   0.46243841   -8.4248769    244.48504  0.010191973 0.0080973846         1201 
 2000000   0.45272581    -8.434949    244.13835  0.010172431 0.0080903248         1211 
 2001000   0.44618067   -8.4268843    244.20988  0.010170326 0.0080832654         1147 
 2002000   0.46050514   -8.4197949     244.1811  0.010164049 0.0080762145         1117 
 2003000   0.44640605   -8.4285153    244.27994  0.010163086 0.0080691797         1136 
 2004000   0.45087017   -8.4216876    243.99441  0.010146141  0.008062145         1142 
 2005000   0.44757288    -8.409024    244.39833  0.010157869 0.0080551202         1142 
 2006000   0.44849573   -8.4198228    244.29299  0.010148429 0.0080481004         1194 
 2007000    0.4593638   -8.4385757     244.0265  0.010132308   0.00804109         1171 
 2008000   0.45128388   -8.4445908    244.47035  0.010145682  0.008034086         1196 
 2009000   0.45261194   -8.4159203     244.4534  0.010139929 0.0080270948         1143 
 2010000   0.45209203   -8.4314803     244.4322  0.010134005 0.0080201097         1171 
 2011000   0.45775644   -8.4221517    244.25311  0.010121545 0.0080131258         1112 
 2012000   0.44916071   -8.4268011    243.88584  0.010101302 0.0080061602         1138 
Loop time of 5210.49 on 48 procs for 2000000 steps with 4000 atoms

Performance: 66327.718 tau/day, 383.841 timesteps/s
99.4% CPU use with 48 MPI tasks x no OpenMP threads

MPI task timing breakdown:
Section |  min time  |  avg time  |  max time  |%varavg| %total
---------------------------------------------------------------
Pair    | 377.33     | 403.14     | 423.89     |  63.2 |  7.74
Neigh   | 37.038     | 38.346     | 40.13      |  11.1 |  0.74
Comm    | 338.79     | 360.58     | 384.96     |  62.0 |  6.92
Output  | 5.2742     | 5.2761     | 5.3201     |   0.3 |  0.10
Modify  | 4341.1     | 4354.3     | 4373.1     |  12.0 | 83.57
Other   |            | 48.84      |            |       |  0.94

Nlocal:        83.3333 ave          88 max          77 min
Histogram: 2 1 5 3 6 6 8 7 5 5
Nghost:        2430.71 ave        2443 max        2416 min
Histogram: 3 1 3 5 10 8 5 3 7 3
Neighs:        16911.2 ave       19671 max       14727 min
Histogram: 5 4 5 9 4 5 9 4 2 1
FullNghs:      33788.8 ave       36110 max       31187 min
Histogram: 2 3 4 6 2 12 10 2 4 3

Total # of neighbors = 1621861
Ave neighs/atom = 405.46525
Neighbor list builds = 106589
Dangerous builds = 0

#clear
#
#next RN
#
#jump SELF
Total wall time: 1:26:54
