
units lj                  # Use reduced LJ style units
atom_style atomic         # Uncharged point particles
atom_modify map hash      # Needed for indexing of clusters etc
                          # Used to be able to find where atoms are in relation to each other.

lattice fcc 1.0 spacing 1 1 1
Lattice spacing in x,y,z = 1.5874011 1.5874011 1.5874011
region box block 0 10 0 10 0 10 units lattice
create_box 2 box
Created orthogonal box = (0.0000000 0.0000000 0.0000000) to (15.874011 15.874011 15.874011)
  3 by 4 by 4 MPI processor grid
create_atoms 1 box
Created 4000 atoms
  using lattice units in orthogonal box = (0.0000000 0.0000000 0.0000000) to (15.874011 15.874011 15.874011)
  create_atoms CPU = 0.017 seconds
set type 1 type/fraction 2 0.65 78393
Setting atom values ...
  2613 settings made for type/fraction
mass 1 1.0
mass 2 1.0
pair_style lj/cut  3.5
pair_modify tail  yes
pair_coeff 1  1  1.0  1.0   # Intearaction between 1 and 1 set with epsilon = 1 and sigma = 1
pair_coeff 1  2  1.5  0.8
pair_coeff 2  2  0.5  0.88

write_data data.0
System init for write_data ...
Neighbor list info ...
  update every 1 steps, delay 10 steps, check yes
  max neighbors/atom: 2000, page size: 100000
  master list distance cutoff = 3.8
  ghost atom cutoff = 3.8
  binsize = 1.9, bins = 9 9 9
  1 neighbor lists, perpetual/occasional/extra = 1 0 0
  (1) pair lj/cut, perpetual
      attributes: half, newton on
      pair build: half/bin/atomonly/newton
      stencil: half/bin/3d
      bin: standard
WARNING: Not all mixed pair coeffs generated from mixing. Use write_data with 'pair ij' option to store all pair coeffs. (../write_data.cpp:312)


#############################
#   M E L T   S Y S T E M   #
#############################

velocity all create 2.4 2750902 mom yes dist gaussian # Assign velocities
                                                    # Temperature 2.4, random number seed, zero linear momentum
                                                                                # Gaussian distribution

timestep 0.002   # simulation timestep
thermo 1000       # output thermodynamic data every 1000 steps bf 100

# Define a fix  in this case with index 1 applied to all
# particles in the simulation. This fix is for simulations
# in the anisotropic NPT ensemble. Note that we use the MTK
# correction.
fix 1 all npt temp 2.4 2.4 0.1 iso 5.68 5.68 0.5 mtk yes tchain 5 pchain 5 # Use NPT ensemble
                                                                         # Set temperature and pressure and damping
                                                                         # Numbers of thermostats in chain and in barostat
run 10000          # run for 10000 steps
Per MPI rank memory allocation (min/avg/max) = 3.642 | 3.644 | 3.648 Mbytes
Step Temp E_pair E_mol TotEng Press Volume 
       0          2.4   -4.4517567            0  -0.85265669   -3.9326408         4000 
    1000    2.3955596   -4.1389625            0  -0.54652138    5.8780459    3611.2873 
    2000    2.3777648   -4.1903966            0  -0.62464108    5.5110272    3617.2323 
    3000    2.4182426   -4.1723105            0  -0.54585343     5.671265    3625.2921 
    4000    2.3994883   -4.1251581            0  -0.52682545    5.6433375    3639.3941 
    5000    2.3755914   -4.1171082            0  -0.55461194    5.7417875     3642.972 
    6000    2.5095717   -4.1341318            0  -0.37071528    5.7785685    3629.8587 
    7000    2.3879635   -4.1897767            0  -0.60872686    5.8822508    3594.8146 
    8000    2.3868225   -4.1671698            0  -0.58783107    5.8020751    3612.9981 
    9000    2.4120259   -4.2350882            0  -0.61795385    5.9516004    3569.4027 
   10000    2.4208212   -4.2038975            0  -0.57357352    5.6478235    3598.7446 
Loop time of 2.66594 on 48 procs for 10000 steps with 4000 atoms

Performance: 648175.762 tau/day, 3751.017 timesteps/s
99.6% CPU use with 48 MPI tasks x no OpenMP threads

MPI task timing breakdown:
Section |  min time  |  avg time  |  max time  |%varavg| %total
---------------------------------------------------------------
Pair    | 1.2101     | 1.2821     | 1.3608     |   3.1 | 48.09
Neigh   | 0.21844    | 0.22625    | 0.23744    |   0.9 |  8.49
Comm    | 0.79796    | 0.89785    | 0.9795     |   4.4 | 33.68
Output  | 0.00025568 | 0.00026154 | 0.00032437 |   0.0 |  0.01
Modify  | 0.22431    | 0.2439     | 0.27396    |   2.8 |  9.15
Other   |            | 0.01562    |            |       |  0.59

Nlocal:        83.3333 ave          94 max          73 min
Histogram: 4 0 7 4 10 6 10 4 1 2
Nghost:        1764.04 ave        1806 max        1726 min
Histogram: 2 5 7 8 3 4 9 5 4 1
Neighs:        10613.7 ave       12353 max        9106 min
Histogram: 3 6 2 5 8 12 5 5 1 1

Total # of neighbors = 509456
Ave neighs/atom = 127.36400
Neighbor list builds = 909
Dangerous builds = 240

# Equilibrate just above the melting temperature to avoid step fn in T

fix 1 all npt temp 1.25 1.25 0.1 iso 5.68 5.68 0.5 mtk yes tchain 5 pchain 5
run 2000
Per MPI rank memory allocation (min/avg/max) = 3.644 | 3.646 | 3.650 Mbytes
Step Temp E_pair E_mol TotEng Press Volume 
   10000    2.4208212   -4.2038975            0  -0.57357352    5.6478235    3598.7446 
   11000    1.2476456    -6.107154            0   -4.2361535    5.5430797     2775.401 
   12000    1.2305569   -6.1962744            0   -4.3509005    5.1826714    2760.1216 
Loop time of 0.664895 on 48 procs for 2000 steps with 4000 atoms

Performance: 519781.310 tau/day, 3007.994 timesteps/s
99.6% CPU use with 48 MPI tasks x no OpenMP threads

MPI task timing breakdown:
Section |  min time  |  avg time  |  max time  |%varavg| %total
---------------------------------------------------------------
Pair    | 0.30855    | 0.32841    | 0.36091    |   1.9 | 49.39
Neigh   | 0.041809   | 0.044111   | 0.04725    |   0.4 |  6.63
Comm    | 0.20593    | 0.24201    | 0.26732    |   2.6 | 36.40
Output  | 5.2654e-05 | 5.3719e-05 | 6.9906e-05 |   0.0 |  0.01
Modify  | 0.040634   | 0.045282   | 0.049672   |   1.3 |  6.81
Other   |            | 0.005026   |            |       |  0.76

Nlocal:        83.3333 ave          92 max          74 min
Histogram: 1 1 4 6 10 11 4 7 3 1
Nghost:        2123.46 ave        2154 max        2097 min
Histogram: 2 2 7 7 8 10 5 5 1 1
Neighs:        13833.2 ave       15889 max       11756 min
Histogram: 1 1 2 11 11 10 6 4 0 2

Total # of neighbors = 663995
Ave neighs/atom = 165.99875
Neighbor list builds = 143
Dangerous builds = 7

#############################
# L I N E A R  Q U E N C H  #
#############################

# Define solid atoms. This closely follows ten Wolde  Ruiz-Montero and Frenkel  Faraday Discuss  1996  104  93-110
# Compute components of the per-atom q6 vector
compute q6 all orientorder/atom degrees 1 6 components 6 nnn NULL cutoff 1.3 # compute the Q6 parameter.
                                                                             # Use all neighbours within 1.3 unit cell.

# get number of connections
compute coord_number all coord/atom orientorder q6 0.5

# An atom is solid if it has 8 or more connections (of a possible 14)
variable is_solid atom c_coord_number>=8
group solid dynamic all var is_solid    # Must be dynamic to update
dynamic group solid defined

# do clustering
compute cluster solid cluster/atom 1.3 # Create a cluster where all atoms within are solid and max 1.3 units from another member

# define chunks one chunk per cluster
compute clus_chunks solid chunk/atom c_cluster nchunk every compress yes  # Says which atoms are in which chunk

# count the size of each chunk
compute size_chunks solid property/chunk clus_chunks count


# Find the maximum entry in the vector of chunk sizes
variable max_n equal max(c_size_chunks)


# Thermo style which includes this variable
# thermo_style custom step temp pe vol v_max_n

thermo ${N}  # Print the thermo information every 100 steps
thermo 1000  

# Reset the npt fix at a lower temperature (below freezing)
fix 1  all npt temp  ${temp} ${temp}  0.1  iso  5.68  5.68  0.5  mtk yes tchain  5  pchain  5
fix 1  all npt temp  0.45 ${temp}  0.1  iso  5.68  5.68  0.5  mtk yes tchain  5  pchain  5
fix 1  all npt temp  0.45 0.45  0.1  iso  5.68  5.68  0.5  mtk yes tchain  5  pchain  5

dump dmp2 all dcd ${N} traj.dcd
dump dmp2 all dcd 1000 traj.dcd


compute msd all msd com yes
variable twopoint equal c_msd[4]/6/(step*dt+1.0e-6)
fix 9 all vector 10 c_msd[4]
variable fit equal slope(f_9)/6/(10*dt)
thermo_style custom step temp pe c_msd[4] v_twopoint v_fit v_max_n

fix 1 all npt temp 1.25 ${temp} 0.1 iso 5.68 5.68 0.5 mtk yes tchain 5 pchain 5
fix 1 all npt temp 1.25 0.45 0.1 iso 5.68 5.68 0.5 mtk yes tchain 5 pchain 5
run 2000000 # 5000000  # Run for this many steps
Neighbor list info ...
  update every 1 steps, delay 10 steps, check yes
  max neighbors/atom: 2000, page size: 100000
  master list distance cutoff = 3.8
  ghost atom cutoff = 3.8
  binsize = 1.9, bins = 8 8 8
  4 neighbor lists, perpetual/occasional/extra = 1 3 0
  (1) pair lj/cut, perpetual
      attributes: half, newton on
      pair build: half/bin/atomonly/newton
      stencil: half/bin/3d
      bin: standard
  (2) compute orientorder/atom, occasional
      attributes: full, newton on
      pair build: full/bin/atomonly
      stencil: full/bin/3d
      bin: standard
  (3) compute coord/atom, occasional
      attributes: full, newton on
      pair build: full/bin/atomonly
      stencil: full/bin/3d
      bin: standard
  (4) compute cluster/atom, occasional
      attributes: full, newton on
      pair build: full/bin/atomonly
      stencil: full/bin/3d
      bin: standard
Per MPI rank memory allocation (min/avg/max) = 9.848 | 9.853 | 9.858 Mbytes
Step Temp PotEng c_msd[4] v_twopoint v_fit v_max_n 
   12000    1.2305569   -6.1962744            0            0 8.3333333e+20            1 
   13000    1.2596327   -6.2170973   0.54447324  0.003490213  0.045134272            7 
   14000    1.2511191   -6.1562961    1.0232621 0.0060908456  0.041814822            3 
   15000    1.2440608   -6.1999814    1.5159341 0.0084218556  0.041522988            2 
   16000      1.23194   -6.1830509    2.0242606  0.010543024  0.041771164            2 
   17000     1.240612   -6.2194588    2.4658597  0.012087547  0.041160937            1 
   18000    1.2456578   -6.2290215    2.9487072  0.013651422  0.040530607            2 
   19000    1.2674617   -6.2144201    3.3860858  0.014851253  0.040003382            3 
   20000    1.2444605   -6.1777867    3.8572885  0.016072035  0.039686019            2 
   21000    1.2240871   -6.2684717    4.2949807  0.017043574  0.039441361            2 
   22000     1.252857   -6.2271182    4.7830116  0.018117468  0.039338407            3 
   23000    1.2369071   -6.1982175    5.2362106  0.018971777  0.039170052            3 
   24000    1.2548838   -6.2057249    5.7636365  0.020012626  0.039160661            2 
   25000    1.2423601   -6.2037084    6.3288734  0.021096244  0.039349913            2 
   26000    1.2534186    -6.208391    6.8380977   0.02191698  0.039617279            3 
   27000    1.2232618   -6.2183221    7.3297622  0.022622722  0.039794049            3 
   28000    1.2638887   -6.2404635     7.863882   0.02340441  0.040069837            4 
   29000    1.2139505   -6.2763911     8.356808  0.024013816  0.040325497            2 
   30000    1.2481559   -6.2302979    8.9809551  0.024947097  0.040591708            2 
   31000    1.2444692   -6.2275937    9.4669929  0.025448905  0.040824992            2 
   32000    1.2264016   -6.2176693    10.025276  0.026107488  0.041045729            3 
   33000    1.2606932   -6.2300975    10.522022  0.026570762  0.041274778            2 
   34000    1.2419722   -6.1933708    11.035141  0.027046914   0.04147985            4 
   35000    1.2257793   -6.1838653    11.629644  0.027689627  0.041689272            2 
   36000    1.2420578   -6.2154212    12.051065  0.027895983  0.041787867            3 
   37000    1.2528394   -6.2583657    12.412016   0.02795499  0.041813612            2 
   38000    1.2671259   -6.1470026    12.901529  0.028292826  0.041787208            3 
   39000    1.2677089   -6.2110054    13.356979  0.028540553   0.04173262            6 
   40000    1.2308323    -6.218872    13.894894  0.028947695  0.041677348            5 
   41000    1.2213831   -6.1918994    14.448248  0.029366357  0.041678141            3 
   42000    1.2121941   -6.2174024    15.026248  0.029813983  0.041693754            2 
   43000    1.2308665   -6.1946424    15.416323  0.029876595  0.041699949            3 
   44000    1.2349304   -6.2016038    15.893607  0.030101528  0.041682554            3 
   45000    1.2271547   -6.2371397    16.278249  0.030144905   0.04165904            3 
   46000    1.2170942   -6.2010408    16.940476  0.030689268  0.041638288            3 
   47000    1.2432851    -6.210545    17.544201  0.031106739  0.041649082            2 
   48000    1.2394657   -6.2446354    18.029536  0.031301278  0.041691683            2 
   49000    1.2413744   -6.2516615    18.459443   0.03139361  0.041720532            2 
   50000    1.2479735   -6.2256192    19.106318  0.031843864  0.041754407            2 
   51000    1.2133889   -6.2283605    19.464888  0.031805372  0.041784324            2 
   52000    1.2411494   -6.2444133    19.951116  0.031972942  0.041765691            7 
   53000     1.222449   -6.2702806     20.33694   0.03197632  0.041747213            4 
   54000    1.2224104   -6.2229353    20.808575  0.032111998  0.041715072            2 
   55000    1.2500456   -6.1802124    21.222008  0.032154557  0.041658951            3 
   56000    1.2584258   -6.1938047    21.776056  0.032404844  0.041613737            1 
   57000    1.2471464    -6.226162    22.110976  0.032325988  0.041563014            4 
   58000    1.2577832   -6.2320644    22.536548  0.032380098  0.041496542            1 
   59000    1.1949327    -6.223909    22.987216  0.032467819  0.041417886            2 
   60000    1.2218998   -6.2516015    23.412916  0.032517939   0.04132295            2 
   61000    1.2408814   -6.2152829    23.936588  0.032700257  0.041247692            5 
   62000    1.2417036    -6.228034    24.457166  0.032872535  0.041184654            7 
   63000    1.2268698   -6.2133128    24.706635  0.032680733  0.041103385            4 
   64000    1.2097059   -6.2212181    25.214374  0.032831216  0.041021421            1 
   65000    1.2352528   -6.2740876    25.726796  0.032983071  0.040948335            1 
   66000    1.2325309   -6.2629439    26.201635  0.033082872  0.040876593            2 
   67000    1.2203661   -6.2596895    26.866694  0.033416285  0.040835259            2 
   68000    1.2140311   -6.2110425    27.368557  0.033539898   0.04080273            4 
   69000    1.2052631   -6.2409945    27.800112  0.033575014  0.040778952            1 
   70000    1.2133467   -6.2302014    28.245127   0.03362515  0.040737323            2 
   71000    1.2069365   -6.2610527    28.576183  0.033540121  0.040690253            2 
   72000    1.2178782   -6.2861959    29.247109   0.03385082  0.040658749            3 
   73000    1.2527012   -6.2663661    29.815098  0.034035499  0.040648362            3 
   74000    1.2135836    -6.239121    30.242792  0.034057198  0.040639782            5 
   75000    1.2382379   -6.2122539    30.703106  0.034114562  0.040631863            3 
   76000    1.2042036   -6.2115524    31.518042  0.034559256  0.040632579            3 
   77000    1.2121442   -6.2783417    31.786244  0.034400696  0.040632193            2 
   78000    1.2431257    -6.258526    32.362581  0.034575407  0.040619042            2 
   79000    1.2468188   -6.2538023    32.684802  0.034477639  0.040610179            2 
   80000    1.2038274   -6.2560734    33.217707  0.034601778  0.040609904            6 
   81000    1.2423459   -6.2395525    33.807628  0.034781511  0.040609022            2 
   82000    1.2323303   -6.2292724    34.211949  0.034768241  0.040610202            3 
   83000    1.2111368   -6.2501099    34.744322  0.034883857  0.040609958            1 
   84000    1.2203174   -6.2322016    34.917725    0.0346406  0.040586668            3 
   85000    1.2160451   -6.3146983    35.424158  0.034729566  0.040564584            5 
   86000     1.214771    -6.316477    35.919206  0.034805432  0.040545013            6 
   87000    1.2483662   -6.2892043    36.426053  0.034890855    0.0405251            2 
   88000    1.1982005   -6.2628456    37.159641  0.035189054  0.040511127            3 
   89000    1.2423156   -6.2798009     37.47539  0.035089316  0.040501461            2 
   90000    1.2188315      -6.2696    38.092466  0.035270802   0.04049734            3 
   91000    1.1931496   -6.2821977    38.351255  0.035120197  0.040488369            2 
   92000    1.2251194   -6.2730394    38.938507  0.035270387  0.040478707            3 
   93000     1.215403   -6.2745203    39.384118  0.035290428  0.040465294            1 
   94000    1.2054143   -6.2327215    39.973739  0.035437711  0.040457292            2 
   95000    1.2027665   -6.2943607      40.1312  0.035202807  0.040442944            3 
   96000    1.2354802   -6.2945016    40.802503  0.035418839  0.040431498            6 
   97000    1.1924203   -6.2833564    41.294205  0.035476121  0.040420586            6 
   98000    1.1892978   -6.2626987    41.846374  0.035583651  0.040411601            3 
   99000    1.2092937   -6.2711103    42.417469   0.03570494  0.040412576            3 
  100000     1.219697   -6.2614419     42.79857  0.035665474  0.040412684            5 
  101000    1.2100755   -6.2907312    43.317883  0.035740828  0.040411777            2 
  102000    1.2377588   -6.2425559    44.023019  0.035966518  0.040423336            2 
  103000    1.2159381   -6.2847298    44.403397  0.035925078  0.040434466            2 
  104000    1.2133688   -6.2894684    44.927943  0.035999954  0.040441149            1 
  105000    1.2077591   -6.3062462    45.161996  0.035842854  0.040445557            3 
  106000    1.2260227   -6.2958582    45.718436  0.035942167  0.040445168            3 
  107000    1.1897418   -6.3043597    46.327646  0.036080721  0.040447825            3 
  108000    1.2230533   -6.2993847    46.720552  0.036049808  0.040444928            4 
  109000    1.1991682   -6.3058327    47.275987   0.03614372  0.040438963            1 
  110000    1.2271913    -6.309004    47.699764  0.036136185  0.040442545            1 
  111000    1.2115059   -6.3201521    48.189214  0.036178088  0.040447825            2 
  112000    1.2014915   -6.3222185     48.84903  0.036346004  0.040450433            1 
  113000    1.2142399   -6.3024607    49.471267  0.036483235  0.040459023            2 
  114000    1.2092828   -6.3254438    49.770092  0.036381646  0.040463364            2 
  115000    1.2178591   -6.2702287    50.346492  0.036482965  0.040464247            3 
  116000    1.1951901   -6.2814411    50.766272  0.036470023  0.040467742            6 
  117000    1.2135665   -6.3019199    51.475612  0.036663541  0.040471198            3 
  118000    1.1791445   -6.3656152    51.802043  0.036583364   0.04047876            3 
  119000    1.2239958   -6.2993599    52.155939  0.036523766  0.040483638            3 
  120000    1.2179876   -6.3225946    52.579687  0.036513671  0.040482434            5 
  121000    1.2153373   -6.2658019    52.928086   0.03645185  0.040472632            1 
  122000    1.2428511   -6.3273135      53.1037  0.036273019  0.040463995            4 
  123000      1.22068   -6.2813158    53.352457  0.036146651  0.040442198            2 
  124000    1.2154069   -6.2997071    53.599438  0.036021127  0.040411518            2 
  125000    1.2036673   -6.3131515    54.633396  0.036422264  0.040386598            2 
  126000     1.190013   -6.2636938    54.899145  0.036308958  0.040366196            3 
  127000    1.2403862    -6.321032     55.04353  0.036117802  0.040338097            4 
  128000    1.1854731   -6.2761187    55.485888  0.036123625  0.040310774            2 
  129000    1.2140201   -6.2887243    56.062904  0.036216346  0.040283766            6 
  130000    1.1856221   -6.3541582    56.372925   0.03613649  0.040253382            3 
  131000    1.2060355   -6.3505155    56.823633  0.036147349  0.040225973            3 
  132000    1.2150374   -6.3297521    57.189458  0.036104456  0.040197846            4 
  133000    1.2230226    -6.313684     57.59137  0.036084818  0.040163401            4 
  134000    1.1987743   -6.3070047    57.720883  0.035896071  0.040128119            2 
  135000    1.2148807   -6.3096919    58.380639  0.036037432   0.04009046            2 
  136000    1.2302936   -6.3301081    58.781918  0.036018332  0.040054582            3 
  137000    1.2024024   -6.3226861    59.604333  0.036255677  0.040023329            4 
  138000    1.2098757   -6.3290623    59.749663  0.036080714  0.039990231            3 
  139000    1.2178829   -6.3087572    60.254385  0.036123732  0.039958374            5 
  140000    1.1930014   -6.2878144    60.767625  0.036171205  0.039923741            5 
  141000    1.2036369   -6.2828944    61.269473  0.036211272  0.039889154            3 
  142000    1.2084081   -6.3164608    61.827607  0.036283807  0.039860072            2 
  143000    1.2041256    -6.330397    61.949187  0.036100925  0.039831664            2 
  144000    1.1529634   -6.3130481    62.719535  0.036296027  0.039800173            2 
  145000    1.1690382   -6.2815391    63.180906  0.036310865  0.039773391            1 
  146000    1.1868413   -6.3220449    63.436485   0.03620804  0.039747546            2 
  147000     1.199487   -6.3481164    64.003935   0.03628341  0.039724149            2 
  148000    1.1715104   -6.2993766    64.499676  0.036317385  0.039700948            3 
  149000    1.1706165    -6.335102    64.860712  0.036275566  0.039675081            3 
  150000    1.1987978   -6.3508495    64.915709  0.036064283  0.039644244            3 
  151000    1.2004369   -6.3403566     65.34557  0.036062676   0.03960961            3 
  152000    1.1854554   -6.3234836    65.546608   0.03593564  0.039571696            3 
  153000    1.1890668   -6.3204566    65.681901  0.035774456  0.039525401            2 
  154000    1.1650621   -6.2931943    66.449288  0.035957407  0.039484288            4 
  155000    1.2092819    -6.339506    66.924969  0.035981166  0.039445249            1 
  156000    1.1838492   -6.3252418    67.707882   0.03616874   0.03941287            3 
  157000    1.1676201   -6.3473362    67.653094  0.035909285  0.039381934            2 
  158000    1.2047546   -6.3187491    68.324746  0.036036258  0.039346387            3 
  159000    1.1820731   -6.3681298    68.166708  0.035726786  0.039309109            6 
  160000    1.1833882   -6.3013493    69.173187  0.036027702  0.039272147            1 
  161000    1.1845339   -6.3156059    69.650257  0.036050858  0.039241806            3 
  162000    1.2039945   -6.3337784    70.523671  0.036277608  0.039215608            3 
  163000    1.2031715   -6.3495834    70.802369   0.03619753  0.039193165            2 
  164000     1.230544   -6.4097221    71.088048  0.036121976  0.039168497            3 
  165000     1.206807   -6.3684408    71.359225  0.036040013  0.039140678            9 
  166000    1.1950928   -6.3124598    72.093999  0.036191766   0.03911587            2 
  167000    1.1997436   -6.3450322    72.610314  0.036232691  0.039091512            3 
  168000    1.2253651   -6.2893806    72.871483  0.036146569   0.03906695            3 
  169000    1.2090033   -6.3406377    73.339691  0.036163555  0.039041714            4 
  170000    1.1913292   -6.3258076    73.751268  0.036152582  0.039017957            2 
  171000    1.2127574    -6.357101    74.026281  0.036075186  0.038994549            2 
  172000    1.1845081   -6.3565335     74.55983  0.036123949  0.038967628            2 
  173000    1.1727415   -6.3615954    75.268383  0.036256447  0.038942996            3 
  174000    1.1889346   -6.3375802    75.382881  0.036102912  0.038922245            1 
  175000    1.1784091   -6.3386424    76.023672  0.036201748  0.038902372            2 
  176000    1.1955893   -6.3667396    76.180995  0.036070547  0.038878225            2 
  177000    1.2034301   -6.3363035    76.879313  0.036195533  0.038853849            4 
  178000    1.1710971   -6.2966648    77.473079  0.036270168  0.038832215            2 
  179000    1.1784717   -6.3639139    77.406205  0.036036408  0.038808482            2 
  180000    1.1777059   -6.3707334    77.656425  0.035952049  0.038784324            2 
  181000    1.1657113   -6.3046522    77.962695  0.035894427  0.038756514            3 
  182000    1.1677867   -6.3746045    77.882454  0.035660464  0.038725546            2 
  183000     1.195548   -6.3790187    78.502435  0.035747921  0.038691349            2 
  184000    1.2087945   -6.3460752    78.802461   0.03568952  0.038655687            2 
  185000    1.1963401   -6.3811621    79.404092  0.035767609  0.038621588            6 
  186000    1.1939861   -6.3749863    79.713876  0.035714102   0.03858819            2 
  187000    1.2131431   -6.3476729    80.271761   0.03577173  0.038554791            1 
  188000    1.1715349   -6.3753234    80.668793  0.035757444  0.038525573            2 
  189000    1.1894692   -6.3742496    81.499058  0.035934329  0.038499514            2 
  190000    1.1879679   -6.3514891    82.315384  0.036103239   0.03847468            3 
  191000    1.1841879   -6.3156558    82.357861  0.035932749  0.038451819            2 
  192000    1.1739984   -6.3962882    82.979226  0.036015289  0.038427155            3 
  193000    1.1943061   -6.3533025    83.758811   0.03616529  0.038407402            2 
  194000    1.1686967   -6.3324597    84.282976  0.036204027  0.038390133            2 
  195000    1.1543495   -6.3911986    84.447609  0.036088722  0.038374442            2 
  196000    1.1664912   -6.3458781    84.949737  0.036118085  0.038355239            3 
  197000    1.1439309   -6.4163958    85.123826  0.036008387  0.038336572            2 
  198000    1.2191493   -6.3711054    85.764685  0.036096248  0.038316281            4 
  199000    1.1947845   -6.3316005    86.333577  0.036153089  0.038300707            2 
  200000    1.1771157   -6.3995435    86.742051  0.036142521  0.038285917            7 
  201000    1.1672322   -6.3669191      87.0931   0.03610825  0.038269887            3 
  202000    1.1420424   -6.3626727    87.620654  0.036147135  0.038253482            3 
  203000    1.1746987   -6.3476512    88.190347  0.036202934  0.038237527            2 
  204000     1.180343   -6.4036197    88.421667  0.036119962   0.03822305            3 
  205000    1.1620394   -6.3826565    88.643387  0.036033897  0.038209144            2 
  206000    1.1568209   -6.3734468    89.449392  0.036185029  0.038192478            1 
  207000    1.1622144   -6.3496621    89.977011  0.036222629  0.038179452            3 
  208000    1.1712656   -6.3569605    90.440443  0.036234152  0.038165966            5 
  209000       1.1566   -6.3576572    90.520318  0.036092631  0.038147449            3 
  210000    1.1781416   -6.3778121    91.197224  0.036189374  0.038129496            3 
  211000    1.1986305   -6.4071363    90.928162  0.035911596  0.038113259            1 
  212000    1.1763757   -6.3862808    91.708376   0.03604889  0.038093623            2 
  213000    1.1796829   -6.3572735    91.971506  0.035982592  0.038076243            2 
  214000    1.1665879   -6.4249508    92.062795  0.035849998   0.03805709            2 
  215000     1.153928   -6.4031647    92.878887  0.035999569  0.038037773            2 
  216000    1.1714428   -6.3816352     93.12903   0.03592941  0.038019237            3 
  217000    1.1829105   -6.4223661      93.3557  0.035850883  0.037999087            2 
  218000    1.1604412   -6.3859874    94.074983  0.035961385  0.037977228            1 
  219000    1.1752324    -6.417569    94.385454  0.035915317  0.037958537            7 
  220000    1.1854942   -6.3766862    95.123992  0.036031815  0.037937781            3 
  221000    1.1718704   -6.4138831    95.390253  0.035969175  0.037919395            6 
  222000    1.1762665   -6.3718586    95.770625  0.035949934  0.037901036            2 
  223000    1.2133033   -6.3834274    96.299049  0.035986192  0.037884453            3 
  224000    1.1582494   -6.3719067    97.017841  0.036092947   0.03786947            7 
  225000    1.1399783   -6.3906417    97.639087  0.036162625  0.037858992            4 
  226000    1.1852348   -6.3825696    98.023165  0.036144235  0.037846509            6 
  227000    1.1531929    -6.347606    98.513585  0.036165046  0.037834881            2 
  228000    1.1518618   -6.4422119    98.553321  0.036020951  0.037822624            3 
  229000    1.1796385    -6.400401     98.95316  0.036009156  0.037807799            4 
  230000    1.1466737   -6.4161768    99.643682  0.036102783   0.03779581            2 
  231000     1.156144   -6.3843096    100.98487  0.036430327  0.037786234            3 
  232000    1.1522535   -6.4270382    100.73016  0.036181811  0.037775295            7 
  233000    1.2013682   -6.4204831    101.10632  0.036161059  0.037764687            3 
  234000    1.1515973   -6.4198365    101.36932  0.036100186  0.037753095            4 
  235000    1.1684743   -6.3906088    101.75586  0.036083637  0.037743506            2 
  236000    1.1775547   -6.3851193    102.50434  0.036195035  0.037734696            2 
  237000    1.1613805   -6.4062959    102.98756  0.036212222  0.037725497            3 
  238000    1.1553812   -6.4017631    103.30517  0.036171277  0.037714122            3 
  239000    1.1374082   -6.4313896    103.45927  0.036073666  0.037702548            3 
  240000    1.1702047   -6.4437091    103.99024  0.036107723  0.037691815            2 
  241000    1.1294793   -6.3870292     104.3874  0.036095228  0.037680094            2 
  242000    1.1708461   -6.4163822    104.17831  0.035874074   0.03766818            4 
  243000    1.1530905   -6.4408085     104.8207  0.035946744   0.03765434            2 
  244000     1.172317   -6.4478603    104.97389  0.035851739  0.037639057            3 
  245000    1.1757826    -6.445553    105.15974  0.035768618  0.037621146            4 
  246000    1.1367602   -6.4120216    106.02412   0.03591603  0.037603234            2 
  247000    1.1565269   -6.4201284     106.3195  0.035870277  0.037586803            3 
  248000    1.1573133    -6.424824    107.04959  0.035970964  0.037572186            3 
  249000    1.1484826   -6.4038754    107.31451  0.035915163  0.037556743            4 
  250000    1.1455977   -6.4463625    107.32833   0.03577611  0.037540428            2 
  251000    1.1603082   -6.3970533    107.90315  0.035824419   0.03752432            4 
  252000    1.1724387   -6.4546798    107.74343   0.03562944  0.037506407            2 
  253000    1.1614532    -6.437258    108.40951  0.035708007  0.037487854            2 
  254000    1.1689217   -6.4590016    108.51148  0.035600879   0.03747039            1 
  255000    1.1442689   -6.3775907    109.44234  0.035765471  0.037450361            4 
  256000    1.1612118   -6.3943212    109.37688  0.035604452  0.037429308            6 
  257000    1.1523388   -6.4331895    109.45469  0.035491145  0.037406723            3 
  258000     1.152297   -6.3937048    109.71903  0.035438963     0.037385            3 
  259000    1.1580956   -6.3972421    109.79738  0.035327342  0.037360385            4 
  260000    1.1383441   -6.4291377    109.77883  0.035185521   0.03733436            4 
  261000    1.1737086   -6.4102359    110.60599  0.035314813  0.037307043            5 
  262000    1.1299543   -6.4132478    111.17956  0.035362455  0.037279443            3 
  263000    1.1337961   -6.4096263    111.41409   0.03530231  0.037253536            5 
  264000    1.1363698   -6.4592014    111.54007  0.035208356  0.037227503            2 
  265000    1.1529037   -6.4651964    111.56219   0.03508245  0.037199699            3 
  266000    1.1801933   -6.4308255    111.97981  0.035081393  0.037173415            3 
  267000    1.1568874   -6.4505263    112.79655  0.035204916  0.037145782            2 
  268000    1.1531303   -6.4166698    112.83685  0.035086086  0.037118211            5 
  269000    1.1431498     -6.42752    113.42056  0.035136481  0.037090147            3 
  270000    1.1543903   -6.4412261    114.02273  0.035192202  0.037063573            2 
  271000     1.134587   -6.4084917    114.37973  0.035172119  0.037039413            4 
  272000    1.1445218   -6.3957979    114.73545  0.035151791  0.037014397            2 
  273000    1.1418342   -6.3979609    115.05893  0.035121772  0.036988375            4 
  274000    1.1442241   -6.4549819     114.9049  0.034946745  0.036961215            3 
  275000    1.1336052   -6.4566443    115.39015  0.034966711  0.036932802            1 
  276000    1.1370754   -6.4565109    115.25691   0.03479979  0.036902368            6 
  277000    1.1304514   -6.5082043    115.18726  0.034653206  0.036871864            3 
  278000    1.1424724   -6.4190153    115.83155  0.034721688  0.036840887            3 
  279000    1.1514888   -6.4172904    116.69725  0.034855808  0.036810452            1 
  280000    1.1195895   -6.4172229    116.93435  0.034801891  0.036778842            4 
  281000    1.1486019    -6.475442    116.86783  0.034658312  0.036746699            2 
  282000    1.1472961   -6.4316424    117.08375  0.034599216   0.03671336            3 
  283000    1.1551111   -6.4520468    117.23253  0.034520769  0.036680029            3 
  284000    1.1331886   -6.4832304    117.62296   0.03451378  0.036645321            6 
  285000    1.1277574   -6.4921801    117.47857   0.03435046  0.036611594            6 
  286000    1.1459833   -6.4773945    118.12173  0.034417753  0.036576074            4 
  287000    1.1413078   -6.4339095    118.37604  0.034371671  0.036539689            5 
  288000    1.1260901   -6.4575393    118.69969  0.034345974  0.036504397           11 
  289000    1.1961663   -6.5051386    119.35089  0.034414905  0.036468702            2 
  290000    1.1569725   -6.4717615    119.83926  0.034436569  0.036435302            4 
  291000    1.1383973   -6.4805281    120.27476  0.034442944  0.036403381            8 
  292000    1.1358513   -6.4826503    120.15645  0.034291224  0.036371683            8 
  293000    1.1501604   -6.4205417    121.52138  0.034562395    0.0363412            4 
  294000    1.1274372   -6.4529529    121.60751  0.034469248  0.036309697            2 
  295000    1.1411543   -6.4513196    121.89398  0.034433328  0.036280463            2 
  296000    1.1245768   -6.5061183    121.82026  0.034296244  0.036250755            2 
  297000    1.1341759   -6.4487892    122.99774  0.034511149  0.036221929            4 
  298000    1.1229785   -6.4870448    122.58141  0.034278918  0.036192079            2 
  299000    1.1415758   -6.4230645    123.34958  0.034378367  0.036162236            4 
  300000    1.1285408   -6.4679418    123.72703   0.03436862  0.036132375            5 
  301000    1.1346395   -6.4929297    123.66395  0.034236973   0.03610254            4 
  302000    1.1411339   -6.4334179    124.98225  0.034487375  0.036073948            6 
  303000    1.1475828   -6.4682677    124.66604  0.034286589  0.036046166            3 
  304000    1.1485265   -6.5591184    124.27347  0.034066193  0.036016167            4 
  305000    1.1416815   -6.4759364    124.67405  0.034063947  0.035987311            1 
  306000    1.1248925   -6.4830834    125.50412  0.034178683   0.03595714            4 
  307000    1.1331276   -6.4799849    126.08784  0.034225798  0.035926076            4 
  308000    1.1211425   -6.4838395    125.84123  0.034047952  0.035896086            3 
  309000    1.1427427   -6.5030233    126.13848  0.034017928  0.035864835            3 
  310000     1.121059   -6.4892728    126.66623  0.034050061  0.035833458            6 
  311000    1.1412059   -6.4263794    127.69338  0.034215804  0.035803383            3 
  312000    1.1521919    -6.444745    127.35802  0.034016566  0.035774382            9 
  313000    1.1357812   -6.5158554    127.93731  0.034062116  0.035745065            3 
  314000    1.1477982   -6.4952597    127.69281  0.033888751  0.035714281            1 
  315000       1.1315   -6.4801699     128.3867  0.033964735  0.035683968            2 
  316000    1.1216314   -6.5445464    128.00476  0.033756529  0.035652294            4 
  317000    1.1150522   -6.4653363    129.18219  0.033959567  0.035621312            2 
  318000    1.1181533   -6.5155347     129.4733  0.033929062  0.035592167            7 
  319000    1.1127457   -6.4964553    130.06961  0.033978477  0.035563976            2 
  320000    1.1489248   -6.4647898    130.87381  0.034081721  0.035536625            4 
  321000    1.1311312    -6.494955    130.52751  0.033885647  0.035508844            2 
  322000    1.1188051    -6.441538    131.55324   0.03404587  0.035483458            8 
  323000    1.1584842   -6.4701735     131.2188  0.033854178  0.035458663            4 
  324000    1.1321492   -6.4801829    131.79204   0.03389713  0.035432247            3 
  325000    1.1266438   -6.5199729    132.02254  0.033851933  0.035406027            3 
  326000    1.1357962   -6.4597047     132.6953  0.033920065  0.035380484            4 
  327000    1.1104678    -6.497541    133.25524  0.033959031  0.035354289            2 
  328000    1.1286061   -6.5026378    133.11844  0.033820742  0.035328077            4 
  329000    1.1399909   -6.4931612    133.94349  0.033926922  0.035301693            3 
  330000    1.1178877   -6.4849224    134.06657  0.033855194  0.035276706            2 
  331000    1.1527403   -6.5089047    134.52962   0.03386949  0.035251381            5 
  332000    1.1104609   -6.4679371    134.95433  0.033874079  0.035225662            2 
  333000    1.1086159   -6.4889017    134.84639  0.033745342  0.035200109            4 
  334000    1.1090823   -6.5075612    135.22276  0.033738213  0.035172771            4 
  335000    1.0981272   -6.4967953    135.43551  0.033690424  0.035145188           11 
  336000    1.1207066   -6.4966011    135.49919   0.03360595  0.035117891            2 
  337000    1.1074147   -6.5359982    135.83038  0.033588126  0.035089008            3 
  338000      1.11097   -6.5187093    136.35905  0.033619096  0.035059576            2 
  339000    1.1047001   -6.5017633    136.43848  0.033539449  0.035030266            1 
  340000    1.1281364   -6.5016078    137.09284  0.033601185  0.035003118            2 
  341000    1.1275484   -6.5047999    137.05652  0.033493773   0.03497695            4 
  342000     1.089026   -6.4823307    137.91344   0.03360464  0.034950363            4 
  343000    1.1146859   -6.5079339    137.86525  0.033494959    0.0349234            2 
  344000    1.1286615    -6.506772    138.28292   0.03349877  0.034897166            3 
  345000    1.1248093   -6.5036228    138.70868  0.033504513   0.03487138            2 
  346000    1.1406608   -6.5492838    138.92458  0.033459677  0.034845807            2 
  347000    1.1187442   -6.5272916    139.15372   0.03341828  0.034820627            3 
  348000    1.1184151   -6.5316329    140.13044  0.033556139  0.034795352            3 
  349000    1.1149715   -6.4756128    140.54451   0.03355886  0.034770806            2 
  350000    1.1139986   -6.5324167    140.59018  0.033473852  0.034746296            3 
  351000    1.1104387   -6.5108969    140.37762   0.03332802  0.034720386            4 
  352000     1.108991    -6.520058    140.93542  0.033365394  0.034693719            2 
  353000    1.0907444   -6.5435166    140.88141  0.033258124   0.03466757            4 
  354000     1.100605   -6.5245588    141.46562    0.0333017  0.034641698            3 
  355000     1.113671   -6.5406444     141.7601  0.033277018  0.034615772            3 
  356000    1.1079764   -6.5537352    141.79912  0.033192677  0.034587286            2 
  357000    1.1026107   -6.5340919    142.55813  0.033276874  0.034559282            2 
  358000    1.1115477   -6.4897485    142.68703  0.033213926  0.034532142            8 
  359000     1.113706   -6.4924354    142.81317   0.03315069  0.034505343            2 
  360000    1.1322033   -6.4907564    143.41625  0.033198205  0.034478907            3 
  361000    1.1107852   -6.5748328    143.09357  0.033031756  0.034451925            4 
  362000     1.094483    -6.551881    144.03756  0.033157817  0.034425124            3 
  363000    1.1385135   -6.5164417    144.46329  0.033164209  0.034399756            2 
  364000    1.1149294   -6.4887872    145.78547  0.033375794  0.034376093            2 
  365000     1.100743   -6.4996187     145.3399  0.033182626   0.03435196            5 
  366000    1.0844701   -6.5375455    145.33256  0.033090291  0.034327494            3 
  367000    1.1191214   -6.5292499    146.04067  0.033160914  0.034302507            2 
  368000    1.0917792   -6.4955619    147.21179  0.033336004  0.034279154            6 
  369000    1.0860422    -6.523351    147.07078  0.033213815  0.034257421            2 
  370000    1.1277943   -6.5368811    147.19505  0.033152039  0.034236174            3 
  371000    1.1258241   -6.5606151    147.07498  0.033035709  0.034213022            1 
  372000    1.1199867   -6.5692903    147.36514  0.033011904  0.034189981            6 
  373000    1.0857236   -6.5249012    148.78801  0.033241288  0.034166954            7 
  374000    1.1027714    -6.534095    148.93317  0.033184753  0.034144796            4 
  375000    1.0986223   -6.4868305    150.25004  0.033388897  0.034124471            4 
  376000    1.1116524   -6.5590101    149.20429  0.033068326  0.034103888            1 
  377000    1.1099426   -6.5597709    150.14243  0.033187981  0.034082925            4 
  378000    1.1055194   -6.5760291    150.16162  0.033104414  0.034061867            4 
  379000    1.1065738   -6.5582889    150.64111  0.033122495  0.034040366            7 
  380000    1.0906854   -6.5589545     150.6907  0.033046206  0.034018736            2 
  381000    1.1015281   -6.5395054    151.32059  0.033097242  0.033997924            1 
  382000    1.1101023   -6.5884882    150.85496  0.032909023  0.033975451            4 
  383000    1.0966802   -6.5553521    151.36597  0.032934283  0.033953558            4 
  384000    1.0937726   -6.5008734    152.33806  0.033059475  0.033931778            2 
  385000    1.0848468   -6.5175069    152.25557  0.032955752   0.03391038            1 
  386000    1.0979019   -6.5595852    152.61374  0.032947699  0.033888751            3 
  387000    1.0759158   -6.5755133    152.74151  0.032890075  0.033867471            2 
  388000    1.1022719   -6.5788584    153.10416  0.032883196  0.033846742            7 
  389000    1.0983905   -6.5563293    154.08675  0.033009158  0.033825092            7 
  390000    1.1078678   -6.5517427    154.13576  0.032934992  0.033804268            3 
  391000     1.116554    -6.542089    153.96055  0.032813416  0.033782479            2 
  392000    1.0998115   -6.5469293    154.70109  0.032887137  0.033760505            3 
  393000    1.0996497    -6.538476    154.87838  0.032841047  0.033739421            2 
  394000    1.0975189   -6.5500481    154.89602  0.032761426  0.033717861            4 
  395000    1.1066773   -6.5782523    155.43508   0.03279221  0.033695609            3 
  396000    1.0861089   -6.5899438    155.25686  0.032671899  0.033672678            4 
  397000    1.0963832   -6.5793746    156.00923  0.032747529  0.033649383            5 
  398000     1.089383   -6.5919756    155.70063  0.032600634  0.033626215            7 
  399000    1.0935118    -6.510156    156.41456  0.032668036  0.033602829            4 
  400000    1.0682446   -6.5750063    156.57899  0.032620622  0.033580174            5 
  401000    1.1105934    -6.588088    156.80397  0.032586029  0.033556888            5 
  402000    1.0914455   -6.5741984    157.18139  0.032583206  0.033534018            4 
  403000     1.093002   -6.5929921    157.40093  0.032547753  0.033510929            4 
  404000    1.1345937   -6.5776721    157.47621  0.032482716  0.033488355            3 
  405000    1.1084999   -6.5572625    157.86867  0.032483265   0.03346545            3 
  406000    1.0840943    -6.567986    158.14133  0.032459223  0.033442031            2 
  407000    1.1060257   -6.5544524     158.5439  0.032461896  0.033418796            4 
  408000    1.0921988   -6.5811933    158.30784  0.032334118  0.033394654            3 
  409000    1.0849722   -6.5773981    158.52655  0.032299623  0.033369867            3 
  410000    1.1084479    -6.601305    158.18508  0.032151439  0.033344438            4 
  411000    1.0724688   -6.5804716    158.91182  0.032220564   0.03331955            8 
  412000    1.1105496   -6.5839789    159.08464  0.032177314  0.033294728            4 
  413000     1.063474   -6.5796868    159.39613  0.032162254  0.033269096            4 
  414000    1.0798378   -6.6405105    158.83963   0.03197255   0.03324393            2 
  415000    1.0835518   -6.5684216    160.20804  0.032170289  0.033218753            3 
  416000    1.0869635   -6.5667429    160.72923  0.032197361  0.033194235            2 
  417000    1.0932819   -6.6125494    160.38324  0.032051006  0.033169007            4 
  418000    1.0880022   -6.5950346    160.39781  0.031977234  0.033143909            6 
  419000    1.1082957   -6.5741893    161.48864  0.032117869  0.033119359            5 
  420000     1.097505   -6.6339693    160.61281  0.031867621   0.03309444            3 
  421000    1.1059412   -6.6476272    162.04494  0.032075404  0.033069023            4 
  422000    1.0743572   -6.6251291    162.36859  0.032063307  0.033044457            7 
  423000    1.0603919   -6.5731308    163.23304  0.032157809  0.033020415            3 
  424000    1.0824861   -6.6018366    163.14426  0.032064517  0.032997725            3 
  425000    1.0893241   -6.6026589    163.37863  0.032035026  0.032974643            6 
  426000    1.0814678   -6.6491686     162.9252  0.031871126  0.032950324            3 
  427000    1.0864874   -6.5602443    163.84192  0.031975395  0.032925422            3 
  428000    1.0828194   -6.6107271    163.32469  0.031799979  0.032900521            4 
  429000    1.0748755   -6.5922433    164.59522  0.031972653  0.032876683            4 
  430000    1.0838444   -6.5982157    164.70995  0.031920534  0.032852423            6 
  431000     1.076759   -6.6033804    164.76989   0.03185806   0.03282811            6 
  432000    1.0886163   -6.6034255    165.41903  0.031909534  0.032803261            4 
  433000    1.0941014   -6.6048566    165.03142  0.031761244  0.032778925            2 
  434000    1.0673185   -6.6105866    165.27907  0.031735613   0.03275331            4 
  435000    1.0652933   -6.6318051    165.22387  0.031652083  0.032728398            5 
  436000    1.0872202   -6.6108385     165.9882  0.031725573  0.032703564            7 
  437000    1.0705104   -6.6483054    166.92013  0.031830689  0.032679862            2 
  438000     1.062239   -6.6155216    166.89512  0.031753258   0.03265628            2 
  439000    1.0777096   -6.6293432    166.88003  0.031678061  0.032632836            2 
  440000    1.0819637   -6.6459101    167.33211  0.031691687  0.032608925            6 
  441000    1.0851744   -6.5935012    167.71013  0.031691257  0.032584702            6 
  442000     1.061117   -6.6512542    167.92525  0.031660114  0.032561754            4 
  443000    1.0925539   -6.5949586     169.0479   0.03179983  0.032539709            3 
  444000    1.0955484   -6.6177349    168.37484  0.031601885  0.032516568            3 
  445000     1.064082   -6.5893472    168.94159  0.031637001  0.032493433            6 
  446000    1.0856387   -6.6164268    169.77013  0.031720877  0.032470774            1 
  447000    1.0516366   -6.6050192    169.96309  0.031685886  0.032448582            5 
  448000    1.0974898   -6.5960976    170.34212  0.031685662  0.032425887            3 
  449000    1.0609281    -6.607377    170.42023  0.031629589  0.032404185            6 
  450000    1.0837063    -6.597195    170.96555  0.031660287  0.032382498            2 
  451000    1.0427631   -6.6897341    170.61302  0.031524948  0.032360234            6 
  452000    1.0878402   -6.6135382    171.44458  0.031608513  0.032338259            4 
  453000    1.0567674   -6.6590235    171.31732  0.031515327  0.032316301            2 
  454000    1.0793006   -6.6386501     171.4407  0.031468557  0.032293996            3 
  455000    1.0649716   -6.5938554    172.62834  0.031616912    0.0322719            5 
  456000    1.0685306   -6.6314928     172.4303  0.031511384  0.032249815            2 
  457000    1.0920973   -6.6319277    172.42414  0.031441309  0.032227813            4 
  458000    1.0797843   -6.6362373    172.55136  0.031395808  0.032205271            7 
  459000     1.076892   -6.6299417    172.39897  0.031299741  0.032181814            3 
  460000    1.0697498   -6.6475214    172.15673  0.031187814   0.03215843            4 
  461000    1.0813399   -6.6435956    173.14878   0.03129949  0.032135162            2 
  462000    1.0754619   -6.6339346    173.09813  0.031222607  0.032111739            3 
  463000    1.0701363   -6.6208744    173.82718   0.03128639  0.032087888            3 
  464000    1.0817062   -6.6318022    173.76112  0.031207098   0.03206403            5 
  465000    1.0472355   -6.6888588    173.11284  0.031023806  0.032040046            4 
  466000    1.0780583   -6.6311549    174.02336  0.031120057  0.032016368            2 
  467000    1.0563896   -6.6258134    174.46307  0.031131882  0.031992223            2 
  468000    1.0519034   -6.6884294    174.49407  0.031070881  0.031967933            6 
  469000    1.0606132   -6.6315822    175.35417  0.031157457  0.031943605            5 
  470000     1.071424   -6.6587696    174.92338  0.031014784  0.031919974            8 
  471000    1.0776321    -6.637193    176.16644  0.031168868  0.031896122            5 
  472000    1.0637065   -6.6635535    175.77558  0.031033824  0.031872294            2 
  473000    1.0628453   -6.6185998    175.71186  0.030956987  0.031849156            6 
  474000    1.0591065   -6.6565325    176.53179  0.031035828  0.031826238            5 
  475000    1.0678798   -6.6711035    176.66645  0.030994115  0.031803216            4 
  476000    1.0695246   -6.6705385    176.84442  0.030960158  0.031779837            2 
  477000    1.0764717   -6.6645804    177.36306  0.030985859   0.03175685            3 
  478000    1.0482439   -6.6785459    177.41001   0.03092922  0.031733691            2 
  479000    1.0481139   -6.6322443     178.1286  0.030989667  0.031710765            4 
  480000     1.017143   -6.6449335     178.6332  0.031012708  0.031688075            2 
  481000    1.0701948   -6.6512865    178.03523  0.030844635  0.031664301            2 
  482000    1.0805964   -6.6150922      178.831  0.030918222  0.031640684            2 
  483000    1.0567207   -6.6544485    178.80228  0.030849254  0.031617398            8 
  484000    1.0773518   -6.6473794    179.20706   0.03085521  0.031594258            6 
  485000    1.0655516   -6.6073931    179.40543  0.030825675  0.031570708            2 
  486000    1.0746348   -6.6808096    178.59198  0.030622768   0.03154677            4 
  487000    1.0660117   -6.6836807    179.21046  0.030665719  0.031521965            4 
  488000      1.06615   -6.6750497    179.59906  0.030669238  0.031497915            5 
  489000    1.0769641   -6.6791999    180.49004  0.030758357  0.031474262            8 
  490000    1.0566312   -6.6541917    180.12237  0.030633057  0.031450287            1 
  491000    1.0735006   -6.6455822    180.66064  0.030662022  0.031426297            3 
  492000    1.0666356   -6.6615225    181.14534  0.030681799   0.03140236            4 
  493000    1.0735241   -6.6513863    180.99474  0.030594108  0.031378448            9 
  494000    1.0475791   -6.7031943    180.41904   0.03043506  0.031354213            3 
  495000     1.064591   -6.6624942    181.30536  0.030522787  0.031329957            4 
  496000    1.0479822   -6.6669812    181.94166  0.030568156  0.031306562            2 
  497000    1.0733062   -6.6496452    182.48631  0.030597973  0.031283433            3 
  498000    1.0745048   -6.6549578    182.94695  0.030613612   0.03126027            7 
  499000    1.0507332   -6.7086285    182.34231  0.030451288  0.031236645            4 
  500000    1.0696443   -6.6587817    183.44438  0.030574064  0.031213419            3 
  501000    1.0386103   -6.6551555    183.49705  0.030521799  0.031190158            2 
  502000    1.0304741   -6.6740258     183.6605   0.03048813  0.031166833            2 
  503000    1.0747122   -6.6598018    183.51794    0.0304039  0.031143417            2 
  504000    1.0753249   -6.6592795    184.28328   0.03047012  0.031119965            4 
  505000    1.0351664   -6.6772888    184.09296  0.030378376  0.031096897            4 
  506000    1.0607146    -6.651402    183.68083  0.030250466  0.031073608            3 
  507000      1.06705   -6.7057626     184.4396  0.030315517  0.031049869            4 
  508000    1.0562196   -6.6881558    184.08396    0.0301975  0.031026353            3 
  509000    1.0353271   -6.7132514    184.63031   0.03022762  0.031003087            3 
  510000     1.040329   -6.6970834    184.81062  0.030197813  0.030979194            7 
  511000    1.0430372   -6.7375281    185.08401  0.030183302  0.030954824            3 
  512000    1.0753739   -6.6752009    185.68244  0.030221751  0.030930915            3 
  513000     1.031432   -6.7057849    185.83255  0.030187224  0.030907623            3 
  514000    1.0307574   -6.7009064    186.29801  0.030203958  0.030884201            4 
  515000    1.0476658   -6.7219608     186.1623  0.030123349  0.030860553            5 
  516000    1.0694539   -6.7106166    186.70152  0.030152055  0.030837669            3 
  517000    1.0510936   -6.7156311    186.81249  0.030111619  0.030815424            4 
  518000    1.0453994   -6.7246779    187.03993  0.030090079  0.030792234            4 
  519000    1.0451044   -6.6668497    187.90124  0.030170399  0.030769361            4 
  520000    1.0374742   -6.6738687    187.89134  0.030110792  0.030746327            4 
  521000     1.042954   -6.6814302    188.19415  0.030101431  0.030723628            2 
  522000    1.0481177   -6.6848291    188.05537  0.030021611  0.030701598            3 
  523000    1.0396051   -6.6856244    189.25634  0.030155568   0.03067954            6 
  524000    1.0522933   -6.7239718    188.92226  0.030044889  0.030657041            4 
  525000    1.0336432   -6.7375625    189.15974  0.030025355  0.030634559            4 
  526000    1.0566409   -6.6956214    188.98459  0.029940524  0.030612216            3 
  527000    1.0438562   -6.7105564    188.96526  0.029880655  0.030589984            7 
  528000    1.0417397   -6.7065917    189.61091  0.029925964  0.030567095            9 
  529000    1.0506142   -6.6836931     190.1119  0.029948314  0.030544451           10 
  530000    1.0362325   -6.7011741    189.99875  0.029874017  0.030521628            3 
  531000    1.0618911   -6.7150272    189.84224  0.029793195   0.03049851            6 
  532000    1.0267008   -6.7011982    190.95342   0.02991125  0.030476205            3 
  533000    1.0277901   -6.7194255    190.09163  0.029720392  0.030453474            3 
  534000    1.0233892   -6.7177557     191.0881   0.02982024  0.030430605            3 
  535000    1.0337293   -6.7202283     190.9649  0.029745311  0.030408057            6 
  536000    1.0234726   -6.7220685    192.66844  0.029954671  0.030385628            6 
  537000    1.0252644   -6.7324816    191.99736  0.029794748  0.030363162            5 
  538000    1.0375013   -6.7385805    192.61627  0.029835234   0.03034117            4 
  539000    1.0291291   -6.7455523    192.51805  0.029764695  0.030318263            2 
  540000    1.0708091   -6.7156376    192.96408  0.029778408  0.030296037            4 
  541000    1.0364688   -6.7021856    192.91356  0.029715582   0.03027408            5 
  542000    1.0481384   -6.7145244    192.66343  0.029622299  0.030251653            4 
  543000    1.0274918   -6.7311231    193.68529  0.029724569  0.030229282            5 
  544000    1.0224065   -6.7216412    193.76532  0.029682188  0.030207112            4 
  545000    1.0237924   -6.6765754    194.23419  0.029699417  0.030185124            4 
  546000     1.039499    -6.741971    194.09465  0.029623726  0.030163119            4 
  547000    1.0517385   -6.7806069    193.93352  0.029545021  0.030141452            4 
  548000    1.0452068   -6.7314628    194.74215  0.029614073   0.03011959            3 
  549000    1.0271242   -6.6934674    194.78486  0.029566615  0.030098342            2 
  550000    1.0290942    -6.722159    194.35303  0.029447428   0.03007655            5 
  551000     1.022175   -6.7325181    195.57742  0.029579162  0.030054919            3 
  552000    1.0299941   -6.7437917     195.2777   0.02948033  0.030033132            3 
  553000    1.0485156   -6.7107119    196.16419  0.029560607  0.030011132            6 
  554000    1.0400175   -6.7249311    195.75816  0.029446173  0.029989416            3 
  555000    1.0202001   -6.7252539    196.38981  0.029487959  0.029967606            4 
  556000    1.0143691   -6.7107726    197.02737  0.029530482  0.029946424            4 
  557000    1.0115987   -6.7352062    196.38521   0.02938139  0.029925229            4 
  558000    1.0381555   -6.7863149    195.77848  0.029238125  0.029903289            4 
  559000    1.0394764   -6.7108314    197.55424  0.029450543  0.029881741            4 
  560000    1.0254834   -6.7624298    197.74535  0.029426391  0.029860681            6 
  561000    1.0389956   -6.7608935    197.87297  0.029392896  0.029839934            5 
  562000    1.0363108   -6.7290355    198.76862  0.029473402  0.029819092            3 
  563000    1.0289614   -6.7474484    198.30446  0.029352347  0.029798225            4 
  564000    1.0356086   -6.7726219    197.83537  0.029230994  0.029776469            5 
  565000    1.0039725   -6.7703318    198.19721  0.029232627  0.029754855            4 
  566000    1.0175652    -6.763688    198.75095  0.029262507  0.029733278            4 
  567000    1.0353446   -6.7261704    200.01664   0.02939692  0.029712153            3 
  568000     1.017136   -6.7139873    199.60067  0.029284136  0.029691043            5 
  569000    1.0332129   -6.7529603    199.82092  0.029264926   0.02966993            3 
  570000    1.0367222   -6.7506265    200.06037  0.029248592  0.029648987            2 
  571000    1.0180805   -6.7839891    200.14499  0.029209719  0.029627367            4 
  572000    1.0300686   -6.7704083    200.38425  0.029193509  0.029605955            4 
  573000    1.0361317   -6.7722798    200.49332  0.029158424   0.02958495            2 
  574000    1.0097255   -6.7482692    200.79287  0.029151114  0.029564516            5 
  575000    1.0256704   -6.7443934    201.53763  0.029208352  0.029544163            2 
  576000    1.0265864   -6.7558098    201.26482  0.029118174  0.029524077            6 
  577000    1.0200719   -6.7131978    202.24061  0.029208638  0.029503986            6 
  578000    1.0383073   -6.7353781    202.03386  0.029128296  0.029484196            7 
  579000    1.0256103   -6.7983152    202.10872  0.029088763   0.02946425            4 
  580000    1.0143592    -6.815057    201.90332  0.029009097  0.029443762            4 
  581000    1.0266306    -6.740965     203.2395  0.029150817  0.029423521            3 
  582000   0.99956109   -6.7592086    202.42426  0.028984001  0.029402878            3 
  583000    1.0178237   -6.7273411    203.24681   0.02905186  0.029382119            4 
  584000    1.0324173   -6.7378383    203.37666  0.029020643  0.029361643            6 
  585000    1.0173753   -6.7843355    203.17988  0.028943003  0.029341098            3 
  586000     1.010787   -6.7467843    203.32889  0.028914802  0.029320624            5 
  587000    1.0234197   -6.7978232    203.28384  0.028859148  0.029300004            4 
  588000    1.0199211   -6.7471772    204.91164  0.029040765  0.029279388            7 
  589000     1.027546   -6.7620412    204.81118  0.028977247  0.029258842            5 
  590000    1.0115312   -6.7730238    204.08868  0.028826085  0.029238156            3 
  591000   0.99594187   -6.7766645    204.29493  0.028806392  0.029217453            5 
  592000    1.0164767   -6.7523261     204.5674  0.028796087  0.029196379            3 
  593000    1.0062765   -6.7555858    204.77117  0.028776162  0.029175395            2 
  594000    1.0117174     -6.78032    205.33276  0.028806504  0.029154672           10 
  595000    1.0134265    -6.793323    205.52543  0.028785075  0.029134112            6 
  596000   0.99946096   -6.7390712    206.48829  0.028871405  0.029113505            7 
  597000    1.0252671   -6.7661239     206.2397  0.028788345  0.029093536            1 
  598000    1.0187595    -6.746822    206.69984  0.028804325  0.029074103            3 
  599000    1.0168559   -6.7938923     206.5493  0.028735295  0.029054025            8 
  600000    1.0350636   -6.7590903     207.3869  0.028803737  0.029033809            4 
  601000    1.0229441   -6.7702572     207.1064  0.028716916  0.029013513            5 
  602000    0.9863196   -6.7674137    207.32271  0.028699157  0.028992978            3 
  603000    1.0229535   -6.7568089    206.95942  0.028601357  0.028972697            5 
  604000    1.0230899   -6.7810027     207.5943  0.028641597  0.028952983            3 
  605000   0.99984559   -6.8047877    207.29183  0.028552593  0.028932649            6 
  606000    1.0209057   -6.7117602    207.92698  0.028592819  0.028912273            2 
  607000    1.0190074   -6.8030318    208.06195  0.028564243  0.028892153            4 
  608000   0.98348331   -6.8025384    208.34996  0.028556737  0.028872001            3 
  609000    1.0177418   -6.7959878    208.04921  0.028468693  0.028851742            3 
  610000    1.0041221   -6.8129461     208.8825  0.028535861  0.028831202            2 
  611000     1.017805   -6.7836269    208.76225  0.028472757  0.028811046            5 
  612000    1.0366573   -6.7948687    209.57538  0.028536952  0.028790619            4 
  613000    0.9914541   -6.7539669    209.40174  0.028466794  0.028770183            2 
  614000    1.0273306   -6.7680982    209.55303  0.028440965  0.028749976            4 
  615000    1.0102929   -6.8224082    209.34946  0.028367135  0.028729397            4 
  616000     1.022519   -6.7995568    209.70196  0.028368772  0.028708639            6 
  617000      1.01267   -6.7875234    209.77076  0.028332086   0.02868799            5 
  618000   0.99048216   -6.8035832    210.31599  0.028359761  0.028667568            2 
  619000   0.99230617   -6.7763798    210.46973  0.028334643  0.028647252            4 
  620000   0.97857164   -6.8249432    209.96215  0.028220719   0.02862666            3 
  621000   0.98626659    -6.844311     210.5762  0.028257675  0.028605733            3 
  622000    1.0213774   -6.7710929    211.02525  0.028272407  0.028584809            4 
  623000   0.99640385   -6.7982829    210.78092  0.028194344  0.028564096            6 
  624000    1.0137049   -6.7763782    211.48924  0.028243756  0.028543194            3 
  625000    1.0123844     -6.80381    211.62247   0.02821633  0.028522091            3 
  626000    1.0191938    -6.811898    211.14909  0.028108239  0.028500848            3 
  627000   0.99505373   -6.7931387    211.30183  0.028083709  0.028479725            6 
  628000    1.0036964   -6.8059979    212.11194  0.028146489  0.028458903            6 
  629000    1.0270061   -6.8060021    212.02784  0.028090599  0.028438089            5 
  630000    1.0290367   -6.8002684    211.79629  0.028015382  0.028417416            3 
  631000    1.0159518   -6.7636216    212.99216  0.028128917  0.028396576            3 
  632000   0.98927229    -6.814753    212.51682  0.028021732  0.028375517            8 
  633000   0.98675372   -6.8397326    212.81444  0.028016645  0.028353915            5 
  634000   0.97354079   -6.8222029    212.15906  0.027886311  0.028332586            5 
  635000   0.99942486   -6.8361155    212.70222  0.027913677  0.028311206            6 
  636000   0.98442366   -6.8528058    212.02259  0.027780738  0.028289722            6 
  637000    1.0027122   -6.8196557    213.27597  0.027901095  0.028267894            3 
  638000    1.0033189   -6.8229653    213.34756  0.027866714  0.028246542            2 
  639000   0.99182853   -6.8156762    213.05894  0.027785465  0.028225009            4 
  640000   0.98656393   -6.7822521    214.32408  0.027906781  0.028203559            5 
  641000    0.9918073   -6.8746098    212.89441  0.027677381   0.02818214            4 
  642000   0.97562684   -6.8460167    213.89494  0.027764141  0.028160397            6 
  643000   0.99017855   -6.8205615    214.51551  0.027801388  0.028138956            3 
  644000   0.98177834   -6.8187272    214.20056  0.027717464  0.028117605            4 
  645000    1.0041838   -6.8925915    213.99346  0.027647734  0.028095986            2 
  646000    0.9842486   -6.8212158    214.37632  0.027654325  0.028074439            3 
  647000    1.0128975   -6.8073537    215.58917  0.027767797  0.028053056            6 
  648000   0.97487517   -6.8454763    214.32418  0.027562266  0.028031894            5 
  649000     1.015207   -6.8570468    215.17572  0.027629137  0.028010165            5 
  650000   0.99136276   -6.8618592     215.2492  0.027596052  0.027988568            3 
  651000    1.0019554   -6.8388824    215.34104  0.027565418  0.027967156            6 
  652000   0.99575453   -6.9014629    214.70274  0.027441557  0.027945572           10 
  653000    1.0311681   -6.8517675    214.87971  0.027422118  0.027923771            5 
  654000   0.97124707   -6.8866813    215.43268  0.027450647  0.027901984            4 
  655000    1.0013325   -6.8130085    216.15969  0.027501233  0.027880529            3 
  656000   0.99037506   -6.8388476    216.20223  0.027464714   0.02785908            4 
  657000   0.98542828   -6.8791302    216.20091  0.027422743  0.027837519            4 
  658000   0.97783757   -6.8757699    216.47715  0.027416052  0.027815659            6 
  659000    1.0014298   -6.8118566    216.73724   0.02740734   0.02779404            5 
  660000   0.99285642   -6.8337308    216.90543   0.02738705   0.02777265            5 
  661000    1.0214756    -6.851972    216.99787  0.027357271  0.027751278            8 
  662000   0.98047162   -6.8572039    217.34602  0.027359771  0.027730376            4 
  663000   0.98981932   -6.8408537    218.10881   0.02741438  0.027709524            3 
  664000   0.95820706   -6.8319284    218.14177   0.02737723  0.027688959            5 
  665000   0.97216524   -6.8812918    217.62011   0.02727069    0.0276679            3 
  666000     1.002753   -6.8592254    218.86265  0.027385216  0.027646733            6 
  667000   0.99101518   -6.8555587    218.78978  0.027335055  0.027625881            2 
  668000   0.99543456   -6.8538599    218.79057  0.027294232  0.027605394            4 
  669000   0.99510476    -6.850668    219.49095  0.027340676  0.027584716            6 
  670000   0.98493554   -6.8634012    218.54746   0.02718252  0.027563937            3 
  671000   0.98888774   -6.8845344    219.70047  0.027285204  0.027543116            6 
  672000   0.98943922   -6.8624449    219.92721  0.027272719  0.027522667            4 
  673000   0.96978157   -6.8610586    219.28521    0.0271527  0.027501748            5 
  674000   0.98028077   -6.9130683    219.22753  0.027105283  0.027480829            4 
  675000   0.97833989   -6.8899038    220.11708  0.027174948  0.027460133            6 
  676000   0.97693301   -6.8385808    221.12807  0.027259377  0.027439753            3 
  677000   0.97991497   -6.8863743    220.15237  0.027099012  0.027419267            3 
  678000   0.98930545   -6.8775778    220.51813  0.027103999  0.027398777            5 
  679000   0.94992156   -6.8719274      220.721  0.027088978  0.027378421            3 
  680000     0.983145   -6.8877297    220.92137  0.027073698  0.027357851            3 
  681000   0.97400366    -6.890005    221.82391  0.027144385  0.027337591            8 
  682000   0.97617494    -6.871391    221.56384  0.027072805  0.027317397            7 
  683000   0.98089461   -6.8586611    221.49251  0.027024465  0.027297066            4 
  684000    1.0015762   -6.8656503    221.97629  0.027043895  0.027276839            5 
  685000   0.96654778   -6.8617225    222.38306    0.0270539  0.027256755            7 
  686000   0.98712974   -6.8582761    222.65646  0.027047675  0.027236545            4 
  687000   0.98437327   -6.9096305    222.68162  0.027011356   0.02721669            3 
  688000   0.98227341   -6.8936713    222.55751  0.026957062  0.027196464            5 
  689000   0.95207963   -6.9154295    222.19041  0.026873538  0.027176309            6 
  690000   0.97940452   -6.8732125    223.11954  0.026946805  0.027156306            8 
  691000    0.9752359   -6.9209321    223.02577  0.026896499  0.027136601            3 
  692000   0.97815642   -6.8779969    223.79805  0.026950633  0.027116708            8 
  693000   0.97015492   -6.8949389    223.02904  0.026819269  0.027096554            7 
  694000   0.98835907   -6.9293005    223.19944  0.026801085  0.027076304            9 
  695000   0.95367431    -6.897041    224.00925  0.026859622  0.027056006            8 
  696000   0.96829551    -6.909693    224.64808  0.026897519  0.027035955            3 
  697000   0.97964589    -6.902365    224.12068  0.026795873  0.027015953            3 
  698000   0.98334485   -6.9119174    224.15288  0.026761328  0.026995989            3 
  699000   0.97326696   -6.8717228    224.82114  0.026802712  0.026975968            6 
  700000   0.98100087   -6.8940228    224.78387  0.026759985   0.02695608            6 
  701000    0.9639542   -6.9280212    224.66489  0.026707667  0.026936239            4 
  702000    0.9643285   -6.9077534    225.84793  0.026810058  0.026916331            8 
  703000   0.95259762   -6.8781714    225.56383  0.026738245  0.026896392            4 
  704000   0.96080959    -6.887896    225.33897  0.026673648  0.026876329            6 
  705000   0.98492375   -6.9314519    225.75874   0.02668543  0.026856332            3 
  706000   0.98269162   -6.8813999    225.56505   0.02662477  0.026836156            5 
  707000   0.96060093   -6.9221048    226.18567  0.026660263  0.026816069            2 
  708000    0.9681683   -6.8878038    225.52123  0.026544401  0.026795809            6 
  709000    0.9622503    -6.868484    225.22459  0.026472096  0.026775591            3 
  710000   0.97005551    -6.902529    225.47961  0.026464743  0.026754978            5 
  711000    1.0057094   -6.8989358    226.02455  0.026491391  0.026734352            6 
  712000    0.9597404   -6.8725804    226.82239  0.026547565  0.026713769           11 
  713000   0.94782004   -6.9232425    225.43394  0.026348053  0.026693033            4 
  714000   0.96945337   -6.9003125    226.26255  0.026407861  0.026672028            5 
  715000   0.94167459   -6.8868888     226.2586  0.026370466  0.026651269            5 
  716000   0.98291888   -6.9067498    226.25633  0.026333372  0.026630392            5 
  717000   0.96344008   -6.8896981    226.37611  0.026310566   0.02660955            3 
  718000   0.95572429   -6.9140113    226.74671  0.026316934  0.026588438            4 
  719000   0.97586594   -6.8889483    227.25069  0.026338745  0.026567541            4 
  720000   0.97310771   -6.9467606    226.80252  0.026250291  0.026546526            3 
  721000   0.95651214   -6.9240337    226.72088  0.026204447  0.026525313            4 
  722000   0.96894923   -6.9285393    227.33567  0.026239112  0.026504313            3 
  723000   0.96725594   -6.9458155    226.85081  0.026146935  0.026483222            4 
  724000   0.95013519   -6.9009035    226.95791  0.026123148  0.026462263            3 
  725000   0.96914577    -6.906191    227.75355  0.026178569  0.026441213            4 
  726000   0.95032311   -6.9176857    227.94029  0.026163945  0.026420091            1 
  727000   0.96091302   -6.9084701    227.79565  0.026111377  0.026398824            7 
  728000   0.96191491   -6.9393726    228.00436    0.0260994  0.026377769            6 
  729000   0.95643815   -6.9624456    228.04604  0.026068363  0.026356744            4 
  730000   0.94772863   -6.9069524    227.61061  0.025982946  0.026335446            8 
  731000   0.97069812   -6.9443483    228.71231  0.026072995  0.026314325            5 
  732000   0.95895739   -6.9161971    228.20158  0.025979233  0.026293178            6 
  733000   0.96295658   -6.9318159    228.47958  0.025975396  0.026272125            6 
  734000   0.96176769   -6.9127936    228.88855  0.025986439  0.026250836            4 
  735000   0.97143048   -6.9194575    228.84823  0.025946512  0.026230044            3 
  736000   0.97721042   -6.9208201     229.9782  0.026039198  0.026209633           12 
  737000   0.98423541   -6.9472285    229.29296  0.025926386  0.026189027            4 
  738000   0.95818867   -6.9688189    228.70225  0.025824554   0.02616824            6 
  739000   0.93189898   -6.9374996    229.47454  0.025876696  0.026147352            3 
  740000   0.93692588   -6.9245031    229.38435  0.025831571  0.026126417            5 
  741000   0.95798706   -6.9462727      228.947  0.025747525   0.02610535            9 
  742000   0.93951813   -6.9245583    229.22042  0.025743533  0.026084143            7 
  743000   0.95608434    -6.925244    230.40699  0.025841969  0.026063087            5 
  744000   0.95422279   -6.9301851     229.9222  0.025752935  0.026042125            3 
  745000   0.97272292   -6.9340385    230.33821  0.025764901  0.026021191            4 
  746000   0.94688387   -6.9492079    230.07036  0.025700442  0.026000382            7 
  747000   0.94968467   -6.9385588    230.75714  0.025742653  0.025979499            5 
  748000   0.96100981   -6.9312563    229.93692  0.025616858  0.025958857            7 
  749000   0.97133631   -6.9893678    230.32228  0.025625531  0.025937963            4 
  750000   0.94055963   -6.9617431    230.45011  0.025605568  0.025916926           10 
  751000   0.96794925   -6.9741371    231.21956  0.025656853  0.025895843            3 
  752000    0.9557599   -6.9017906    232.05429  0.025715236  0.025875391            4 
  753000   0.95902988   -6.9823914    231.79611  0.025652513  0.025854917            5 
  754000   0.96970338   -6.9536751    232.25247  0.025668929  0.025834434            3 
  755000   0.94012427   -6.9721704    232.24294  0.025633878    0.0258143            4 
  756000   0.94309996   -6.9637884    232.43752   0.02562142  0.025794187            4 
  757000   0.93253161   -6.9675967    232.57414  0.025602613  0.025773918            6 
  758000   0.95374874   -6.9378628    232.47668  0.025558122  0.025753564            4 
  759000   0.94749375   -6.9667861    232.29647  0.025504663  0.025733248            3 
  760000   0.97550884   -7.0092554    232.60435  0.025504863  0.025712658            4 
  761000   0.97353218   -6.9826719    233.13729  0.025529707  0.025692252           17 
  762000   0.95821345   -6.9790312     232.8763  0.025467662  0.025671876            4 
  763000   0.94826762   -6.9979786    232.34317  0.025376056  0.025651625            7 
  764000   0.95519269   -7.0287134    232.66747  0.025378214  0.025631191            6 
  765000   0.92264129   -6.9358432    234.63008  0.025558833  0.025611051            9 
  766000   0.95548856   -6.9998659     233.6784  0.025421932  0.025590859           16 
  767000   0.96181543   -6.9844379    234.33327  0.025459938   0.02557092           17 
  768000   0.95074986   -6.9767305    234.17097  0.025409176   0.02555098            4 
  769000    0.9470441   -6.9971276    234.35437  0.025396008  0.025530963            7 
  770000   0.95193415   -6.9984787    234.48497  0.025377161  0.025510878            3 
  771000    0.9523455   -7.0022463    234.05042  0.025297278  0.025490759            3 
  772000   0.93490859   -6.9740209    235.00965  0.025368054  0.025470722            5 
  773000   0.96813522    -6.950786    234.78874  0.025311421  0.025450891            6 
  774000   0.95801227   -6.9697365    235.51344  0.025356745  0.025430961            4 
  775000   0.96625968   -7.0010941    234.93792  0.025262142  0.025410841            6 
  776000   0.95662381   -6.9927731    234.87876  0.025223235  0.025390521            2 
  777000   0.95575988   -7.0029164    235.10603  0.025215147  0.025370124            8 
  778000   0.94297527   -6.9637949    235.20266  0.025193087  0.025349867            3 
  779000   0.93857167   -6.9860525    234.79357  0.025116985  0.025329768            3 
  780000   0.93270065   -7.0073515    235.63312  0.025174479  0.025309714            4 
  781000   0.96167442   -6.9708494    236.04271  0.025185948  0.025289811            6 
  782000   0.94445088   -6.9845337    236.19032  0.025169471   0.02527007            4 
  783000   0.94477397   -7.0125924    235.92841  0.025109452  0.025250325            6 
  784000   0.94429482   -6.9501879    236.48641  0.025136736  0.025230435            3 
  785000   0.93508623   -6.9684569    236.49887  0.025106037  0.025210892            4 
  786000   0.93215339   -6.9824671    237.43006  0.025172823  0.025191394            3 
  787000   0.95268511   -6.9625241    237.82121  0.025182255  0.025171747           11 
  788000   0.95998666   -6.9719543    237.42375  0.025108264  0.025151961            2 
  789000   0.95340688   -6.9958346    237.52187  0.025086805  0.025132661            3 
  790000   0.94076098   -6.9553691    237.81537   0.02508601  0.025113389            6 
  791000   0.93080498   -6.9998481    237.75494  0.025047929  0.025094159            5 
  792000   0.92402275    -7.015675     236.9118  0.024927589  0.025074785            2 
  793000   0.90715763   -7.0200168    237.24563  0.024931235  0.025054896            4 
  794000    0.9365783   -7.0225812    237.68681  0.024946139  0.025035015           10 
  795000   0.93020924   -7.0321277    237.55689  0.024901141   0.02501509            3 
  796000   0.93839974   -7.0152735    237.73497  0.024888501  0.024995172           10 
  797000   0.93134278   -6.9986493    237.42545  0.024824911  0.024975384            2 
  798000   0.92761063   -7.0131312    238.42106  0.024897772  0.024955805            4 
  799000    0.9326281   -7.0205016    237.63663  0.024784797  0.024936082            3 
  800000   0.92776356   -6.9767965    239.14084  0.024910504  0.024916422            4 
  801000   0.92641923   -7.0085221    239.28874  0.024894792   0.02489697            4 
  802000   0.92437569   -7.0220305    239.19492  0.024854002  0.024877534            6 
  803000   0.94248753   -7.0351521    238.82398  0.024784556  0.024858126            5 
  804000   0.92030289    -7.021201    239.06298  0.024778502  0.024838864            6 
  805000   0.92020887   -7.0197802    239.25388  0.024767482  0.024819486            6 
  806000   0.93724105   -6.9989045      239.802  0.024793424  0.024800087            3 
  807000   0.94256866   -7.0430953    239.21118  0.024701692  0.024780865            6 
  808000   0.94633122    -7.076384    238.80702  0.024629437  0.024761646            6 
[...]
 1800000   0.54374633   -8.1572871    260.04466  0.012039105  0.010256732         1076 
 1801000   0.53321071   -8.1655749    259.89092  0.012025306  0.010247406         1034 
 1802000   0.53764671   -8.1571382    259.55499  0.012003098  0.010238067         1034 
 1803000   0.53191001   -8.1585909    259.63887  0.012000318  0.010228748         1052 
 1804000   0.52562903   -8.1568012    259.99351  0.012010048  0.010219446         1055 
 1805000   0.52809935     -8.17855    259.72942  0.011991202  0.010210147         1047 
 1806000    0.5259262   -8.1587605    260.11378  0.012002297  0.010200867         1007 
 1807000   0.52978999   -8.1502392    260.17793  0.011998613  0.010191598         1017 
 1808000   0.53402567   -8.1621426    259.08802  0.011941741  0.010182337          977 
 1809000   0.53960975   -8.1521594      259.738  0.011965082  0.010173095          873 
 1810000   0.53597753    -8.158844    259.79242  0.011960977  0.010163867          997 
 1811000   0.52280653   -8.1587442    259.39212  0.011935953  0.010154651         1000 
 1812000   0.53222223    -8.158384     259.4014  0.011929792  0.010145434          801 
 1813000   0.52430832   -8.1507249    259.64932  0.011934607  0.010136229         1042 
 1814000   0.54137053   -8.1588661    259.50573  0.011921432  0.010127027         1001 
 1815000   0.52495669   -8.1764102    259.95572  0.011935524   0.01011784          970 
 1816000   0.52555462   -8.1730663     259.3496  0.011901138   0.01010867         1050 
 1817000   0.53551337   -8.1529287    259.36796   0.01189543  0.010099509          984 
 1818000   0.53303515   -8.1779818    259.51631  0.011895687  0.010090361         1106 
 1819000   0.51888402   -8.1834378    259.47784  0.011887385  0.010081211         1004 
 1820000   0.52076713   -8.1750211     259.2004   0.01186815  0.010072069         1076 
 1821000   0.52701322   -8.1669771    259.64708  0.011882074  0.010062947         1091 
 1822000   0.52439075   -8.1570214    259.62565  0.011874572  0.010053825         1031 
 1823000    0.5284543      -8.1775    260.08197  0.011888918  0.010044714         1024 
 1824000   0.53524098   -8.1699617    259.74777  0.011867131  0.010035606         1048 
 1825000    0.5224461   -8.1800918    259.43631  0.011846407  0.010026529         1031 
 1826000   0.52527141   -8.1657734    259.60284  0.011847519  0.010017454          972 
 1827000   0.51482188   -8.1630357    259.69833   0.01184539  0.010008394         1044 
 1828000    0.5291472   -8.1575627    259.89184  0.011847731 0.0099993421         1108 
 1829000   0.51453621   -8.1649408    259.31005  0.011814746 0.0099903042          966 
 1830000   0.51963668   -8.1754246     259.3318  0.011809281 0.0099812697         1090 
 1831000   0.52013441   -8.1742274    259.97926  0.011832298 0.0099722348         1034 
 1832000   0.51697598   -8.1728851    259.25966  0.011793107 0.0099632228         1072 
 1833000   0.51272235   -8.1627768    259.37393  0.011791868 0.0099542241         1042 
 1834000   0.50813565    -8.169307     259.7979  0.011804703 0.0099452386         1047 
 1835000   0.52441086   -8.1723504    259.12997  0.011767937 0.0099362572         1022 
 1836000   0.51133765   -8.1944707    259.37559  0.011772676 0.0099272829         1104 
 1837000   0.50851178   -8.1780889    259.48678  0.011771311   0.00991832          986 
 1838000   0.52364008   -8.1757448    259.61804  0.011770858 0.0099093703          975 
 1839000    0.5296777   -8.1754298    259.66307  0.011766498 0.0099004422         1002 
 1840000   0.52711513   -8.1811009    259.36563  0.011746632 0.0098915082         1053 
 1841000   0.52563503   -8.1705037    259.72313  0.011756434 0.0098825882          921 
 1842000    0.5199842   -8.1811197    259.46194  0.011738235 0.0098736844         1018 
 1843000   0.52129116   -8.1678904    259.81202  0.011747695 0.0098647865         1064 
 1844000   0.52092554   -8.1924499    259.01906  0.011705489 0.0098558977         1073 
 1845000   0.51258169   -8.1759174    259.73437  0.011731453 0.0098470189         1023 
 1846000   0.51920185   -8.1952288    259.16474  0.011699384 0.0098381586          974 
 1847000    0.5109439   -8.1784861    259.76989  0.011720352 0.0098292931          855 
 1848000   0.52368555   -8.1860028    259.80174  0.011715447 0.0098204383         1019 
 1849000   0.51152579   -8.1899348    259.01833  0.011673802 0.0098115926         1035 
 1850000   0.49965741    -8.182918    259.09701  0.011671037 0.0098027606         1004 
 1851000   0.50295714   -8.2134679    258.94098  0.011657707 0.0097939431         1098 
 1852000   0.51804372   -8.1843225    259.61742   0.01168185 0.0097851367         1049 
 1853000   0.50740637   -8.1945365    259.27592  0.011660187 0.0097763415         1068 
 1854000   0.51999418   -8.1959747    259.03806  0.011643207 0.0097675519         1063 
 1855000   0.51134392   -8.1833121    259.05569  0.011637722 0.0097587654         1005 
 1856000   0.51031904   -8.1887956    259.45617  0.011649433 0.0097500003         1140 
 1857000   0.51509251   -8.1992364    259.09246  0.011626838 0.0097412486         1068 
 1858000   0.51603567   -8.1940562    259.24063  0.011627226 0.0097325135         1072 
 1859000   0.51818483   -8.1885227    259.50291  0.011632729 0.0097237817         1014 
 1860000   0.51431435   -8.1952836    259.11273  0.011608993 0.0097150611         1032 
 1861000   0.51061429   -8.1984831    259.01063  0.011598183 0.0097063476          998 
 1862000   0.50159961   -8.1886126    259.59048  0.011617905  0.009697642         1047 
 1863000    0.5064084    -8.191348    259.17928  0.011593276 0.0096889525          993 
 1864000   0.51441639   -8.1919844    259.38039  0.011596047 0.0096802589         1075 
 1865000   0.52508579   -8.1983587    259.49067  0.011594757 0.0096715913         1101 
 1866000   0.50259732   -8.1816264      259.178   0.01157458 0.0096629285         1088 
 1867000   0.49888781    -8.195282    259.64637  0.011589286   0.00965427         1068 
 1868000   0.49331861   -8.1839934    259.07508  0.011557596 0.0096456325         1084 
 1869000   0.50318728   -8.1996351    259.34431  0.011563417 0.0096369991         1035 
 1870000   0.51531936   -8.2100169    259.88415   0.01158129 0.0096283792         1011 
 1871000   0.51696838   -8.2066381    258.95025  0.011533505 0.0096197647         1025 
 1872000    0.5136397    -8.200022    259.20251  0.011538573  0.009611149         1119 
 1873000    0.4987309   -8.2067445    259.17183  0.011531048 0.0096025526         1022 
 1874000   0.49317471   -8.2052444     258.9104  0.011513269 0.0095939667         1142 
 1875000   0.51412637   -8.2224026    258.83393   0.01150373 0.0095853908         1061 
 1876000   0.50134978   -8.1898863    259.15764  0.011511978 0.0095768294         1071 
 1877000   0.50099609    -8.190306    259.26626  0.011510667 0.0095682788         1081 
 1878000   0.49457444   -8.1931607     259.1923  0.011501256 0.0095597374         1108 
 1879000   0.50001645   -8.2086152    259.02579   0.01148775  0.009551194         1160 
 1880000   0.50765405   -8.2112283    258.48502  0.011457669 0.0095426616         1105 
 1881000   0.51149566   -8.2116108    259.11605  0.011479534  0.009534144         1044 
 1882000   0.50485152   -8.2009223    259.28342  0.011480846 0.0095256354         1064 
 1883000   0.49781031   -8.1919545    259.57441  0.011487627 0.0095171451         1055 
 1884000   0.50498176   -8.2021105    259.04002  0.011457892 0.0095086615         1073 
 1885000   0.50630287   -8.2101416    258.80095  0.011441244 0.0095001895         1120 
 1886000   0.50427422   -8.2115949    259.08068  0.011447538 0.0094917215         1095 
 1887000   0.48842812   -8.1875722    258.70202  0.011424749 0.0094832615         1086 
 1888000   0.50802764   -8.2149525    259.16409  0.011439093 0.0094748123         1111 
 1889000   0.48781597   -8.2236579    259.49739  0.011447741  0.009466375         1012 
 1890000   0.50542395   -8.2011812    259.16868  0.011427191 0.0094579479         1096 
 1891000   0.49745718   -8.2158919    258.69794  0.011400403 0.0094495305         1060 
 1892000   0.49299094   -8.2191044    258.73789  0.011396137 0.0094411166         1138 
 1893000   0.50653871    -8.208055    259.12287  0.011407064 0.0094327172         1045 
 1894000   0.50228698   -8.2156863    258.95513  0.011393661 0.0094243347         1057 
 1895000   0.49657778   -8.2116981    259.12056  0.011394923 0.0094159522         1117 
 1896000    0.4805878   -8.2221072    259.21163  0.011392916  0.009407585         1070 
 1897000   0.50660453   -8.2174648    259.20058  0.011386425  0.009399221         1060 
 1898000   0.49397454   -8.1986737    259.10238  0.011376114  0.009390867         1110 
 1899000   0.49510027   -8.2203403    259.58643  0.011391365   0.00938253         1106 
 1900000   0.50578737   -8.2176865    258.84835  0.011352998 0.0093742031         1097 
 1901000   0.48333127    -8.210688    258.79803   0.01134482 0.0093658766         1025 
 1902000   0.48986752   -8.2170543    258.76471  0.011337395 0.0093575523         1040 
 1903000   0.48615322   -8.2264762    258.86602  0.011335874 0.0093492458         1081 
 1904000   0.48885665   -8.2211229     259.0789  0.011339238 0.0093409419         1068 
 1905000   0.48930801   -8.2267692    259.08542  0.011333571 0.0093326626         1087 
 1906000   0.50244244   -8.2269958    258.93703  0.011321136 0.0093243896         1140 
 1907000   0.48546971   -8.2292776    259.42997   0.01133674   0.00931612         1049 
 1908000   0.48586903    -8.226967    258.89441  0.011307408 0.0093078579         1143 
 1909000   0.48940828   -8.2270006    258.98606  0.011305485 0.0092996098         1093 
 1910000   0.48330994   -8.2302891    258.99228  0.011299838 0.0092913649         1071 
 1911000   0.50033385   -8.2179901    258.90528  0.011290131 0.0092831476         1077 
 1912000   0.48057964   -8.2172763    258.35931   0.01126043 0.0092749282         1109 
 1913000   0.49743604   -8.2162034    258.94906  0.011280234 0.0092667198         1075 
 1914000   0.48529954   -8.2209438    258.54938  0.011256939  0.009258513         1102 
 1915000   0.49108457   -8.2426834    259.00647  0.011270952 0.0092503175         1072 
 1916000   0.48931901   -8.2414025    258.56837  0.011246015 0.0092421253         1055 
 1917000   0.49743784   -8.2302103    258.78298  0.011249477 0.0092339411          998 
 1918000   0.49232955   -8.2351789    258.51617   0.01123202  0.009225777         1064 
 1919000   0.49091391   -8.2412763    258.75162  0.011236391  0.009217611         1068 
 1920000   0.48448798   -8.2555265    258.66509  0.011226783  0.009209455         1066 
 1921000    0.4870813   -8.2228433    258.22079  0.011201666 0.0092013101         1032 
 1922000   0.48105522   -8.2454908    258.71753  0.011217375 0.0091931787         1100 
 1923000   0.47925606   -8.2379294    258.62896  0.011207703 0.0091850567         1043 
 1924000   0.47164156   -8.2290105    258.44768  0.011194026 0.0091769481         1088 
 1925000   0.48599224   -8.2445585    259.17945   0.01121989 0.0091688464         1044 
 1926000   0.48305475   -8.2447687    259.46648  0.011226483 0.0091607513         1020 
 1927000    0.4821067   -8.2349982    258.79755  0.011191729 0.0091526651         1092 
 1928000   0.48457152   -8.2426088     259.1851  0.011202676 0.0091445982         1079 
 1929000   0.47941264   -8.2280702    259.07394  0.011192066 0.0091365325         1100 
 1930000   0.48933354   -8.2390415    258.78692  0.011173874 0.0091284784         1070 
 1931000    0.4808857   -8.2458576    258.46231  0.011154079 0.0091204343         1084 
 1932000   0.49380817   -8.2429834    258.53963   0.01115164 0.0091123964         1051 
 1933000    0.4770461   -8.2448266    258.54495  0.011146101 0.0091043655         1124 
 1934000   0.48294263   -8.2326139    258.53546  0.011139928 0.0090963519         1055 
 1935000   0.47811267   -8.2318695    258.83502  0.011147073 0.0090883482         1139 
 1936000   0.47524789   -8.2619681    258.69569  0.011135317 0.0090803446         1055 
 1937000   0.47967127    -8.234754    258.50893  0.011121534 0.0090723463         1067 
 1938000   0.47374128   -8.2616688    258.58412  0.011119028 0.0090643602         1019 
 1939000   0.47925808   -8.2392121    258.80827  0.011122927 0.0090563784         1106 
 1940000   0.49359755   -8.2540625    259.01997  0.011126287 0.0090484162         1144 
 1941000   0.47939132   -8.2391811    258.62588  0.011103636 0.0090404568         1118 
 1942000   0.48906816   -8.2464373    258.38059  0.011087392 0.0090325052         1203 
 1943000   0.49228464   -8.2558611    258.57705  0.011090112 0.0090245614         1111 
 1944000   0.47793657   -8.2407399    258.78679  0.011093398 0.0090166308         1066 
 1945000   0.48104456   -8.2430842    258.71184  0.011084483 0.0090087052         1007 
 1946000   0.48270454   -8.2527506    258.84638  0.011084549 0.0090008051         1062 
 1947000   0.48163999   -8.2553741    258.56502  0.011066813 0.0089929033         1059 
 1948000   0.46909606   -8.2480247     258.9042  0.011075642 0.0089850112         1120 
 1949000    0.4746319   -8.2506485    258.44089  0.011050149 0.0089771312          995 
 1950000   0.46394369   -8.2554424    258.32641   0.01103959 0.0089692542         1102 
 1951000   0.47875769   -8.2464145    258.57619  0.011044601 0.0089613828         1092 
 1952000   0.47653238   -8.2632796     258.2428   0.01102471 0.0089535222         1085 
 1953000   0.47269728   -8.2539945    258.50174  0.011030114 0.0089456736         1131 
 1954000   0.47515359   -8.2421261    258.99048  0.011045312 0.0089378317         1087 
 1955000   0.46834865   -8.2456513     258.6757  0.011026245 0.0089300001         1099 
 1956000   0.48608875   -8.2623501    258.38951  0.011008415 0.0089221753         1053 
 1957000   0.47851455   -8.2667434    258.12191  0.010991395 0.0089143657         1086 
 1958000   0.47461865   -8.2641106    258.44103  0.010999363 0.0089065603         1170 
 1959000    0.4664239   -8.2758556    258.58907  0.011000045 0.0088987538         1130 
 1960000   0.47600479   -8.2694656    258.56204  0.010993284 0.0088909612         1092 
 1961000   0.45441342   -8.2744526    258.22633  0.010973412 0.0088831761         1084 
 1962000   0.46983039   -8.2486569    258.22732  0.010967861 0.0088754058         1113 
 1963000   0.46643977   -8.2536692    257.77982  0.010943276 0.0088676386         1095 
 1964000   0.46862471   -8.2679422    257.84438  0.010940444  0.008859877         1071 
 1965000   0.46946558   -8.2707758    258.21742  0.010950696 0.0088521228         1042 
 1966000   0.46218647   -8.2695388    258.47593  0.010956084 0.0088443722         1128 
 1967000    0.4553388   -8.2645286    258.14497  0.010936493 0.0088366315         1104 
 1968000    0.4590033    -8.272118    258.05932  0.010927309 0.0088289025         1180 
 1969000   0.46853557   -8.2824526    258.33445  0.010933403 0.0088211901         1157 
 1970000    0.4608199   -8.2505685    258.49591  0.010934683 0.0088134846         1129 
 1971000   0.46226085   -8.2624101    258.39897  0.010925037  0.008805785         1100 
 1972000   0.45819974   -8.2553194    257.80198  0.010894269 0.0087980908         1203 
 1973000   0.46231374   -8.2702103    258.11571  0.010901998 0.0087904086         1095 
 1974000   0.46288965   -8.2710452    258.13565  0.010897317 0.0087827423         1163 
 1975000    0.4722343   -8.2670231    257.99612  0.010885912 0.0087750779         1216 
 1976000   0.46146217   -8.2567542    258.03437  0.010882016  0.008767421         1142 
 1977000   0.46021959   -8.2762374    258.35452  0.010890007 0.0087597701         1077 
 1978000   0.46265941   -8.2739893    258.04296  0.010871375 0.0087521345         1124 
 1979000   0.46488752   -8.2632768    257.61598  0.010847902 0.0087445072         1214 
 1980000   0.46363567   -8.2600073    258.03864  0.010860212 0.0087368844         1153 
 1981000   0.45780348   -8.2806573    258.24338  0.010863342 0.0087292677         1158 
 1982000   0.45704827    -8.262411    258.32747  0.010861397 0.0087216653         1113 
 1983000   0.46259069   -8.2668158    258.56062  0.010865718 0.0087140722         1209 
 1984000   0.46561073   -8.2610925     258.3722  0.010852327 0.0087064862         1201 
 1985000   0.46552164   -8.2772172    258.07312  0.010834304 0.0086989089         1142 
 1986000   0.46141945   -8.2605085    258.00405   0.01082595   0.00869134         1122 
 1987000    0.4600458   -8.2898034     258.1922  0.010828393 0.0086837765         1107 
 1988000   0.46138524   -8.2702864    258.24285  0.010825069 0.0086762208         1186 
 1989000   0.44869619   -8.2757454    257.99833  0.010809382  0.008668685         1150 
 1990000   0.46378124    -8.277385    258.02509  0.010805071 0.0086611595         1231 
 1991000    0.4637937   -8.2837913    258.02511  0.010799645 0.0086536409         1154 
 1992000   0.46262935    -8.279411    257.91913  0.010789789 0.0086461208         1190 
 1993000   0.46036501   -8.2802234    258.40863  0.010804843 0.0086386163         1198 
 1994000   0.45162243   -8.2828857     258.2384   0.01079231  0.008631117         1177 
 1995000   0.45660369   -8.2754338    258.36141  0.010792039 0.0086236298         1139 
 1996000   0.46531746   -8.2813434    257.76003  0.010761524 0.0086161537         1089 
 1997000   0.46140023   -8.2956356    258.46646  0.010785614 0.0086086882         1105 
 1998000   0.45568706   -8.2788758    258.23459  0.010770545 0.0086012324         1181 
 1999000   0.46272767   -8.2906235    258.03183  0.010756705 0.0085937758         1158 
 2000000   0.45971358    -8.289684    257.56681   0.01073195 0.0085863253         1143 
 2001000   0.46199146   -8.2728576    258.02512  0.010745674 0.0085788884         1189 
 2002000   0.44578303   -8.2822213    257.99148  0.010738906  0.008571454         1166 
 2003000   0.44956521   -8.2820579    258.11275   0.01073859 0.0085640319         1108 
 2004000   0.44913714   -8.2847716    258.15865   0.01073514 0.0085566111         1127 
 2005000    0.4485124   -8.2952463    257.79732  0.010714768 0.0085491984         1145 
 2006000   0.45002147   -8.2806625    257.73388  0.010706791 0.0085417939         1163 
 2007000   0.44906632   -8.2972855    258.16868   0.01071951 0.0085344095         1072 
 2008000   0.45986592   -8.2969118    257.91864  0.010703795 0.0085270275         1243 
 2009000   0.45357969   -8.2708355    257.99526  0.010701645 0.0085196571         1108 
 2010000   0.45581236   -8.2856019    257.83285  0.010689587 0.0085122949         1133 
 2011000   0.45202396   -8.2946487    258.60168  0.010716131 0.0085049359         1203 
 2012000   0.46029968   -8.3047692    257.88364  0.010681065 0.0084975921         1190 
Loop time of 5271.98 on 48 procs for 2000000 steps with 4000 atoms

Performance: 65554.164 tau/day, 379.364 timesteps/s
99.4% CPU use with 48 MPI tasks x no OpenMP threads

MPI task timing breakdown:
Section |  min time  |  avg time  |  max time  |%varavg| %total
---------------------------------------------------------------
Pair    | 374.12     | 404.29     | 435.89     |  69.3 |  7.67
Neigh   | 36.802     | 38.39      | 39.803     |  11.4 |  0.73
Comm    | 328.9      | 359.4      | 395        |  78.2 |  6.82
Output  | 5.3198     | 5.3223     | 5.3768     |   0.3 |  0.10
Modify  | 4399.8     | 4415.2     | 4432.1     |  11.6 | 83.75
Other   |            | 49.36      |            |       |  0.94

Nlocal:        83.3333 ave          88 max          78 min
Histogram: 2 1 3 3 7 10 7 7 4 4
Nghost:        2432.94 ave        2449 max        2410 min
Histogram: 2 1 2 1 9 11 8 6 5 3
Neighs:        16886.9 ave       18829 max       14475 min
Histogram: 2 6 1 6 4 6 7 7 3 6
FullNghs:      33773.5 ave       35752 max       31453 min
Histogram: 2 1 5 5 7 11 5 6 2 4

Total # of neighbors = 1621126
Ave neighs/atom = 405.28150
Neighbor list builds = 106664
Dangerous builds = 0

#clear
#
#next RN
#
#jump SELF
Total wall time: 1:27:55
