
units lj                  # Use reduced LJ style units
atom_style atomic         # Uncharged point particles
atom_modify map hash      # Needed for indexing of clusters etc
                          # Used to be able to find where atoms are in relation to each other.

lattice fcc 1.0 spacing 1 1 1
Lattice spacing in x,y,z = 1.5874011 1.5874011 1.5874011
region box block 0 10 0 10 0 10 units lattice
create_box 2 box
Created orthogonal box = (0.0000000 0.0000000 0.0000000) to (15.874011 15.874011 15.874011)
  3 by 4 by 4 MPI processor grid
create_atoms 1 box
Created 4000 atoms
  using lattice units in orthogonal box = (0.0000000 0.0000000 0.0000000) to (15.874011 15.874011 15.874011)
  create_atoms CPU = 0.049 seconds
set type 1 type/fraction 2 0.11 78393
Setting atom values ...
  470 settings made for type/fraction
mass 1 1.0
mass 2 1.0
pair_style lj/cut  3.5
pair_modify tail  yes
pair_coeff 1  1  1.0  1.0   # Intearaction between 1 and 1 set with epsilon = 1 and sigma = 1
pair_coeff 1  2  1.5  0.8
pair_coeff 2  2  0.5  0.88

write_data data.0
System init for write_data ...
Neighbor list info ...
  update every 1 steps, delay 10 steps, check yes
  max neighbors/atom: 2000, page size: 100000
  master list distance cutoff = 3.8
  ghost atom cutoff = 3.8
  binsize = 1.9, bins = 9 9 9
  1 neighbor lists, perpetual/occasional/extra = 1 0 0
  (1) pair lj/cut, perpetual
      attributes: half, newton on
      pair build: half/bin/atomonly/newton
      stencil: half/bin/3d
      bin: standard
WARNING: Not all mixed pair coeffs generated from mixing. Use write_data with 'pair ij' option to store all pair coeffs. (../write_data.cpp:312)


#############################
#   M E L T   S Y S T E M   #
#############################

velocity all create 2.4 9580093 mom yes dist gaussian # Assign velocities
                                                    # Temperature 2.4, random number seed, zero linear momentum
                                                                                # Gaussian distribution

timestep 0.002   # simulation timestep
thermo 1000       # output thermodynamic data every 1000 steps bf 100

# Define a fix  in this case with index 1 applied to all
# particles in the simulation. This fix is for simulations
# in the anisotropic NPT ensemble. Note that we use the MTK
# correction.
fix 1 all npt temp 2.4 2.4 0.1 iso 5.68 5.68 0.5 mtk yes tchain 5 pchain 5 # Use NPT ensemble
                                                                         # Set temperature and pressure and damping
                                                                         # Numbers of thermostats in chain and in barostat
run 10000          # run for 10000 steps
Per MPI rank memory allocation (min/avg/max) = 3.642 | 3.644 | 3.648 Mbytes
Step Temp E_pair E_mol TotEng Press Volume 
       0          2.4   -7.6169122            0   -4.0178122   -3.1065461         4000 
    1000    2.4382433   -4.6346746            0  -0.97822399    5.5565829     4818.999 
    2000    2.4492766   -4.6342297            0  -0.96123333    5.9498075     4766.219 
    3000    2.3852856   -4.6342817            0   -1.0572479    6.0490951    4752.6906 
    4000     2.353311   -4.7023413            0   -1.1732572    5.2770388    4807.3144 
    5000    2.3955659   -4.6260833            0   -1.0336329     5.700234     4803.706 
    6000    2.3804523   -4.6953392            0   -1.1255534    5.4309872     4790.527 
    7000    2.4060699   -4.6194558            0   -1.0112531     5.812173    4789.8671 
    8000    2.4291535   -4.6440641            0   -1.0012448    5.9023175    4762.7397 
    9000    2.4477037   -4.6425133            0  -0.97187566    5.7371069    4792.8744 
   10000    2.3518464   -4.6074793            0   -1.0805917    5.5387602    4830.6004 
Loop time of 2.22818 on 48 procs for 10000 steps with 4000 atoms

Performance: 775521.695 tau/day, 4487.973 timesteps/s
99.6% CPU use with 48 MPI tasks x no OpenMP threads

MPI task timing breakdown:
Section |  min time  |  avg time  |  max time  |%varavg| %total
---------------------------------------------------------------
Pair    | 0.91332    | 0.96484    | 1.06       |   3.2 | 43.30
Neigh   | 0.19061    | 0.19991    | 0.22074    |   1.1 |  8.97
Comm    | 0.64996    | 0.76909    | 0.86419    |   5.3 | 34.52
Output  | 0.00024068 | 0.00024483 | 0.00031068 |   0.0 |  0.01
Modify  | 0.22213    | 0.2801     | 0.34452    |   5.8 | 12.57
Other   |            | 0.01399    |            |       |  0.63

Nlocal:        83.3333 ave          97 max          74 min
Histogram: 2 6 8 8 9 5 6 2 1 1
Nghost:        1452.46 ave        1487 max        1423 min
Histogram: 3 2 7 6 9 7 8 4 0 2
Neighs:        7887.69 ave        9682 max        6933 min
Histogram: 7 8 6 8 9 5 2 1 0 2

Total # of neighbors = 378609
Ave neighs/atom = 94.652250
Neighbor list builds = 915
Dangerous builds = 264

# Equilibrate just above the melting temperature to avoid step fn in T

fix 1 all npt temp 1.25 1.25 0.1 iso 5.68 5.68 0.5 mtk yes tchain 5 pchain 5
run 2000
Per MPI rank memory allocation (min/avg/max) = 3.642 | 3.644 | 3.648 Mbytes
Step Temp E_pair E_mol TotEng Press Volume 
   10000    2.3518464   -4.6074793            0   -1.0805917    5.5387602    4830.6004 
   11000    1.2322494   -6.2248154            0   -4.3769034    5.5692814    3957.2531 
   12000    1.2355279   -6.2511199            0   -4.3982914    5.8324353    3933.4279 
Loop time of 0.48022 on 48 procs for 2000 steps with 4000 atoms

Performance: 719670.384 tau/day, 4164.759 timesteps/s
99.7% CPU use with 48 MPI tasks x no OpenMP threads

MPI task timing breakdown:
Section |  min time  |  avg time  |  max time  |%varavg| %total
---------------------------------------------------------------
Pair    | 0.20973    | 0.22449    | 0.26619    |   2.0 | 46.75
Neigh   | 0.03141    | 0.032953   | 0.038354   |   0.6 |  6.86
Comm    | 0.13507    | 0.16612    | 0.1943     |   3.5 | 34.59
Output  | 4.6336e-05 | 4.733e-05  | 6.0854e-05 |   0.0 |  0.01
Modify  | 0.03623    | 0.052328   | 0.069228   |   5.2 | 10.90
Other   |            | 0.004285   |            |       |  0.89

Nlocal:        83.3333 ave          92 max          77 min
Histogram: 3 0 9 8 17 2 4 0 3 2
Nghost:        1658.21 ave        1676 max        1634 min
Histogram: 2 0 3 8 8 6 5 6 3 7
Neighs:        9687.46 ave       10748 max        8910 min
Histogram: 4 3 9 8 11 4 3 1 2 3

Total # of neighbors = 464998
Ave neighs/atom = 116.24950
Neighbor list builds = 142
Dangerous builds = 12

#############################
# L I N E A R  Q U E N C H  #
#############################

# Define solid atoms. This closely follows ten Wolde  Ruiz-Montero and Frenkel  Faraday Discuss  1996  104  93-110
# Compute components of the per-atom q6 vector
compute q6 all orientorder/atom degrees 1 6 components 6 nnn NULL cutoff 1.3 # compute the Q6 parameter.
                                                                             # Use all neighbours within 1.3 unit cell.

# get number of connections
compute coord_number all coord/atom orientorder q6 0.5

# An atom is solid if it has 8 or more connections (of a possible 14)
variable is_solid atom c_coord_number>=8
group solid dynamic all var is_solid    # Must be dynamic to update
dynamic group solid defined

# do clustering
compute cluster solid cluster/atom 1.3 # Create a cluster where all atoms within are solid and max 1.3 units from another member

# define chunks one chunk per cluster
compute clus_chunks solid chunk/atom c_cluster nchunk every compress yes  # Says which atoms are in which chunk

# count the size of each chunk
compute size_chunks solid property/chunk clus_chunks count


# Find the maximum entry in the vector of chunk sizes
variable max_n equal max(c_size_chunks)


# Thermo style which includes this variable
# thermo_style custom step temp pe vol v_max_n

thermo ${N}  # Print the thermo information every 100 steps
thermo 1000  

# Reset the npt fix at a lower temperature (below freezing)
fix 1  all npt temp  ${temp} ${temp}  0.1  iso  5.68  5.68  0.5  mtk yes tchain  5  pchain  5
fix 1  all npt temp  0.45 ${temp}  0.1  iso  5.68  5.68  0.5  mtk yes tchain  5  pchain  5
fix 1  all npt temp  0.45 0.45  0.1  iso  5.68  5.68  0.5  mtk yes tchain  5  pchain  5

dump dmp2 all dcd ${N} traj.dcd
dump dmp2 all dcd 1000 traj.dcd


compute msd all msd com yes
variable twopoint equal c_msd[4]/6/(step*dt+1.0e-6)
fix 9 all vector 10 c_msd[4]
variable fit equal slope(f_9)/6/(10*dt)
thermo_style custom step temp pe c_msd[4] v_twopoint v_fit v_max_n

fix 1 all npt temp 1.25 ${temp} 0.1 iso 5.68 5.68 0.5 mtk yes tchain 5 pchain 5
fix 1 all npt temp 1.25 0.45 0.1 iso 5.68 5.68 0.5 mtk yes tchain 5 pchain 5
run 500000 # 5000000  # Run for this many steps
Neighbor list info ...
  update every 1 steps, delay 10 steps, check yes
  max neighbors/atom: 2000, page size: 100000
  master list distance cutoff = 3.8
  ghost atom cutoff = 3.8
  binsize = 1.9, bins = 9 9 9
  4 neighbor lists, perpetual/occasional/extra = 1 3 0
  (1) pair lj/cut, perpetual
      attributes: half, newton on
      pair build: half/bin/atomonly/newton
      stencil: half/bin/3d
      bin: standard
  (2) compute orientorder/atom, occasional
      attributes: full, newton on
      pair build: full/bin/atomonly
      stencil: full/bin/3d
      bin: standard
  (3) compute coord/atom, occasional
      attributes: full, newton on
      pair build: full/bin/atomonly
      stencil: full/bin/3d
      bin: standard
  (4) compute cluster/atom, occasional
      attributes: full, newton on
      pair build: full/bin/atomonly
      stencil: full/bin/3d
      bin: standard
Per MPI rank memory allocation (min/avg/max) = 9.752 | 9.758 | 9.762 Mbytes
Step Temp PotEng c_msd[4] v_twopoint v_fit v_max_n 
   12000    1.2355279   -6.2511199 2.0380221e-30 1.4152931e-32 8.3333333e+20            2 
   13000      1.21884   -6.2875478   0.55997091  0.003589557  0.046664669            2 
   14000    1.2394077   -6.2566872    1.1397263 0.0067840848  0.047064957            5 
   15000    1.2274421   -6.2732381     1.736176 0.0096454219  0.048034013            1 
   16000    1.2449011    -6.270677    2.3076038   0.01201877  0.048467391            2 
   17000    1.2418692   -6.2786175    2.8656994  0.014047546  0.048270389            2 
   18000    1.2481019   -6.2923664    3.4819518  0.016120147  0.048334996            3 
   19000    1.2333489   -6.2758337     3.998312  0.017536456  0.048210154            2 
   20000    1.2420323   -6.3258241    4.4927168  0.018719653  0.047646484            2 
   21000    1.1985036   -6.2753013    5.0076785   0.01987174  0.046875443            2 
   22000    1.2234661   -6.2681439    5.4985027  0.020827661  0.046314838            2 
   23000    1.2179532   -6.3101394    5.9433613  0.021533917  0.045678599            2 
   24000    1.2419321   -6.3001331    6.4614367  0.022435543  0.045043819            2 
   25000    1.2411157   -6.2615756    6.9971878  0.023323959  0.044602224            1 
   26000    1.2185562   -6.2973082    7.5751769  0.024279413  0.044448816            2 
   27000    1.2335435   -6.3223369    8.0911982  0.024972834  0.044346957            1 
   28000    1.2087399   -6.2915148    8.5648191  0.025490532  0.044210452            2 
   29000    1.2258959   -6.3019691    9.0150158  0.025905217  0.044026313            7 
   30000    1.2195589   -6.2678498    9.4055981  0.026126661  0.043759276            3 
   31000    1.2293664   -6.2829617    9.7752993  0.026277686  0.043351289            3 
   32000    1.2230928   -6.2980464    10.264875  0.026731446  0.042909615            3 
   33000    1.1886551   -6.3062562    10.793401  0.027256062  0.042575637            4 
   34000    1.2060915   -6.3260493    11.332609  0.027776003  0.042379069            2 
   35000     1.240552   -6.3252859    11.896135  0.028324131  0.042256394            1 
   36000    1.2252786   -6.3599014    12.380154  0.028657762   0.04216943            3 
   37000    1.2057872   -6.3126208    13.019807  0.029323888  0.042149745            2 
   38000    1.2248898   -6.3008371    13.465393   0.02952937  0.042166496            1 
   39000    1.2309924   -6.3456727    13.999207  0.029912836  0.042165712            3 
   40000    1.1975275   -6.3776643    14.480143  0.030166965  0.042190097            2 
   41000     1.180963   -6.3540041    14.896245  0.030276921  0.042181842            2 
   42000    1.1902098   -6.3766289    15.268802  0.030295242  0.042125915            3 
   43000    1.2134469   -6.3490768    15.720071  0.030465254  0.041992918            3 
   44000    1.2233163    -6.345463    16.068633  0.030433017  0.041831337            3 
   45000    1.1564414   -6.3109339    16.583567   0.03071031  0.041669374            2 
   46000     1.203883   -6.3176773    17.100405  0.030978995   0.04154534            5 
   47000    1.2189118   -6.3707694    17.469853  0.030974917  0.041424101            2 
   48000    1.2241091   -6.3329231    18.055868  0.031346992  0.041304716            4 
   49000    1.2047875   -6.3501078    18.443717  0.031366865  0.041215606            2 
   50000    1.1885148   -6.3403159    19.026714  0.031711189  0.041132498            2 
   51000    1.1913678   -6.3936761    19.488781  0.031844413  0.041068429            3 
   52000       1.1869   -6.3810275    19.993932  0.032041557  0.041006495            2 
   53000    1.1421695   -6.3745444    20.376553  0.032038605  0.040961856            2 
   54000    1.1659737   -6.3673211    20.860449   0.03219205  0.040898042            2 
   55000    1.1761293   -6.3494274    21.341295  0.032335294  0.040819863            2 
   56000    1.1672067   -6.3522651    21.941922  0.032651669  0.040765292            5 
   57000    1.2000496   -6.3680901    22.261411  0.032545922  0.040709985            1 
   58000    1.1851402   -6.3830075    22.679226  0.032585094  0.040653185            1 
   59000    1.1758926   -6.4460745    23.144964  0.032690626  0.040591188            5 
   60000    1.1899768   -6.3549292    23.719298  0.032943469  0.040534031            3 
   61000    1.2045022   -6.3623615    24.154679  0.032998195  0.040490651            2 
   62000    1.1848078   -6.3548846    24.708622  0.033210513  0.040446346            3 
   63000    1.1727281   -6.3893786    24.953503  0.033007279  0.040380993            2 
   64000    1.1730034   -6.3983945     25.35277  0.033011419  0.040309629            3 
   65000    1.1864211   -6.4154248    25.911615  0.033220019  0.040247158            4 
   66000    1.1565976   -6.4565916    26.299703  0.033206696  0.040189149            6 
   67000    1.1632461   -6.4224183    26.737244  0.033255278  0.040124921            5 
   68000    1.1694271   -6.4477744    27.052033  0.033152001  0.040049729            5 
   69000    1.1686957   -6.4097491    27.534392  0.033254096  0.039977613            2 
   70000    1.1538069   -6.4252839    27.977534  0.033306588  0.039901571            2 
   71000    1.1504564   -6.4261276    28.356684  0.033282492  0.039831652            3 
   72000    1.1479307   -6.4187854    28.799454  0.033332701   0.03974945            2 
   73000    1.1497582   -6.4001561    29.105538  0.033225499  0.039657282            3 
   74000    1.1605044   -6.4311401    29.531915  0.033256661  0.039566863            8 
   75000    1.1557522    -6.421926    29.938622  0.033265135  0.039476448            4 
   76000    1.1611447   -6.4173582    30.375105  0.033306036  0.039383512            2 
   77000    1.1622994   -6.4503242    30.805063  0.033338813  0.039290659            3 
   78000    1.1481569   -6.4982344    31.115265  0.033242804  0.039203782            3 
   79000    1.1718988   -6.4587897    31.526277  0.033255567  0.039115597            3 
   80000    1.1644389   -6.4175302    31.957796  0.033289371  0.039026727            4 
   81000    1.1526265   -6.4489759    32.432374  0.033366639  0.038943799            3 
   82000    1.1108317   -6.4838937     32.83774  0.033371687  0.038867391            5 
   83000    1.1161547   -6.4497882    33.338759   0.03347265  0.038800422            3 
   84000    1.1425637   -6.4385659     33.61918  0.033352361  0.038732816            4 
   85000    1.1318174   -6.4699441     34.24106  0.033569667  0.038663785            3 
   86000    1.1390569   -6.4816649    34.706486  0.033630316  0.038608869            2 
   87000    1.1286579     -6.45378    35.198058  0.033714615  0.038554561            2 
   88000    1.1171337   -6.4507299    35.662848  0.033771636  0.038506894            9 
   89000    1.1418841   -6.4515145    36.204788  0.033899614  0.038466602            2 
   90000    1.1393189   -6.4897048    36.661785  0.033946097  0.038431277            6 
   91000    1.1329219   -6.4479853     37.02094   0.03390196  0.038393052            5 
   92000    1.1404841   -6.5190012    37.508401     0.033975  0.038354734            2 
   93000    1.1228113   -6.4594526     37.91791  0.033976621  0.038318795            3 
   94000    1.1214047   -6.4958354    38.322159  0.033973545  0.038281353            5 
   95000    1.1162821   -6.4853299    38.390825  0.033676162  0.038232129            7 
   96000    1.1164104   -6.4921607    38.951146  0.033811759  0.038173301            2 
   97000    1.1279661    -6.503798    39.091968  0.033584165  0.038118895            3 
   98000      1.10321   -6.4831108    39.725049  0.033779803  0.038064351            4 
   99000    1.1104233   -6.5004465    40.235106  0.033867934  0.038017139            3 
  100000    1.1079491   -6.5111368      40.7466    0.0339555  0.037973506            7 
  101000     1.103008   -6.4912569    41.158366  0.033959048  0.037929192            2 
  102000    1.1018151   -6.4938699    41.401016  0.033824359  0.037879107            4 
  103000    1.1084437   -6.5428794    41.895949  0.033896399  0.037824681            3 
  104000    1.0995797   -6.4914268    42.088455  0.033724723  0.037777153            6 
  105000    1.1094717   -6.5371477     42.41076  0.033659333  0.037721215            2 
  106000    1.1100541   -6.5156055    42.829158  0.033670722  0.037665191            6 
  107000    1.0824113   -6.5042598    43.273869   0.03370239    0.0376095            3 
  108000    1.1024803   -6.4908763    43.799675  0.033796045  0.037560865            7 
  109000    1.0943228   -6.5399884    43.967204   0.03361407   0.03751185            2 
  110000     1.085598   -6.5312513     44.43985  0.033666553  0.037460173            2 
  111000    1.0834497   -6.5416192    44.776387  0.033615906  0.037408073            3 
  112000    1.0986462   -6.5066348    45.112315  0.033565711  0.037354566            7 
  113000    1.0930117   -6.5631419     45.72988    0.0337241  0.037301851            5 
  114000      1.10264   -6.5470417    46.357302  0.033886917  0.037253278            3 
  115000    1.0905017   -6.5143661    46.512984   0.03370506  0.037204718            3 
  116000    1.1062056   -6.5452835    46.762589  0.033593814  0.037156082            6 
  117000    1.0642504   -6.5719036    47.018001  0.033488605  0.037099836            2 
  118000    1.0748502   -6.5600696    47.334363  0.033428222   0.03704014            3 
  119000     1.085087   -6.5595034    47.649329  0.033367877   0.03697143            4 
  120000    1.0678538   -6.5493873    47.981148  0.033320241  0.036904457            2 
  121000    1.0815824   -6.5720887    48.273763  0.033246393  0.036836018            3 
  122000    1.0678585   -6.5367538    48.553644  0.033165057   0.03676632            8 
  123000    1.0791172   -6.5593617    48.772633  0.033043789  0.036692852            2 
  124000    1.0619668   -6.5719466    49.158815  0.033036838  0.036622907            5 
  125000    1.0686355   -6.5881014    49.583078  0.033055385  0.036550735            2 
  126000    1.0365966   -6.5837505    49.994024   0.03306483  0.036482346            4 
  127000    1.0650513   -6.5967399     50.41369  0.033079849  0.036414773            4 
  128000    1.0607915   -6.5788338    50.937164  0.033162216  0.036352267            3 
  129000    1.0662353   -6.5564319    51.171411  0.033056467  0.036287519            4 
  130000    1.0815425   -6.5465302    51.348674  0.032915817  0.036221393            2 
  131000    1.0382054   -6.5999745    51.883881  0.033005013  0.036155221           12 
  132000    1.0579495    -6.601367    52.192737   0.03294996  0.036094312            2 
  133000    1.0348857   -6.6419958    52.352159  0.032802105   0.03603132            5 
  134000    1.0362437   -6.5908624    52.999197    0.0329597  0.035966658            3 
  135000    1.0447492   -6.5929581    53.240312   0.03286439  0.035904438            2 
  136000    1.0695562   -6.6116146    53.564884   0.03282162  0.035841791            4 
  137000    1.0391092   -6.5849253    53.746467  0.032692498  0.035774772            2 
  138000    1.0395089   -6.6555106    54.154008  0.032701695  0.035709674            5 
  139000     1.032054   -6.6356463    54.226676  0.032509997  0.035639691            2 
  140000    1.0225809   -6.6168537    54.624874  0.032514806  0.035566656            3 
  141000    1.0473101   -6.6238377    55.031083   0.03252428  0.035498224            5 
  142000    1.0384008   -6.6408067    55.427396  0.032527814  0.035430606            6 
  143000    1.0360646   -6.6650275      55.7868   0.03250979  0.035365359            6 
  144000    1.0199348   -6.6032289    56.270021   0.03256367  0.035302487            5 
  145000    1.0291788   -6.6417552    56.418948  0.032424683  0.035239132            4 
  146000    1.0180052   -6.6686447    57.028166  0.032550323  0.035176626            3 
  147000    1.0407146   -6.6675104    57.050177   0.03234137  0.035114756            6 
  148000    1.0330455   -6.6784168    57.304331  0.032265952  0.035053117            6 
  149000    1.0188153   -6.6768563    57.624292  0.032228351  0.034993081            2 
  150000    1.0342577   -6.6683502    58.180442  0.032322468  0.034930846            4 
  151000    1.0361335   -6.6296126    58.589791  0.032334322  0.034870911            7 
  152000     1.008234   -6.6950714    58.580298  0.032116391  0.034810548            3 
  153000    1.0152681   -6.6177152    59.178123  0.032232093  0.034747095            3 
  154000    1.0274246   -6.6753464    59.205289  0.032037494  0.034682597            5 
  155000    1.0233309   -6.6744784    59.471583  0.031973969  0.034616829            3 
  156000    1.0114871   -6.7111044    59.701201  0.031891667   0.03454811            3 
  157000    1.0302052   -6.6366221    60.054268  0.031875938  0.034481828            4 
  158000    1.0222616   -6.6748652    60.217714  0.031760398  0.034414905            3 
  159000    1.0198335   -6.6900643    60.534951  0.031726913  0.034346159            3 
  160000    1.0163451   -6.6834382    60.936823  0.031737928   0.03427503            3 
  161000    1.0354376   -6.7047836    61.159177  0.031655889  0.034205029            3 
  162000    1.0050807   -6.6680028    61.648088  0.031711979  0.034136882            6 
  163000    1.0287707   -6.6889896    61.592019  0.031488762  0.034066457            1 
  164000   0.99576367   -6.6977821    61.855838  0.031430812  0.033997253            2 
  165000   0.98384208   -6.6898636    62.543185  0.031587467  0.033929672            3 
  166000    1.0014744   -6.7321693    62.383137  0.031316836   0.03386002            2 
  167000   0.99081217   -6.7068336    62.571553   0.03122333  0.033786413            3 
  168000    1.0045802   -6.6921813    62.724226  0.031113207  0.033709566            2 
  169000   0.98426168   -6.7140789    62.959582  0.031045159  0.033632462            4 
  170000   0.99205579    -6.733075    62.973831  0.030869525  0.033554066           14 
  171000   0.97135296   -6.7169459    63.493839  0.030942417  0.033478806            4 
  172000   0.98438731   -6.7276975    63.512143  0.030771387  0.033400581            4 
  173000   0.99918155   -6.7293532    63.594394  0.030633137  0.033320175            6 
  174000   0.99613693   -6.7029938    63.926146   0.03061597  0.033238124            6 
  175000   0.99194727   -6.7820708    63.819254  0.030390121    0.0331539            3 
  176000   0.99225408    -6.719567    64.102359  0.030351496  0.033066769            4 
  177000   0.97233406   -6.7393994    64.598305  0.030413514  0.032979621            4 
  178000   0.97999025   -6.7064328    64.435208  0.030166296   0.03289258            7 
  179000   0.99641749   -6.7607991    64.846627  0.030189305  0.032806137            2 
  180000   0.97724368   -6.7468107    64.903233  0.030047793  0.032718183            2 
  181000   0.98312705   -6.7401339    64.971359  0.029913149  0.032627068            4 
  182000   0.99842443   -6.7549004    65.260106  0.029881001  0.032535766            8 
  183000   0.95417265   -6.7814796    65.570195  0.029858923  0.032447904            5 
  184000   0.98003112   -6.7576804    65.595824  0.029708253  0.032358729            4 
  185000   0.93896627   -6.7475822    66.207735  0.029823304  0.032270775            5 
  186000   0.97707222   -6.7796553    66.278061  0.029694472  0.032184564            9 
  187000   0.95818721   -6.7794781    66.510435  0.029639231  0.032098003            9 
  188000   0.96956498   -6.7426537    67.022384  0.029708503  0.032013427            3 
  189000   0.98345854   -6.7912386    67.101378  0.029586146  0.031930512            2 
  190000   0.96324168   -6.7882789    67.298548  0.029516907  0.031847338            6 
  191000    0.9397162   -6.7888115    67.563049   0.02947777  0.031763529            5 
  192000   0.94171889   -6.8290816    67.667292  0.029369484  0.031680149            3 
  193000   0.95245702   -6.8077291    67.913488  0.029323613   0.03159561            9 
  194000   0.93712689   -6.8164315     67.86406  0.029151228  0.031510949            6 
  195000   0.95919287   -6.7726855    68.453881  0.029253795  0.031427978            4 
  196000   0.95010636   -6.7860703    68.439607  0.029098472   0.03134361            5 
  197000   0.96958672   -6.8224484    68.492589  0.028973176  0.031258447            7 
  198000   0.95074409   -6.8132284    68.673148   0.02890284  0.031173312            3 
  199000   0.93677298   -6.8208782     68.86868  0.028839481  0.031088781            3 
  200000   0.93872802   -6.8322029    69.151197  0.028812999  0.031003813            9 
  201000   0.95199033   -6.8255453    69.403651  0.028774316  0.030918674            4 
  202000   0.95081678   -6.8464054     69.53575  0.028686365  0.030833498            7 
  203000   0.94508529   -6.8337529    69.654888  0.028593961  0.030748623            4 
  204000   0.95597348   -6.8570017    69.610013  0.028435463  0.030662818            6 
  205000   0.93731924   -6.8633241    69.813149  0.028379329  0.030575933            5 
  206000   0.95839792    -6.785244    69.794649  0.028234081  0.030488025            5 
  207000   0.94678462   -6.8603945    69.824677  0.028109773  0.030400081            4 
  208000   0.94409447   -6.8572294    70.233801  0.028138542  0.030312511            4 
  209000   0.93966801   -6.8402755    70.437615  0.028085173  0.030225064            6 
  210000   0.95255889    -6.859722    70.495899  0.027974563   0.03013751            3 
  211000   0.91932116   -6.8281846    70.975864  0.028031542   0.03004956            4 
  212000   0.92821961   -6.8448507    71.140619   0.02796408  0.029963538            7 
  213000   0.91137147   -6.8309141    71.357787  0.027917757  0.029877694           11 
  214000   0.92695784   -6.8672581    71.086672  0.027681726   0.02979226            6 
  215000   0.92910879   -6.8705103    71.524628  0.027722724  0.029707262            4 
  216000   0.93316288   -6.8318558    71.847669  0.027719008  0.029622294            4 
  217000   0.91918084   -6.8517782    71.968199  0.027637557  0.029537214            4 
  218000   0.91701765   -6.8562592    72.389589  0.027671861  0.029452876            6 
  219000   0.92220996   -6.8773621    72.247463  0.027491424  0.029368363            6 
  220000    0.9206622   -6.8657831    72.315362  0.027392183  0.029283222            3 
  221000   0.90550121   -6.8785864    72.441859  0.027315935  0.029198202            3 
  222000   0.90386366   -6.9173493    72.544485  0.027231413  0.029113004            4 
  223000   0.92440964   -6.9004589    72.639465  0.027144792  0.029028019            7 
  224000   0.89947329   -6.8897504    73.009954  0.027161441  0.028944942            3 
  225000   0.91852507   -6.9067234     73.39644  0.027183867    0.0288625            5 
  226000   0.91203268   -6.8929556    73.117843  0.026960857  0.028780573            7 
  227000   0.89877529   -6.8870052    73.802871  0.027093565  0.028699994            5 
  228000   0.89726302   -6.9039221    73.590783  0.026897216  0.028619793            5 
  229000   0.91873655    -6.875724    74.152286  0.026984092  0.028539276            3 
  230000   0.91821741   -6.9275495    74.284634  0.026914723  0.028460166            3 
  231000   0.90315371   -6.9141772    74.435913  0.026852783  0.028380621            7 
  232000   0.89405373   -6.9246208    74.509787  0.026763573  0.028301226            6 
  233000   0.90417641   -6.9329949    74.380407  0.026602434  0.028220863            3 
  234000   0.90342585   -6.9222325    74.617195  0.026573075  0.028141328            4 
  235000   0.89132365   -6.9072687    75.222626   0.02667469  0.028062979            3 
  236000   0.90113387   -6.9373285    75.285586  0.026583893  0.027985713           12 
  237000   0.88898978   -6.9490923    74.991775  0.026368416  0.027908517            4 
  238000   0.89359303   -6.9373816    75.366728   0.02638891  0.027830093            5 
  239000   0.88742592   -6.9388835    75.617836  0.026366052  0.027751964            3 
  240000   0.88597153   -6.9698187    75.622266  0.026257731  0.027674853            7 
  241000   0.87493927   -6.9007526    76.066915  0.026302529  0.027598128            4 
  242000    0.8764403   -6.9444268    76.020483  0.026177852  0.027522413            7 
  243000   0.87488822   -6.9255005    76.435235  0.026212358  0.027446706            8 
  244000    0.8725126   -6.9404626    76.305202   0.02606052  0.027371431            5 
  245000   0.87952165   -6.9749048    76.483237  0.026014706  0.027297648            7 
  246000   0.87239572   -6.9809635    76.668675  0.025971773  0.027223693           10 
  247000   0.84703452   -6.9444471    76.823922  0.025919002  0.027148808            5 
  248000   0.88612921   -6.9705517    77.009206  0.025876749  0.027075552            8 
  249000   0.87281526   -6.9571767    77.310882  0.025873789  0.027002426           10 
  250000   0.85797705   -6.9390047    77.225354  0.025741785  0.026929231           10 
  251000   0.88889341   -6.9691057     77.41542  0.025702331  0.026856618            6 
  252000   0.87033925   -6.9334754    77.708952  0.025697405  0.026784341            9 
  253000   0.85637756   -7.0025315    77.803797  0.025627074  0.026711674            6 
  254000   0.86543377   -6.9947082    77.793851  0.025522917  0.026638468            5 
  255000   0.86796968    -7.003378    77.868496  0.025447221  0.026566603            3 
  256000   0.84510086   -6.9824891    78.362636  0.025508671  0.026495518            3 
  257000   0.86649736   -7.0271486     78.37953  0.025414893  0.026425436           13 
  258000   0.86451806    -7.003147    78.746715  0.025434986  0.026354408            5 
  259000   0.87296018   -6.9793996      78.6057  0.025291409  0.026284472           10 
  260000    0.8493557   -6.9748078    79.050908  0.025336829  0.026215299            3 
  261000   0.84952452   -7.0312575    79.063223  0.025243685  0.026146314            7 
  262000   0.83564047   -6.9685852    79.151038  0.025175267  0.026077155           18 
  263000   0.85424643   -7.0042863    79.173927  0.025086796  0.026008529            5 
  264000   0.84018437    -7.007114    79.293482  0.025029508   0.02593923            5 
  265000   0.82525978    -7.053117    79.340752  0.024949922  0.025870368            6 
  266000    0.8463243   -7.0317351    79.560084  0.024924838  0.025802181            6 
  267000   0.83555659   -7.0100877    79.592115  0.024841484  0.025734229            6 
  268000   0.82070559    -7.041258    79.744193   0.02479608  0.025666159            6 
  269000   0.84930853   -7.0519595    79.813971  0.024725518   0.02559857            9 
  270000   0.84019242   -7.0084436     79.86574   0.02464992    0.0255304            8 
  271000   0.83764231   -7.0520165    79.756545  0.024525383  0.025461528            5 
  272000   0.84069337   -7.0315873    80.008218  0.024512322  0.025391912           14 
  273000   0.83622788   -7.0788967    80.196669  0.024480058  0.025322625           12 
  274000    0.8383732   -7.0662552    80.286104  0.024417915  0.025253713            7 
  275000   0.83557016    -7.078361    80.226179  0.024310963  0.025185409            5 
  276000   0.83296394   -7.0540298    80.360547   0.02426345  0.025116281            7 
  277000   0.84350834   -7.0534814    80.507425  0.024220043   0.02504685            9 
  278000   0.82089925   -7.0420259    80.598248  0.024160146  0.024977839           11 
  279000   0.84558528   -7.0871015    80.457387  0.024031478  0.024907571            6 
  280000   0.81627093   -7.0826121     80.44844  0.023942988   0.02483735            7 
  281000   0.81915973   -7.0725776    80.855165    0.0239784   0.02476754            4 
  282000   0.81441097    -7.069132    80.898999  0.023906323  0.024698339            7 
  283000   0.82478556   -7.0628548    81.230768  0.023919543  0.024629488            5 
  284000    0.8048901   -7.0648357    81.257114   0.02384305  0.024561396            6 
  285000    0.8103343   -7.0881362    81.386004  0.023797077  0.024493658           10 
  286000   0.81106391   -7.1026227    81.271738  0.023680576  0.024425332            8 
  287000   0.79038563   -7.1050711     81.30532  0.023607816  0.024357176            6 
  288000   0.79788861   -7.0839602    81.318314  0.023529605  0.024289305            8 
  289000    0.8037986   -7.0997283    81.405845  0.023473427  0.024220586            3 
  290000   0.80225322   -7.1044067    81.723157  0.023483666   0.02415256            6 
  291000   0.83307984   -7.0982559    81.931928  0.023462751  0.024084994           12 
  292000   0.78241246   -7.0912416    81.831699  0.023353795  0.024017331            5 
  293000   0.81250195   -7.1038504    81.748845  0.023250525  0.023949429            6 
  294000   0.79957255   -7.1237619    82.026447  0.023250127  0.023881343            9 
  295000   0.79843686   -7.1191154    81.998299  0.023163361  0.023813462            7 
  296000   0.79756585   -7.1296255    81.898469  0.023057001  0.023745978           11 
  297000   0.78889143   -7.1168941    81.945153  0.022992467  0.023678419            6 
  298000   0.79744943   -7.1427267    82.230576  0.022995128  0.023610305           11 
  299000   0.78623935   -7.1462392    82.205067  0.022911111  0.023542129            8 
  300000   0.80379949   -7.1089607    81.987531  0.022774314  0.023473919           11 
  301000   0.80974173   -7.1358255    82.241953   0.02276909  0.023405626            6 
  302000   0.77758953   -7.0995907     82.57538  0.022785701   0.02333868            6 
  303000   0.78650925   -7.1210977    82.381198  0.022657095  0.023271612           11 
  304000   0.78042439   -7.1433411    82.357909  0.022576181  0.023204655            8 
  305000   0.78051651   -7.1698681    82.693062  0.022593733  0.023137696           11 
  306000   0.79466971   -7.1589038    82.650676  0.022508354  0.023070668           12 
  307000   0.76411174    -7.165616    82.734987  0.022457923  0.023004316            7 
  308000   0.77782082   -7.1519846    82.726534   0.02238272  0.022938776           13 
  309000    0.7677186   -7.1388905    83.095725   0.02240985  0.022873259            5 
  310000   0.77204625   -7.1636105    83.184074   0.02236131  0.022808016           12 
  311000   0.77270502   -7.1825324    83.259175  0.022309532  0.022743036           11 
  312000   0.77552255   -7.1747458    83.424348  0.022282144  0.022678416            8 
  313000   0.77130149    -7.171656    83.497008    0.0222303  0.022613888            9 
  314000   0.76471094   -7.1713016    83.374046   0.02212687   0.02254943           14 
  315000   0.76353853   -7.1938917    83.338982   0.02204735  0.022485161           10 
  316000   0.75654814   -7.1968309    83.456177  0.022008486  0.022420779            5 
  317000   0.76414656   -7.1957149    83.532606   0.02195915  0.022356293           10 
  318000    0.7482506   -7.1849311    83.639344  0.021918067  0.022292364           23 
  319000   0.75227944   -7.2119281    83.593769  0.021837453  0.022228352           20 
  320000   0.74961872   -7.1949305    83.796204  0.021821928  0.022164729           23 
  321000   0.75997493   -7.2186076    83.672877  0.021721931   0.02210085           11 
  322000   0.76465699   -7.2163424     83.73378  0.021670233  0.022037306           11 
  323000     0.745736   -7.2358118    83.836743  0.021629707  0.021974282           12 
  324000   0.75274256   -7.2395044    83.919146  0.021584142  0.021911184           13 
  325000   0.76615631   -7.2114321    83.858284  0.021502124  0.021848106            5 
  326000   0.74076381   -7.2218308    84.136819  0.021507367  0.021785253            8 
  327000   0.75090969   -7.2342057    84.176818  0.021451788  0.021722466            5 
  328000   0.74363092   -7.2331245    84.189289  0.021389555  0.021660248            6 
  329000   0.74833679    -7.247842    84.189239  0.021324529  0.021597931            4 
  330000   0.75480995   -7.2369184    84.287892  0.021284821  0.021535699            5 
  331000   0.73470785   -7.2460285    84.317136  0.021227879  0.021473807           12 
  332000   0.73780396   -7.2666472    84.498297  0.021209412  0.021412492            9 
  333000   0.74329668   -7.2501217    84.383827  0.021117074  0.021351002           21 
  334000   0.73372994   -7.2706574    84.277907  0.021027422  0.021289353            7 
  335000   0.73602928   -7.2669737    84.369457  0.020987427  0.021227914            9 
  336000   0.73002276   -7.2659853    84.561777  0.020972663  0.021166734           14 
  337000   0.73293077   -7.2728245    84.713936  0.020948055  0.021105552           29 
  338000   0.70550878   -7.2984915    84.514618  0.020836937  0.021044374            9 
  339000   0.71680192   -7.2761768    84.839999  0.020855457  0.020983564           14 
  340000   0.70461433   -7.2817283    85.028154  0.020840234  0.020923004           10 
  341000    0.7005358   -7.2886658    84.633701  0.020682722  0.020862356           17 
  342000   0.71828724   -7.2793748    84.827395  0.020669443  0.020801687           22 
  343000   0.71655553   -7.3120513     84.83466  0.020610947   0.02074108           11 
  344000   0.73769607    -7.321634    84.896147  0.020565927  0.020681041           15 
  345000   0.71452698   -7.2784723    85.062317  0.020546453  0.020621268           16 
  346000   0.70931097   -7.2760229    85.139207  0.020505589  0.020561855           31 
  347000   0.71391052   -7.2802022    85.044782  0.020423819    0.0205025           33 
  348000   0.71228152   -7.3074684    85.181426  0.020397851   0.02044319           20 
  349000   0.72166329    -7.283023    85.170829  0.020336874  0.020384112           11 
  350000   0.70947938   -7.3205913     85.29808  0.020309067  0.020325321           10 
  351000   0.70514284   -7.3231056    85.276477  0.020246077  0.020266367           10 
  352000   0.70854147   -7.3299347    85.185006  0.020166905  0.020207631           14 
  353000   0.71233027    -7.310118    85.306097  0.020138361  0.020148679           16 
  354000   0.69292078   -7.3151939    85.501533  0.020127479   0.02009013            9 
  355000   0.69762988   -7.3382097     85.27445  0.020017477  0.020031791            7 
  356000   0.69950982   -7.3130406     85.51681   0.02001798  0.019973606            9 
  357000   0.70862902   -7.3455091    85.366991  0.019926935  0.019915763           13 
  358000   0.70868105    -7.303509    85.309975  0.019858002   0.01985744           21 
  359000   0.68351158   -7.3360188    85.346968  0.019811274  0.019799237            8 
  360000   0.69430769   -7.3433954    85.589859  0.019812467  0.019741224           12 
  361000   0.68568702   -7.3400063    85.465714  0.019728928  0.019683343            9 
  362000   0.68397447   -7.3590121    85.173693  0.019607204  0.019625253           12 
  363000   0.67743557   -7.3494768    85.501729  0.019628496   0.01956721            9 
  364000    0.6930284   -7.3743654    85.522686  0.019579369  0.019509496            8 
  365000    0.6931537   -7.3771905    85.605154  0.019544556  0.019451876           10 
  366000   0.68165512   -7.3454432    85.566048  0.019482251  0.019394416           11 
  367000   0.67884929   -7.3635486     85.51366  0.019417271  0.019337081           22 
  368000   0.66873368   -7.3862481    85.445855  0.019349152  0.019279859           11 
  369000   0.66597294   -7.3916472    85.512287  0.019311718  0.019222802           14 
  370000   0.65896806   -7.3807928    85.677689  0.019296777  0.019165755           33 
  371000   0.67772708   -7.3744379    85.616204  0.019230953  0.019108652           17 
  372000   0.67421807   -7.3746601    85.785369  0.019217153  0.019051856           23 
  373000   0.66909133   -7.3782871    85.676556  0.019141322  0.018995535           22 
  374000   0.66416272   -7.4238975    85.568367  0.019066035  0.018939075           14 
  375000   0.67286471   -7.3931301    85.611716  0.019024826  0.018882508           48 
  376000   0.66945313    -7.396558    85.610659  0.018973993  0.018825696           24 
  377000   0.67029963   -7.4039874    85.522662  0.018904214  0.018769332           27 
  378000   0.65673048   -7.4087107    85.800378  0.018915427  0.018713014           17 
  379000   0.67025437   -7.4416394    85.739579   0.01885215  0.018656935           12 
  380000   0.65281939   -7.4098234    85.828804  0.018822106  0.018601215           12 
  381000   0.65167742   -7.4122594    85.651493  0.018733922  0.018545549           14 
  382000   0.64381726   -7.4155022    85.728647  0.018701712  0.018489997           17 
  383000   0.64814667   -7.4124924    85.694942  0.018645549  0.018434365            8 
  384000   0.65124622   -7.4368566    85.643192  0.018585762  0.018378577            7 
  385000   0.65339901   -7.3812318    85.871209  0.018586842  0.018323071           10 
  386000   0.63902347   -7.4168606    85.649229  0.018490766  0.018267631           14 
  387000   0.64813345   -7.4373462    85.690996   0.01845198   0.01821242           25 
  388000    0.6515993   -7.4354506    85.896736  0.018448612  0.018157401           36 
  389000   0.65031691   -7.4169281    85.613023  0.018340408  0.018102289           18 
  390000   0.66442055   -7.4188534    85.818829  0.018337357  0.018047521           11 
  391000   0.64628701   -7.4376758    85.928811  0.018313898  0.017993038           10 
  392000   0.63083988   -7.4432917    85.705114  0.018219625  0.017938636           17 
  393000   0.63793836   -7.4461781    85.825145  0.018198716  0.017884355            8 
  394000    0.6304202   -7.4311808    85.965755  0.018182266   0.01783023           16 
  395000   0.63932951   -7.4413252     86.00405  0.018144314  0.017776542           16 
  396000   0.62457336   -7.4482488    86.054955  0.018109208  0.017723184           11 
  397000   0.62454808   -7.4595519    86.061991  0.018065069  0.017670137           16 
  398000   0.62393171   -7.4485998    85.902094  0.017986201  0.017616987            9 
  399000   0.64931531   -7.4727258    85.858727  0.017932065  0.017563931           14 
  400000   0.63995491   -7.4571176    86.048937  0.017926862  0.017511054           10 
  401000   0.62973516   -7.4717341    85.987404  0.017869369  0.017458404           19 
  402000   0.63374855   -7.4917772    85.790786   0.01778416  0.017405608            8 
  403000    0.6299187   -7.4981524    85.734946  0.017728483   0.01735298            7 
  404000   0.62314583   -7.5056148    85.894988  0.017717613  0.017300403           14 
  405000   0.61979441   -7.4898643    85.786639  0.017651572  0.017247995           19 
  406000   0.61213322    -7.484177    85.829128  0.017616816  0.017195798            8 
  407000   0.61948942   -7.4861296    85.813001   0.01757023  0.017143814           12 
  408000   0.61471603   -7.4893528    85.980542  0.017561385  0.017092038            7 
  409000   0.62335796    -7.498168    86.000313  0.017522476  0.017040485            8 
  410000   0.60702547   -7.5181267    85.851427  0.017449477  0.016988893            8 
  411000   0.61017871   -7.5243816    85.979474  0.017432983  0.016937507           10 
  412000   0.61989406   -7.5065309    85.847396  0.017363956  0.016886165           12 
  413000   0.61369356   -7.5030423    85.950756  0.017342768  0.016834963           20 
  414000   0.62131744   -7.5112786     85.86683  0.017283983  0.016783734            9 
  415000   0.60754798   -7.5272619    85.800376  0.017228991  0.016732397            9 
  416000   0.60477974   -7.5364796    85.914682  0.017210473  0.016681205           16 
  417000   0.59827796   -7.5360202    85.977024   0.01718166  0.016630338           16 
  418000   0.59225106   -7.5367747    85.976291  0.017140409  0.016579789            7 
  419000   0.59078396   -7.5419841    85.967023  0.017097658  0.016529273           29 
  420000   0.59081308   -7.5488713     85.81562  0.017026909  0.016478861            9 
  421000   0.59632769   -7.5485926    86.014276  0.017025787  0.016428669            8 
  422000    0.6002731   -7.5535217    85.792994  0.016941744   0.01637848           18 
  423000    0.5964519   -7.5453539    85.863536   0.01691559  0.016328333           10 
  424000   0.58714295   -7.5349489    85.764454  0.016856221  0.016278265            9 
  425000   0.56237015   -7.5539197     85.80315  0.016824147  0.016228282            7 
  426000   0.57765794   -7.5545719    85.724024  0.016769175  0.016178435           15 
  427000   0.57729433   -7.5634052    85.650214  0.016715498  0.016128867           13 
  428000   0.58314342    -7.564993      85.8573  0.016716764  0.016079366           10 
  429000   0.57326542   -7.5855838     85.89858  0.016685816  0.016030064            7 
  430000   0.57944337   -7.5792623    85.711607  0.016610777  0.015980958           10 
  431000   0.57914198   -7.5681738    85.691562  0.016568361  0.015931951           12 
  432000   0.56985674   -7.5784287    85.777845  0.016546652  0.015882939           19 
  433000    0.5751393   -7.5769779     85.62239   0.01647852  0.015834208           18 
  434000   0.57115841   -7.5818332    85.787806  0.016472313  0.015785546           45 
  435000   0.57122622   -7.5642231    85.792073  0.016435263  0.015737052           16 
  436000   0.58611002   -7.5824709    85.737366  0.016387111  0.015688891           20 
  437000   0.57704071   -7.5908201    85.841598  0.016369488  0.015640856           29 
  438000    0.5649653   -7.5970619    85.577951  0.016281954  0.015592978           20 
  439000   0.55231831   -7.5959388    85.627315  0.016254236  0.015545145           38 
  440000     0.552149   -7.5946996    85.684485  0.016228122  0.015497503           24 
  441000   0.56580387   -7.6221934    85.934348  0.016238539  0.015449957           35 
  442000   0.55242157   -7.6095672    85.645696  0.016147379  0.015402505           32 
  443000    0.5671421   -7.6162461    85.705643  0.016122205  0.015355181           42 
  444000   0.54401788    -7.610699    85.794534  0.016102578  0.015308034           25 
  445000   0.55686729   -7.6356824    85.803293  0.016068032  0.015260981           27 
  446000   0.56063186   -7.6266508    85.682393  0.016009416  0.015214061           26 
  447000   0.56422669   -7.6370291    85.654524  0.015968405  0.015167322           30 
  448000   0.56224637   -7.6449519    85.710336  0.015943143  0.015120803           30 
  449000   0.54255056   -7.6353509    85.794547  0.015923264  0.015074305           24 
  450000   0.54839063   -7.6338082    85.626425  0.015856745  0.015027937           21 
  451000   0.55569936   -7.6182124    85.568233  0.015810834  0.014981843           30 
  452000   0.54168642   -7.6544164    85.592158  0.015780265  0.014935809           26 
  453000   0.54986075    -7.632978    85.613074  0.015749278  0.014889879           22 
  454000   0.53958193   -7.6206025    85.555264  0.015703976  0.014844077           24 
  455000   0.53338979   -7.6382434    85.592084  0.015676206  0.014798413           19 
  456000   0.52397254   -7.6456705    85.554586  0.015634975  0.014752962           14 
  457000   0.52853465   -7.6606333    85.527541  0.015595832  0.014707533           32 
  458000   0.53144518   -7.6617913    85.630452  0.015580504  0.014662316           13 
  459000    0.5444613   -7.6580993    85.647834  0.015549716   0.01461722           28 
  460000    0.5383797   -7.6415246    85.575876  0.015502876   0.01457225           18 
  461000   0.53378484   -7.6500873    85.361226  0.015430446  0.014527439           25 
  462000   0.51931819   -7.6728171    85.514721  0.015424733  0.014482711           31 
  463000   0.52694099   -7.6614989      85.6191  0.015410205   0.01443825           20 
  464000   0.52696087   -7.6731648    85.603051  0.015374111  0.014393939           33 
  465000   0.53464716   -7.6759803    85.669406   0.01535294  0.014349852           28 
  466000   0.51832092   -7.6605814    85.346729  0.015262291  0.014305831           45 
  467000   0.51234338   -7.6787385    85.576416  0.015270595  0.014261949           27 
  468000   0.52588026   -7.6653131    85.517034  0.015227392    0.0142182           22 
  469000   0.51201577   -7.6594137    85.417604  0.015177257  0.014174525           53 
  470000   0.52710178   -7.6861723    85.372434  0.015136956  0.014130974           31 
  471000   0.51430428   -7.6820779    85.419988  0.015113232   0.01408752           27 
  472000   0.52408614    -7.697913    85.448776  0.015086295  0.014044198           25 
  473000   0.51374061   -7.6886157    85.341847  0.015035561  0.014001118           28 
  474000   0.51103046   -7.7095361     85.45417  0.015023588  0.013958215           52 
  475000   0.50307849   -7.7034166     85.41828  0.014985663  0.013915421           36 
  476000   0.49692166   -7.6851231     85.43684   0.01495743  0.013872752           38 
  477000   0.50675782   -7.6957784    85.397538  0.014919206  0.013830203           28 
  478000    0.5029511   -7.7005018    85.380823  0.014885081  0.013787721           34 
  479000   0.50831941   -7.7140521    85.414534   0.01485987   0.01374544           38 
  480000   0.49796385   -7.7220508    85.383954  0.014823603  0.013703289           28 
  481000   0.50555568   -7.7217778    85.382632  0.014792556  0.013661304           38 
  482000   0.50171324   -7.7267989    85.374885  0.014760526  0.013619479           34 
  483000   0.50072439   -7.7294396     85.48209  0.014748463  0.013577847           29 
  484000   0.49543299   -7.7265247    85.288474  0.014684655   0.01353636           33 
  485000   0.48356723   -7.7323595    85.333904  0.014662183  0.013494951           54 
  486000   0.48364235   -7.7370467    85.442007   0.01465055  0.013453758           47 
  487000   0.48702851   -7.7306859    85.274691  0.014591836  0.013412723           32 
  488000   0.48737105   -7.7346916    85.336951  0.014572567   0.01337188           62 
  489000   0.49316494   -7.7354466    85.450437  0.014562106  0.013331208           30 
  490000   0.48274643   -7.7342604    85.298029  0.014506468  0.013290624           27 
  491000   0.48731807   -7.7351864    85.263986  0.014471145  0.013250243           34 
  492000   0.46810261   -7.7423582    85.288435  0.014445873  0.013209889           31 
  493000   0.48360115   -7.7382947    85.326303  0.014422972   0.01316966           33 
  494000    0.4746579   -7.7580221    85.375533   0.01440208  0.013129624           22 
  495000    0.4849251   -7.7565607      85.1785  0.014339815  0.013089729           54 
  496000   0.47502188   -7.7678816    85.260444  0.014324671  0.013049901           37 
  497000   0.46928682     -7.76839    85.412747  0.014321386  0.013010159           37 
  498000   0.47555161   -7.7575282    85.230066  0.014262059  0.012970643           39 
  499000    0.4707537   -7.7485201    85.304237  0.014245865  0.012931254           20 
  500000   0.48058934   -7.7733834    85.187925  0.014197987  0.012891921           63 
  501000   0.46831223   -7.7668838    85.176595  0.014167764  0.012852814           38 
  502000   0.47245613   -7.7483695    85.189294  0.014141649  0.012813782           52 
  503000   0.45455303   -7.7757942    85.164435  0.014109416  0.012774916           41 
  504000    0.4659463   -7.7943905    85.164778  0.014081478   0.01273618           55 
  505000   0.46848363   -7.7899564     85.03822   0.01403271  0.012697521           44 
  506000   0.45718762   -7.7678505    85.015866  0.014001295   0.01265907           54 
  507000    0.4517645   -7.7876519    85.041319  0.013977863  0.012620657           42 
  508000   0.45989589   -7.7804344     84.87558  0.013923159  0.012582359           45 
  509000   0.45609344   -7.7845825    85.239961  0.013955462  0.012544294           46 
  510000   0.45644006   -7.7889995    85.102225  0.013905592  0.012506271           69 
  511000   0.44574592   -7.7811716    85.105369  0.013878892  0.012468433           66 
  512000   0.44597308   -7.8016572     84.92582  0.013822562  0.012430731           62 
Loop time of 1096.01 on 48 procs for 500000 steps with 4000 atoms

Performance: 78831.074 tau/day, 456.198 timesteps/s
99.4% CPU use with 48 MPI tasks x no OpenMP threads

MPI task timing breakdown:
Section |  min time  |  avg time  |  max time  |%varavg| %total
---------------------------------------------------------------
Pair    | 68.59      | 71.549     | 74.948     |  15.8 |  6.53
Neigh   | 6.8385     | 7.018      | 7.2362     |   3.2 |  0.64
Comm    | 59.799     | 64.335     | 68.425     |  25.7 |  5.87
Output  | 0.77296    | 0.7735     | 0.78141    |   0.1 |  0.07
Modify  | 935.37     | 940.43     | 945.54     |   7.5 | 85.80
Other   |            | 11.91      |            |       |  1.09

Nlocal:        83.3333 ave          92 max          77 min
Histogram: 4 2 7 8 9 6 6 3 2 1
Nghost:        1829.52 ave        1852 max        1801 min
Histogram: 2 2 4 7 4 6 5 10 2 6
Neighs:        11266.2 ave       13105 max       10154 min
Histogram: 3 10 9 7 6 5 2 4 0 2
FullNghs:      22532.7 ave       25193 max       20758 min
Histogram: 4 7 6 9 6 8 4 2 1 1

Total # of neighbors = 1081568
Ave neighs/atom = 270.39200
Neighbor list builds = 26947
Dangerous builds = 0

#clear
#
#next RN
#
#jump SELF
Total wall time: 0:18:19
