
units lj                  # Use reduced LJ style units
atom_style atomic         # Uncharged point particles
atom_modify map hash      # Needed for indexing of clusters etc
                          # Used to be able to find where atoms are in relation to each other.

lattice fcc 1.0 spacing 1 1 1
Lattice spacing in x,y,z = 1.5874011 1.5874011 1.5874011
region box block 0 10 0 10 0 10 units lattice
create_box 2 box
Created orthogonal box = (0.0000000 0.0000000 0.0000000) to (15.874011 15.874011 15.874011)
  3 by 4 by 4 MPI processor grid
create_atoms 1 box
Created 4000 atoms
  using lattice units in orthogonal box = (0.0000000 0.0000000 0.0000000) to (15.874011 15.874011 15.874011)
  create_atoms CPU = 0.003 seconds
set type 1 type/fraction 2 0.47 78393
Setting atom values ...
  1873 settings made for type/fraction
mass 1 1.0
mass 2 1.0
pair_style lj/cut  3.5
pair_modify tail  yes
pair_coeff 1  1  1.0  1.0   # Intearaction between 1 and 1 set with epsilon = 1 and sigma = 1
pair_coeff 1  2  1.5  0.8
pair_coeff 2  2  0.5  0.88

write_data data.0
System init for write_data ...
Neighbor list info ...
  update every 1 steps, delay 10 steps, check yes
  max neighbors/atom: 2000, page size: 100000
  master list distance cutoff = 3.8
  ghost atom cutoff = 3.8
  binsize = 1.9, bins = 9 9 9
  1 neighbor lists, perpetual/occasional/extra = 1 0 0
  (1) pair lj/cut, perpetual
      attributes: half, newton on
      pair build: half/bin/atomonly/newton
      stencil: half/bin/3d
      bin: standard
WARNING: Not all mixed pair coeffs generated from mixing. Use write_data with 'pair ij' option to store all pair coeffs. (../write_data.cpp:312)


#############################
#   M E L T   S Y S T E M   #
#############################

velocity all create 2.4 5300450 mom yes dist gaussian # Assign velocities
                                                    # Temperature 2.4, random number seed, zero linear momentum
                                                                                # Gaussian distribution

timestep 0.002   # simulation timestep
thermo 1000       # output thermodynamic data every 1000 steps bf 100

# Define a fix  in this case with index 1 applied to all
# particles in the simulation. This fix is for simulations
# in the anisotropic NPT ensemble. Note that we use the MTK
# correction.
fix 1 all npt temp 2.4 2.4 0.1 iso 5.68 5.68 0.5 mtk yes tchain 5 pchain 5 # Use NPT ensemble
                                                                         # Set temperature and pressure and damping
                                                                         # Numbers of thermostats in chain and in barostat
run 10000          # run for 10000 steps
Per MPI rank memory allocation (min/avg/max) = 3.642 | 3.644 | 3.648 Mbytes
Step Temp E_pair E_mol TotEng Press Volume 
       0          2.4   -5.4815223            0   -1.8824223   -4.2035566         4000 
    1000    2.3863429   -4.9749684            0    -1.396349    5.6033559    3761.7016 
    2000    2.3636052    -5.001631            0   -1.4571096    5.6592074     3723.448 
    3000    2.4216797   -4.9687009            0   -1.3370894    5.7502087    3737.6793 
    4000    2.4369766   -4.9357657            0   -1.2812146    5.8732486    3748.5598 
    5000    2.4144445   -4.9237551            0   -1.3029938    5.5695815    3778.0089 
    6000    2.4047513    -4.994391            0   -1.3881658    5.8581573    3725.7067 
    7000    2.4093631   -4.9708899            0   -1.3577489    5.7912448    3733.9856 
    8000    2.4407654   -5.0673542            0   -1.4071214    5.5800726    3711.1142 
    9000    2.2986192    -5.021872            0   -1.5748052    5.6476634    3720.2583 
   10000    2.3975907   -4.9328337            0   -1.3373467    5.8690819    3745.5012 
Loop time of 2.66629 on 48 procs for 10000 steps with 4000 atoms

Performance: 648091.642 tau/day, 3750.530 timesteps/s
99.6% CPU use with 48 MPI tasks x no OpenMP threads

MPI task timing breakdown:
Section |  min time  |  avg time  |  max time  |%varavg| %total
---------------------------------------------------------------
Pair    | 1.1692     | 1.2253     | 1.3852     |   3.4 | 45.95
Neigh   | 0.21276    | 0.22156    | 0.24805    |   1.2 |  8.31
Comm    | 0.78203    | 0.92232    | 1.019      |   5.0 | 34.59
Output  | 0.0002472  | 0.00025217 | 0.00032275 |   0.0 |  0.01
Modify  | 0.22806    | 0.28088    | 0.36657    |   6.9 | 10.53
Other   |            | 0.01599    |            |       |  0.60

Nlocal:        83.3333 ave          93 max          73 min
Histogram: 2 2 3 6 10 5 6 5 7 2
Nghost:        1719.62 ave        1747 max        1674 min
Histogram: 1 2 1 4 2 9 8 9 10 2
Neighs:        10189.7 ave       11522 max        8604 min
Histogram: 2 1 6 3 12 5 4 6 6 3

Total # of neighbors = 489107
Ave neighs/atom = 122.27675
Neighbor list builds = 907
Dangerous builds = 210

# Equilibrate just above the melting temperature to avoid step fn in T

fix 1 all npt temp 1.25 1.25 0.1 iso 5.68 5.68 0.5 mtk yes tchain 5 pchain 5
run 2000
Per MPI rank memory allocation (min/avg/max) = 3.644 | 3.646 | 3.649 Mbytes
Step Temp E_pair E_mol TotEng Press Volume 
   10000    2.3975907   -4.9328337            0   -1.3373467    5.8690819    3745.5012 
   11000    1.2562569   -7.0229759            0   -5.1390617    5.6162826     2949.295 
   12000    1.2469757   -7.1486828            0   -5.2786869    5.4597198    2921.1588 
Loop time of 0.635557 on 48 procs for 2000 steps with 4000 atoms

Performance: 543774.915 tau/day, 3146.846 timesteps/s
99.7% CPU use with 48 MPI tasks x no OpenMP threads

MPI task timing breakdown:
Section |  min time  |  avg time  |  max time  |%varavg| %total
---------------------------------------------------------------
Pair    | 0.27912    | 0.30706    | 0.33763    |   2.7 | 48.31
Neigh   | 0.039036   | 0.04272    | 0.047524   |   0.8 |  6.72
Comm    | 0.2023     | 0.23373    | 0.26538    |   3.4 | 36.78
Output  | 5.2651e-05 | 5.3972e-05 | 7.0282e-05 |   0.0 |  0.01
Modify  | 0.042271   | 0.047102   | 0.050784   |   1.1 |  7.41
Other   |            | 0.004894   |            |       |  0.77

Nlocal:        83.3333 ave          89 max          70 min
Histogram: 1 0 0 2 3 6 11 13 5 7
Nghost:        2030.75 ave        2055 max        2002 min
Histogram: 2 2 4 6 7 6 9 5 5 2
Neighs:        13081.2 ave       14701 max       10765 min
Histogram: 1 1 1 5 9 10 6 5 5 5

Total # of neighbors = 627896
Ave neighs/atom = 156.97400
Neighbor list builds = 143
Dangerous builds = 9

#############################
# L I N E A R  Q U E N C H  #
#############################

# Define solid atoms. This closely follows ten Wolde  Ruiz-Montero and Frenkel  Faraday Discuss  1996  104  93-110
# Compute components of the per-atom q6 vector
compute q6 all orientorder/atom degrees 1 6 components 6 nnn NULL cutoff 1.3 # compute the Q6 parameter.
                                                                             # Use all neighbours within 1.3 unit cell.

# get number of connections
compute coord_number all coord/atom orientorder q6 0.5

# An atom is solid if it has 8 or more connections (of a possible 14)
variable is_solid atom c_coord_number>=8
group solid dynamic all var is_solid    # Must be dynamic to update
dynamic group solid defined

# do clustering
compute cluster solid cluster/atom 1.3 # Create a cluster where all atoms within are solid and max 1.3 units from another member

# define chunks one chunk per cluster
compute clus_chunks solid chunk/atom c_cluster nchunk every compress yes  # Says which atoms are in which chunk

# count the size of each chunk
compute size_chunks solid property/chunk clus_chunks count


# Find the maximum entry in the vector of chunk sizes
variable max_n equal max(c_size_chunks)


# Thermo style which includes this variable
# thermo_style custom step temp pe vol v_max_n

thermo ${N}  # Print the thermo information every 100 steps
thermo 1000  

# Reset the npt fix at a lower temperature (below freezing)
fix 1  all npt temp  ${temp} ${temp}  0.1  iso  5.68  5.68  0.5  mtk yes tchain  5  pchain  5
fix 1  all npt temp  0.45 ${temp}  0.1  iso  5.68  5.68  0.5  mtk yes tchain  5  pchain  5
fix 1  all npt temp  0.45 0.45  0.1  iso  5.68  5.68  0.5  mtk yes tchain  5  pchain  5

dump dmp2 all dcd ${N} traj.dcd
dump dmp2 all dcd 1000 traj.dcd


compute msd all msd com yes
variable twopoint equal c_msd[4]/6/(step*dt+1.0e-6)
fix 9 all vector 10 c_msd[4]
variable fit equal slope(f_9)/6/(10*dt)
thermo_style custom step temp pe c_msd[4] v_twopoint v_fit v_max_n

fix 1 all npt temp 1.25 ${temp} 0.1 iso 5.68 5.68 0.5 mtk yes tchain 5 pchain 5
fix 1 all npt temp 1.25 0.45 0.1 iso 5.68 5.68 0.5 mtk yes tchain 5 pchain 5
run 2000000 # 5000000  # Run for this many steps
Neighbor list info ...
  update every 1 steps, delay 10 steps, check yes
  max neighbors/atom: 2000, page size: 100000
  master list distance cutoff = 3.8
  ghost atom cutoff = 3.8
  binsize = 1.9, bins = 8 8 8
  4 neighbor lists, perpetual/occasional/extra = 1 3 0
  (1) pair lj/cut, perpetual
      attributes: half, newton on
      pair build: half/bin/atomonly/newton
      stencil: half/bin/3d
      bin: standard
  (2) compute orientorder/atom, occasional
      attributes: full, newton on
      pair build: full/bin/atomonly
      stencil: full/bin/3d
      bin: standard
  (3) compute coord/atom, occasional
      attributes: full, newton on
      pair build: full/bin/atomonly
      stencil: full/bin/3d
      bin: standard
  (4) compute cluster/atom, occasional
      attributes: full, newton on
      pair build: full/bin/atomonly
      stencil: full/bin/3d
      bin: standard
Per MPI rank memory allocation (min/avg/max) = 9.832 | 9.840 | 9.844 Mbytes
Step Temp PotEng c_msd[4] v_twopoint v_fit v_max_n 
   12000    1.2469757   -7.1486828 1.5053438e-30 1.0453776e-32 8.3333333e+20            2 
   13000    1.2595203   -7.1414563   0.45731132 0.0029314827   0.03755751            4 
   14000    1.2536515   -7.1795723   0.85271103 0.0050756607  0.034516602            2 
   15000    1.2402695   -7.1211286    1.2064527 0.0067025146  0.032824032            2 
   16000    1.2640869   -7.1246932     1.614863 0.0084107445  0.032338028            2 
   17000    1.2639608   -7.0970681    2.0668431  0.010131583   0.03289048            2 
   18000    1.2555484   -7.1199622    2.4877329  0.011517281   0.03352637            4 
   19000    1.2397031   -7.1311113    2.8260487   0.01239495  0.033534207            3 
   20000    1.2401782   -7.1422488    3.2533339  0.013555558  0.033388052            3 
   21000    1.2455823   -7.1332993    3.7398604  0.014840715  0.033694965            1 
   22000    1.2478791   -7.1487479    4.1470847  0.015708654  0.033984388            2 
   23000      1.24205   -7.1378616    4.5776798  0.016585796  0.034226007            1 
   24000    1.2676184   -7.1944627    4.9811038  0.017295499  0.034363646            2 
   25000    1.2827883   -7.1396376    5.3844244  0.017948081  0.034510116            5 
   26000    1.2356229   -7.1994644    5.7863248  0.018545912  0.034547596            4 
   27000    1.2628428   -7.1597733    6.2514156  0.019294492  0.034656058            2 
   28000    1.2685639   -7.1134971    6.7011196  0.019943808  0.034762427            1 
   29000    1.2454324   -7.1539314    7.0674357  0.020308723  0.034758047            3 
   30000    1.2352487    -7.159957    7.4913994  0.020809442  0.034767748            2 
   31000    1.2549136   -7.1628856    7.9212987  0.021293813  0.034787351            2 
   32000    1.2322381   -7.1319172    8.3140176  0.021651087  0.034811268            2 
   33000    1.2024935   -7.1982109    8.6235955  0.021776756  0.034733511            1 
   34000    1.2424691   -7.1875765    9.0796052  0.022253934  0.034654065            4 
   35000    1.2450264   -7.1396089    9.5249588  0.022678473  0.034616512            1 
   36000    1.2506907   -7.1578394    9.9513896  0.023035624  0.034598799            3 
   37000    1.2183309   -7.1951709    10.314661  0.023231218  0.034540001            2 
   38000    1.2511722   -7.1569444     10.71675  0.023501643  0.034494608            1 
   39000    1.2715917    -7.195636    11.046231  0.023603057  0.034428728            3 
   40000     1.232364   -7.1997558    11.387965  0.023724927  0.034340679            8 
   41000    1.2580337   -7.1885871    11.849009  0.024083352  0.034253426            1 
   42000    1.2275529   -7.1772968    12.287273  0.024379509  0.034218066            2 
   43000    1.2298724   -7.1649352    12.719646  0.024650477  0.034201578            1 
   44000    1.2257405   -7.1832062    13.126786  0.024861337  0.034199132            2 
   45000    1.2251516    -7.202274    13.582177  0.025152179  0.034191801            1 
   46000    1.2263816   -7.1254424    14.035512  0.025426652  0.034194072            2 
   47000    1.2361288   -7.1675419     14.49319  0.025697146  0.034220228            2 
   48000    1.2323931   -7.2021967    14.924703  0.025910942  0.034265717            3 
   49000    1.2081142   -7.1843547    15.230501  0.025902213  0.034281446            2 
   50000    1.2375773   -7.1991348    15.531007  0.025885012  0.034258971            1 
   51000    1.2199159   -7.1823553    15.875235  0.025939927  0.034215325            2 
   52000    1.2276995   -7.2221023    16.180268  0.025929916  0.034143675            5 
   53000    1.2386694   -7.1709768    16.570382   0.02605406  0.034079393            2 
   54000    1.2197987   -7.1841456    16.873136   0.02603879    0.0340029            4 
   55000    1.2371888   -7.2362275     17.32984  0.026257333  0.033923954            3 
   56000    1.2133121   -7.1982736    17.683382  0.026314556  0.033856404            2 
   57000     1.212772   -7.1546524    18.079715  0.026432332  0.033784579            1 
   58000    1.2267694   -7.2115401    18.524186   0.02661521  0.033721955            2 
   59000    1.2189689   -7.1796214    18.773377   0.02651607  0.033659583            4 
   60000    1.2090342   -7.1769562    19.199463   0.02666592  0.033593129            3 
   61000    1.2166806   -7.1596574    19.607608  0.026786349  0.033543542            2 
   62000    1.2218898   -7.1767766    20.031495  0.026924052  0.033485236            1 
   63000    1.2504487   -7.1842471    20.326212  0.026886524  0.033438588            2 
   64000    1.2388133   -7.1825283    20.748279  0.027015988  0.033381404            2 
   65000    1.2298036   -7.2134293    21.183883  0.027158825    0.0333451            1 
   66000    1.2286584   -7.1842926    21.637276  0.027319792  0.033316928            3 
   67000    1.2209621   -7.2061254    22.156887  0.027558317  0.033291494            2 
   68000    1.2141432   -7.2025653      22.3344  0.027370588  0.033262973            1 
   69000     1.203626   -7.1786152    22.646572  0.027350932  0.033222063            1 
   70000    1.2198995   -7.1758017    23.028131  0.027414441  0.033174379            4 
   71000    1.2198045   -7.2277632    23.456675  0.027531308  0.033139242            6 
   72000    1.2215576   -7.2118957    23.750405  0.027488894  0.033099475            1 
   73000    1.2143624   -7.2046699    24.124709  0.027539622  0.033050866            2 
   74000    1.2348444   -7.1818604    24.481321  0.027569054  0.033008837            2 
   75000    1.2381439   -7.1659075    25.078817  0.027865352   0.03298257            5 
   76000    1.2313937   -7.1882432    25.565675  0.028032538  0.032968396            1 
   77000    1.2246302   -7.2117921     25.79396  0.027915541  0.032952064            1 
   78000    1.2323957   -7.2507546    26.123344  0.027909556  0.032925441            2 
   79000    1.2215306   -7.2086738    26.540689  0.027996508  0.032900492            2 
   80000    1.1856591   -7.2084569    26.916306  0.028037819   0.03287631            2 
   81000    1.2285366   -7.2094349    27.408972  0.028198531  0.032856193            2 
   82000    1.2346878   -7.1857631    27.733443  0.028184394  0.032833687            1 
   83000    1.2157233   -7.1678248    28.043327   0.02815595  0.032807269            3 
   84000    1.2133098   -7.2047151    28.388306  0.028163002  0.032776996            5 
   85000    1.2497769   -7.1857187    28.468092  0.027909894  0.032738928            2 
   86000    1.2053847   -7.1718493    28.852151  0.027957511   0.03268845            3 
   87000    1.2376253   -7.2073886    29.204444  0.027973605  0.032642577            1 
   88000    1.2027407   -7.2082868    29.683552  0.028109424  0.032589384            2 
   89000    1.1951438   -7.2054942    29.967753  0.028059694  0.032549418            2 
   90000    1.2202175   -7.2176911    30.403396  0.028151292  0.032507766            1 
   91000    1.1974553   -7.2197194    30.759066  0.028167643   0.03246981            1 
   92000    1.2338638   -7.2309053    31.083962  0.028155763  0.032433543            1 
   93000    1.2131645   -7.2253516     31.42268  0.028156524   0.03239408            1 
   94000    1.2427227   -7.1704764    31.935725  0.028311813  0.032359938            1 
   95000    1.2133884   -7.1344026    32.344352  0.028372239  0.032337316            1 
   96000    1.2200189   -7.1621932    32.757128  0.028435006  0.032318587            2 
   97000     1.166828   -7.1907836    33.099474  0.028435974  0.032294939            2 
   98000     1.217475   -7.2260001    33.392395  0.028394894  0.032267435            2 
   99000    1.2217454   -7.2132792    33.746668  0.028406286  0.032244315            1 
  100000    1.2234143   -7.2228184    34.185766  0.028488139  0.032220151            4 
  101000    1.2134431   -7.2183996    34.528767  0.028489081  0.032200287            2 
  102000    1.2020316   -7.2046811    34.828858  0.028454949  0.032173682            2 
  103000    1.2075136   -7.2600594    35.122951  0.028416627   0.03214815            3 
  104000    1.2280379   -7.2093005    35.580291  0.028509849   0.03212054            1 
  105000    1.2318295   -7.1911398    35.903953  0.028495201   0.03208921            2 
  106000    1.1596832   -7.2410517    35.996172  0.028298878  0.032056029            1 
  107000    1.2104077   -7.1739023    36.365489  0.028322031  0.032017466            3 
  108000    1.2157616   -7.2419654    36.594436  0.028236448  0.031979451            3 
  109000    1.2166892   -7.2301358    36.929961  0.028233915  0.031937275            1 
  110000    1.2173081    -7.218208    37.495906  0.028405989  0.031896717            4 
  111000    1.2079647   -7.2035036    37.649627  0.028265486  0.031858751            2 
  112000    1.1506777   -7.2504426    37.986777  0.028263971  0.031816131            3 
  113000     1.227322    -7.279432    38.235504  0.028197275  0.031767635            2 
  114000    1.1954393   -7.2432702     38.80627  0.028367157    0.0317295            2 
  115000    1.2322919   -7.2738659    38.988063  0.028252219  0.031689338            3 
  116000    1.2159022   -7.2310573    39.567149  0.028424676  0.031656262            2 
  117000    1.1671598   -7.2591113    39.833758  0.028371623  0.031624409            2 
  118000    1.2220949   -7.2254887    40.248295  0.028423937  0.031592566            3 
  119000    1.1979094   -7.2312959    40.745435  0.028533218   0.03156351            1 
  120000    1.2287723   -7.2391305    40.949709  0.028437298  0.031533411            1 
  121000    1.1847641   -7.2584279    41.425849  0.028530199  0.031511638            2 
  122000    1.1924052   -7.2431447     41.63383  0.028438409  0.031486534            4 
  123000    1.2184958   -7.2622631    42.031535  0.028476649  0.031460456            3 
  124000    1.2071765   -7.2683472     42.29843  0.028426364  0.031433054            5 
  125000    1.2257572   -7.2320188    42.723438  0.028482292  0.031405637            1 
  126000    1.2194381   -7.2485505    43.107525  0.028510268  0.031380884            4 
  127000     1.210496   -7.2333006    43.467336  0.028521874  0.031353746            1 
  128000    1.2023497    -7.229017    43.895178   0.02857759  0.031329591            1 
  129000    1.2024938   -7.2198958    44.290771  0.028611609   0.03130253            3 
  130000    1.2159597   -7.2624424    44.284776  0.028387677  0.031274097            1 
  131000    1.1923691   -7.2632587    44.610479  0.028378167  0.031242523            1 
  132000    1.2186235   -7.2914415    45.035675  0.028431613  0.031214476            2 
  133000    1.1788177   -7.2279899    45.478985  0.028495605  0.031189626            1 
  134000    1.2217173   -7.2992078    45.723388  0.028434943  0.031165928            1 
  135000    1.2062302   -7.2591323    46.191817  0.028513467  0.031142511            2 
  136000    1.2033458   -7.2839229    46.490257  0.028486677  0.031121199            5 
  137000    1.2061857   -7.2375404    46.875191   0.02851289  0.031095787            1 
  138000    1.2156864   -7.2607965    47.122152  0.028455406  0.031074365            2 
  139000    1.2054174   -7.2364817    47.819283  0.028668635  0.031052285            1 
  140000    1.2111962   -7.2487626    48.104781  0.028633798  0.031035157            1 
  141000    1.1939034   -7.2727029    48.246033  0.028514204  0.031014384            1 
  142000    1.1820931   -7.2879104    48.704618  0.028582522  0.030991072            2 
  143000    1.1892892   -7.2934588    49.062445  0.028591169  0.030971095            1 
  144000    1.1848499   -7.2487163    49.353568  0.028561092  0.030950848            1 
  145000    1.1947308   -7.2813428    49.848118  0.028648344  0.030932116            1 
  146000     1.176971   -7.2792189    50.005289  0.028541832  0.030916476            1 
  147000    1.2162918   -7.2778823    50.630545  0.028702123  0.030899797            2 
  148000    1.1793994   -7.2781443    50.810851  0.028609713  0.030881193            3 
  149000    1.1830677   -7.2498256    51.028952  0.028539682  0.030859803            2 
  150000     1.179759   -7.2753309    51.387046  0.028548359  0.030837213            1 
  151000     1.191752   -7.2559043     51.92467  0.028655999  0.030816707            1 
  152000    1.2160672   -7.2825435    51.971927  0.028493381  0.030796367            2 
  153000    1.1984833   -7.2826905    52.302323  0.028487104  0.030772064            2 
  154000    1.1735602   -7.2859844    52.569431  0.028446662  0.030747409            9 
  155000     1.193976   -7.3315341    52.854725  0.028416519  0.030724486            4 
  156000    1.2144318   -7.3410912    53.264811  0.028453425  0.030704381            2 
  157000    1.1907247    -7.309549    53.727849  0.028517966  0.030686429            1 
  158000    1.1811309   -7.3096701    53.956542  0.028458092  0.030665429            2 
  159000    1.1989658   -7.2964705    54.498915  0.028563373  0.030644967            4 
  160000     1.167386   -7.3561831    54.362521  0.028313813  0.030621241            3 
  161000    1.1908078   -7.3107329    54.898697  0.028415474   0.03059723            2 
  162000    1.1805119   -7.2807122    55.243571  0.028417475  0.030575856            2 
  163000    1.1828552   -7.3405157    55.400623  0.028323427  0.030551572            1 
  164000    1.1918442   -7.2816875    55.669916  0.028287559  0.030525404            1 
  165000    1.2100644   -7.2997629    56.030597  0.028298281  0.030500364            1 
  166000    1.1859277   -7.2666261    56.569988  0.028398588  0.030476699            1 
  167000    1.1874203   -7.2857441    57.023158  0.028454669   0.03045259            2 
  168000    1.1772115   -7.3351534    57.314205  0.028429665  0.030430454            1 
  169000    1.1922991   -7.2673329    57.763796  0.028483134  0.030407104            2 
  170000    1.1850582   -7.2662805    57.770644  0.028318943  0.030383682            2 
  171000    1.1771216   -7.3126215    58.050141  0.028289542   0.03036021            1 
  172000    1.2038555    -7.242415    58.603553  0.028393194  0.030334435            2 
  173000    1.1955124   -7.2920402     58.92592  0.028384354  0.030310446            3 
  174000    1.1846882    -7.341879    58.985986  0.028249993  0.030288589            1 
  175000    1.1797937   -7.2727741    59.494285  0.028330612  0.030265481            2 
  176000    1.2048127   -7.3367637     59.62745  0.028232694  0.030243963            2 
  177000    1.1968926   -7.3137997    60.272659  0.028376958  0.030222898            1 
  178000    1.1903239   -7.3088191    60.609059  0.028375027  0.030203779            2 
  179000    1.1830617    -7.315051    60.850106  0.028328727  0.030182518            4 
  180000    1.1807166   -7.3342094    60.937416  0.028211767  0.030160287            1 
  181000    1.2138371   -7.3541833    61.171521  0.028163684  0.030134746            1 
  182000    1.1866225     -7.29608    61.336211  0.028084346  0.030109161            3 
  183000    1.2114746   -7.2953285    61.699861  0.028096476  0.030084053            3 
  184000    1.1402982   -7.3035491    62.126083  0.028136813  0.030059415            3 
  185000    1.1822304   -7.3068215    62.395554  0.028106105  0.030033474            3 
  186000    1.1663498   -7.3168336    62.670864  0.028078344  0.030008714            2 
  187000     1.176492   -7.3180125    62.969346  0.028061206  0.029983766            4 
  188000    1.1847015   -7.3260631    63.426465  0.028114568   0.02995634            2 
  189000    1.1660302   -7.2882444     63.83563  0.028146221  0.029932223            2 
  190000    1.1678705     -7.30142    64.165787  0.028142889  0.029908597            1 
  191000     1.192208   -7.3196441    64.378495  0.028088349  0.029884552            1 
  192000    1.1755436   -7.3615006    64.791267   0.02812121  0.029860334            2 
  193000    1.1572589   -7.2933635    64.996991  0.028064331   0.02983554            4 
  194000     1.165574   -7.2951159    65.520072  0.028144361  0.029811712            2 
  195000    1.1677491   -7.2663238    65.850797  0.028141366  0.029789049            2 
  196000    1.1667616   -7.3382323    65.738155  0.027949896  0.029765522            2 
  197000    1.1550435     -7.32421     66.20785  0.028006705  0.029741041            1 
  198000    1.1753468   -7.3480753    66.300833  0.027904391  0.029719022            2 
  199000    1.1818639    -7.316367    67.128321  0.028110687  0.029695581            2 
  200000    1.1746679   -7.3236356    67.165849  0.027985771  0.029672496            2 
  201000    1.1729811   -7.2927837     67.70514  0.028070124  0.029648313            5 
  202000    1.1769726   -7.3360237    67.655765  0.027910794  0.029622865            2 
  203000    1.1757067   -7.3430165    68.040191  0.027931113  0.029598243            3 
  204000    1.1863087   -7.3230426    68.305639   0.02790263   0.02957277            1 
  205000    1.1588966    -7.321829    68.266753  0.027750713  0.029547113            5 
  206000     1.163315   -7.3251263    68.580817  0.027743049  0.029519334            2 
  207000      1.17304   -7.3419304    68.783692  0.027690697  0.029490687            5 
  208000    1.1786397   -7.3790829    68.922453  0.027613162   0.02946033            1 
  209000    1.1712567   -7.3507344    69.318162   0.02763882  0.029430706            2 
  210000    1.1468919   -7.3401886    69.491456  0.027575975  0.029402186            1 
  211000    1.1736941   -7.3111141    70.072773  0.027674871  0.029373494            3 
  212000    1.1770353   -7.3341869    70.319865  0.027641456  0.029344839            3 
  213000    1.1786539    -7.353842    70.625296   0.02763118  0.029317216            4 
  214000    1.1720529   -7.3817199    70.920315  0.027616945  0.029288751            2 
  215000    1.1782961   -7.3091411    71.500477  0.027713363  0.029263045            2 
  216000    1.1494318   -7.2841239    71.683856  0.027655809   0.02923821            3 
  217000    1.1783167   -7.3739952     71.99674  0.027648518  0.029213336            2 
  218000    1.1750749   -7.3076975    72.540869   0.02772969  0.029189748            2 
  219000    1.1649089   -7.3175977    72.774752  0.027692067  0.029165327            1 
  220000    1.1845969   -7.3155154    73.115322  0.027695198   0.02914377            5 
  221000    1.1717023   -7.3227722    73.686601  0.027785294  0.029123012            1 
  222000    1.1534172   -7.3426921    73.987507  0.027773088  0.029103611            1 
  223000    1.1715335   -7.2768424     74.53137  0.027851783  0.029086025            2 
  224000    1.1509393   -7.3246319    74.816828  0.027833641  0.029068194            3 
  225000    1.1756347   -7.3614596     75.12973  0.027825826  0.029049745            6 
  226000    1.1629066   -7.3597659    75.168832  0.027717121   0.02903304            2 
  227000    1.1623976   -7.3624096    75.443977  0.027696027  0.029015645            2 
  228000    1.1891254   -7.3514993    75.941941  0.027756557  0.028999212            6 
  229000    1.1780102   -7.3087246    76.297461  0.027764724  0.028982324            1 
  230000    1.1907463    -7.352621    76.684553  0.027784258  0.028966692            2 
  231000    1.1593835   -7.3594574    77.377939  0.027914119  0.028952641            2 
  232000    1.1711854   -7.3322683     77.78412  0.027939698  0.028940246            3 
  233000    1.1548542    -7.333128    77.981934  0.027890534  0.028927338            1 
  234000     1.168788   -7.3509499     78.44079  0.027934754  0.028914727            1 
  235000    1.1638605   -7.3533095    78.509741  0.027840334   0.02890204            2 
  236000    1.1535944   -7.3809519    78.756215  0.027809398   0.02888899            2 
  237000    1.1389125   -7.3835435     79.02189  0.027785475  0.028875552            2 
  238000    1.1440981    -7.350605    79.714873   0.02791137  0.028862527            3 
  239000    1.1495348   -7.3357719    79.881752  0.027852773  0.028850955            2 
  240000    1.1744606   -7.3551003    80.123615    0.0278207  0.028839987            3 
  241000     1.114361   -7.2979144    80.438937  0.027814293  0.028826712            1 
  242000    1.1706142   -7.3530044    80.993758  0.027890413  0.028815574            1 
  243000    1.1549807   -7.3421502    81.051135  0.027795314  0.028804715            1 
  244000    1.1585401   -7.3682575     81.50429  0.027836165  0.028791935            1 
  245000    1.1717267   -7.3525715     81.90997  0.027860534  0.028779667            1 
  246000    1.1532638   -7.3910636    81.773876  0.027701178   0.02876659            1 
  247000    1.1559526   -7.3869585    81.914642  0.027636519  0.028751568            3 
  248000    1.1548663   -7.3400683    82.312997  0.027658937  0.028735948            4 
  249000    1.1681193   -7.3768282    82.586271  0.027639314  0.028719189            1 
  250000    1.1557026    -7.411141    82.752022  0.027584007  0.028702975            1 
  251000    1.1597132   -7.3834928    83.259796  0.027642695  0.028687309            3 
  252000    1.1657061   -7.3712704    83.854957  0.027729814  0.028671796            3 
  253000    1.1354698   -7.3883875    83.797005  0.027601122  0.028656249            2 
  254000    1.1472685   -7.3585031    84.019486  0.027565448   0.02864018            3 
  255000    1.1408292   -7.3675888    84.172113  0.027507226  0.028623849            1 
  256000    1.1687407    -7.333763    84.646791  0.027554294  0.028607289            2 
  257000    1.1588811    -7.412149    85.175485   0.02761851  0.028592004            6 
  258000    1.1378684   -7.3591673    85.563219  0.027636699  0.028578777            1 
  259000    1.1505932   -7.3953374    86.162526   0.02772282  0.028567019            2 
  260000     1.146618   -7.3680394    86.696817  0.027787441   0.02855629            2 
  261000    1.1738102   -7.3516579    87.060103  0.027796968  0.028546849            2 
  262000    1.1355915    -7.329581    87.634844  0.027873678  0.028537656            1 
  263000    1.1465914   -7.3421413    87.531389  0.027734914  0.028527208            2 
  264000    1.1574686   -7.3992533    87.629713  0.027660894  0.028516677            1 
  265000    1.1687354   -7.3487788    87.945388  0.027655782  0.028505105            1 
  266000    1.1456428   -7.4124692    88.008874  0.027571702   0.02849339            3 
  267000    1.1632024    -7.442747    88.154185  0.027513791  0.028480578            3 
  268000    1.1477361   -7.4047225    88.709197  0.027583705  0.028467853            2 
  269000     1.156964   -7.3600997    89.445154  0.027709156  0.028456478            2 
  270000     1.150759   -7.4018614    89.518862  0.027629278  0.028446114            2 
  271000    1.1578237   -7.3383315     90.18059  0.027730809   0.02843509            2 
  272000    1.1192404   -7.4404414    89.752574  0.027497725  0.028424448            1 
  273000    1.1466341   -7.4175176    90.251044  0.027549159  0.028413015            2 
  274000    1.1333504   -7.3408537    90.913586  0.027650117  0.028401825            2 
  275000     1.171161   -7.4329584    90.865002  0.027534849  0.028389812            1 
  276000    1.1436429    -7.378649      91.5494  0.027641727  0.028378199            3 
  277000    1.1609942   -7.4383158    91.307031  0.027469022  0.028365207            1 
  278000    1.1532007   -7.4029442    91.856654  0.027534968  0.028353222            3 
  279000    1.1382964   -7.3771944     91.87479  0.027441694  0.028341703            2 
  280000     1.141668   -7.3916172    92.310548  0.027473377  0.028328748            5 
  281000    1.1288581   -7.4049487    92.326306   0.02738028  0.028315385            3 
  282000    1.1457268   -7.4334872     92.76401  0.027412532  0.028301078            2 
  283000     1.144205   -7.4476369    93.048487  0.027399437  0.028286153            5 
  284000     1.115374   -7.4428815     92.92165  0.027265742  0.028270728            1 
  285000     1.117748   -7.4952177    92.780614  0.027128834  0.028253443            1 
  286000    1.1411309   -7.3800669    93.170093  0.027147463  0.028234723            2 
  287000    1.1481225   -7.4150206    93.677125  0.027200094  0.028216991            2 
  288000    1.1488419   -7.4025721    93.541105  0.027066292  0.028198218            2 
  289000    1.1456284   -7.3991408    94.462133  0.027238216  0.028179073            4 
  290000    1.1282301   -7.4076096    94.454435  0.027142079  0.028160921            1 
  291000    1.1299909   -7.4018717    94.652946  0.027105654  0.028143031            3 
  292000    1.1303421   -7.4200125    95.029326  0.027120241  0.028123923            3 
  293000    1.1514939   -7.4101932    95.208698  0.027078697  0.028105461            3 
  294000    1.1379759   -7.4210486    95.371071  0.027032616   0.02808644            4 
  295000     1.111801   -7.4140827    95.914296  0.027094434  0.028068767            1 
  296000    1.1251343   -7.3759833      96.0403  0.027038373  0.028050876            2 
  297000     1.136399   -7.3876937    96.325815  0.027027445  0.028033089            1 
  298000    1.1477187   -7.4106137    96.738678  0.027052203   0.02801601            1 
  299000    1.1568864   -7.4732878    97.077175  0.027056069  0.027998686            3 
  300000    1.1484794   -7.4503334     97.53436  0.027092878  0.027981457            1 
  301000    1.1298167   -7.4354863     97.55288  0.027007996  0.027964813            4 
  302000    1.1533937   -7.4527292    97.763088   0.02697657    0.0279477            4 
  303000    1.1243949   -7.4792291    97.881789  0.026920184  0.027930775            4 
  304000    1.1163129   -7.4169553    98.667161  0.027046919  0.027915017            2 
  305000    1.1351777   -7.4515467    98.903618  0.027022846  0.027899881            2 
  306000     1.115934   -7.4441681    99.026649  0.026968042  0.027883914            3 
  307000    1.1267537   -7.4728921    99.361434  0.026971073  0.027867796            2 
  308000    1.1243561   -7.4298402    99.654642  0.026962836  0.027851238            1 
  309000    1.1161826   -7.4266218    100.03518  0.026978205   0.02783493            1 
  310000    1.1304097   -7.4619042     100.3119  0.026965565  0.027818915            5 
  311000    1.1524193   -7.4497734     100.6029  0.026956832  0.027802056            2 
  312000     1.162069   -7.4523974    100.73571  0.026905907  0.027785977            2 
  313000    1.1109567   -7.4221256    101.24469  0.026955455  0.027769209            1 
  314000    1.1244352   -7.4519298     101.3248   0.02689087  0.027753559            1 
  315000    1.1092562   -7.4318191    101.68735  0.026901416   0.02773807            3 
  316000     1.124568   -7.4799642    102.01726  0.026903287  0.027722988            1 
  317000    1.1317671   -7.4204971    102.16097  0.026856196  0.027707253            3 
  318000    1.1516463    -7.452269    102.23461   0.02679104  0.027690722            6 
  319000    1.1158789   -7.4739644    102.66278  0.026818907  0.027673373            2 
  320000    1.1244271   -7.4248316     102.8314  0.026779009  0.027656108            1 
  321000    1.1181926   -7.4638016     102.7566  0.026676167  0.027638419            3 
  322000    1.1314198   -7.4234441    103.30132  0.026734295  0.027621268            2 
  323000    1.1207391   -7.4719199    103.28879  0.026648295  0.027603473            4 
  324000    1.1239262   -7.4145279    103.69379  0.026670215  0.027585631            1 
  325000    1.0874722   -7.4451826     104.1323  0.026700591  0.027568755            1 
  326000    1.1300404   -7.4473648     104.7473  0.026775894  0.027552206            3 
  327000    1.1161867   -7.4631898    104.97913  0.026753091  0.027535411            2 
  328000    1.1191682   -7.4672432    105.33555   0.02676208  0.027519636            2 
  329000    1.1006188   -7.4356923    105.33873  0.026681541  0.027504385            4 
  330000    1.1258393   -7.4696973    105.68418  0.026687924  0.027488599            2 
  331000     1.151746   -7.4928555    105.74175  0.026621791  0.027472393            3 
  332000    1.1212896   -7.4417416    106.07694  0.026625739  0.027455047            1 
  333000    1.1029449   -7.4205561     106.4337  0.026635059  0.027438007            3 
  334000    1.1600549   -7.4838702    106.76113  0.026637009  0.027421017            2 
  335000    1.1243717   -7.4375209    106.85364  0.026580507  0.027404062            2 
  336000    1.1401154   -7.4154566    107.35315  0.026625285  0.027386991            3 
  337000     1.122714   -7.4396238    107.21412  0.026511899  0.027370102            1 
  338000    1.0950702   -7.4705994    107.63873  0.026538148  0.027352865            7 
  339000    1.1113264   -7.4424736     107.8047  0.026500664  0.027335841            2 
  340000    1.1292692   -7.4384237     108.1874   0.02651652  0.027318087            4 
  341000    1.1188124   -7.4591475    108.18578  0.026438363  0.027299767            4 
  342000    1.1426504    -7.461883    108.51086  0.026440269  0.027281289            6 
  343000    1.1122963   -7.4892316    108.71176  0.026411992  0.027262979            1 
  344000    1.0772943   -7.3994968    109.16074  0.026443978  0.027244838            2 
  345000    1.0940055   -7.4207609    109.96142   0.02656073  0.027227482            1 
  346000    1.1120945   -7.4516528    109.78679  0.026441905  0.027210175            3 
  347000    1.1276982   -7.5008734    109.77616  0.026363152  0.027192904            5 
  348000     1.109323   -7.5170338    109.91325  0.026320222  0.027175695            2 
  349000    1.0997194   -7.5203567    110.08421  0.026285629  0.027157662            4 
  350000    1.1023404   -7.5156104    110.35447  0.026274873   0.02713924            3 
  351000    1.1161709   -7.4759091    110.66166  0.026272948  0.027121322            5 
  352000    1.1389015   -7.4865912    110.65603  0.026196977  0.027103594            4 
  353000    1.1218707   -7.4704083    111.12437  0.026233326  0.027085182            2 
  354000    1.1169702   -7.4750314     111.2762  0.026194963  0.027066662            7 
  355000    1.1003142   -7.4946799    111.23909  0.026112463  0.027047026            2 
  356000    1.0995303   -7.4949125    111.53779  0.026109033  0.027027149            3 
  357000    1.1062487   -7.5150485    111.83549   0.02610539  0.027007095            3 
  358000    1.1019426   -7.4893928    111.82152  0.026029218  0.026987316            1 
  359000    1.1176906   -7.4804503    112.55085  0.026126009  0.026968544            2 
  360000    1.0885928   -7.4569647    112.81341  0.026114215  0.026949222            2 
  361000    1.1028569   -7.4931137    112.70773  0.026017482   0.02692966            3 
  362000    1.1149884   -7.4695321    113.42392  0.026110478   0.02690989            4 
  363000     1.100549   -7.5367502    113.16756  0.025979698  0.026890555            2 
  364000    1.1064145   -7.4876608    113.76579  0.026045281  0.026871169            1 
  365000    1.0901428   -7.5098825    113.92764  0.026010878   0.02685218            2 
  366000    1.1134721   -7.5079757    113.65181  0.025877005  0.026832008            2 
  367000     1.118086   -7.5041041    114.47175  0.025992678  0.026812166            3 
  368000    1.1109932   -7.5170706    114.21983  0.025864998  0.026792452            2 
  369000    1.1145772   -7.4943626    114.82781  0.025932206   0.02677323            2 
  370000    1.1140248    -7.493174     115.5783  0.026031148  0.026754327            2 
  371000    1.0881407   -7.4968285    115.16111  0.025867275  0.026734889            1 
  372000    1.0797346   -7.4906338    115.38732  0.025848413  0.026714841            3 
  373000    1.1067892   -7.5040634    115.29781  0.025759116  0.026693809            1 
  374000    1.0644593   -7.5504136    115.36259  0.025704677  0.026672518            2 
  375000    1.0922208   -7.4737398    116.09884  0.025799742  0.026651381            2 
  376000    1.1092375   -7.5201072    116.27616  0.025770424  0.026630664            2 
  377000    1.0958396   -7.4883299     116.0917  0.025661296  0.026609798            2 
  378000    1.1176367    -7.536753    116.31487  0.025642608  0.026588682            5 
  379000    1.1065108   -7.4634554    116.71434  0.025662783  0.026567546            2 
  380000    1.0653438   -7.5022421    116.75908  0.025605062  0.026546211            1 
  381000    1.1016499   -7.5084874    116.64794  0.025513547  0.026524658            6 
  382000    1.1076562   -7.4884157    117.41557  0.025614216  0.026503549            2 
  383000    1.1050264   -7.5055346    117.80167  0.025631348  0.026482542            2 
  384000    1.1040381   -7.5605947    117.43846  0.025485777   0.02646189            2 
  385000    1.0991058   -7.4575466    118.70151  0.025692968  0.026442229            2 
  386000     1.079894   -7.5213271    118.49999    0.0255829  0.026422484            2 
  387000    1.0946952   -7.4789947    118.70669  0.025561303  0.026402245            2 
  388000    1.0881836   -7.5370134    119.33257  0.025629847  0.026382228            1 
  389000    1.0917071   -7.5002312    119.46936  0.025593264  0.026362624            1 
  390000    1.0932479   -7.5174406    119.61317  0.025558369  0.026343158            1 
  391000    1.0988819   -7.5296487    119.85127  0.025543749  0.026323392            2 
  392000    1.1031545   -7.5116851    119.94118    0.0254977   0.02630392            2 
  393000    1.0566807    -7.513135    120.07216  0.025460593  0.026284533            2 
  394000    1.1091879   -7.5103766    120.70285  0.025529368  0.026264173            3 
  395000    1.0915469   -7.5185866    120.43158  0.025407507  0.026243986            3 
  396000    1.0692696   -7.5011754    120.90154  0.025442243  0.026224253            1 
  397000    1.0979021   -7.5358742    120.58494    0.0253117  0.026203813            2 
  398000    1.0746815   -7.5487615    121.06209  0.025348009  0.026183241            1 
  399000    1.1065678   -7.5276651    121.33116  0.025340677   0.02616239            1 
  400000    1.0944436   -7.5035176    121.54457  0.025321786  0.026141738            4 
  401000    1.1411612   -7.5284581    121.96406  0.025345816  0.026121061            2 
  402000    1.1046621   -7.5245517    122.35469  0.025363741  0.026100831            1 
  403000    1.0703252   -7.5467523    122.45853  0.025322276  0.026080699            1 
  404000     1.089528   -7.5308543     122.6455  0.025298164  0.026060619            3 
  405000    1.0844094   -7.5418148    122.57513  0.025221219   0.02604068            3 
  406000     1.061375   -7.5603123    122.70527   0.02518581  0.026020479            1 
  407000    1.0998415    -7.520373    123.13263  0.025211432  0.026000142            1 
  408000    1.0890394   -7.5314609    123.01242  0.025125086  0.025979509            2 
  409000    1.1075937   -7.5619023    123.09349  0.025080174  0.025958753            2 
  410000    1.0865751   -7.4879872    124.01191  0.025205672  0.025938224            2 
  411000    1.0842065   -7.4871302    124.37429  0.025217819  0.025918118            2 
  412000    1.0723259   -7.5325931    124.20527  0.025122426   0.02589883            2 
  413000     1.082949    -7.554828    124.74976  0.025171461  0.025879691            1 
  414000    1.0755431   -7.5774217    124.80627  0.025122035  0.025860073            3 
  415000    1.0823823   -7.5569031    125.51075  0.025202962  0.025840852            1 
  416000    1.0935521   -7.5207823    125.35229  0.025110635   0.02582188            2 
  417000    1.0795968   -7.5619071    125.30078  0.025040125  0.025802726            3 
  418000    1.0945229   -7.5634136     125.5879   0.02503746  0.025783546            3 
  419000    1.0854637   -7.5598175    126.23353  0.025106111  0.025764399            2 
  420000    1.0697065   -7.5519003    126.23987  0.025047593  0.025745502            2 
  421000    1.0665099   -7.5714404    126.39596  0.025018995  0.025727225            2 
  422000    1.1028173   -7.5338831    127.31179  0.025140559  0.025708851            2 
  423000    1.1056869   -7.5355704    127.41524  0.025101505  0.025690798            2 
  424000    1.0975352   -7.5458213    127.38819  0.025036988  0.025672527            2 
  425000    1.0738677   -7.5412848    127.79341  0.025057531  0.025654042            2 
  426000    1.0781802   -7.6346137    126.90656  0.024825227  0.025634949            3 
  427000    1.1134944   -7.5945724     127.5021  0.024883313  0.025615708            4 
  428000    1.0775728   -7.5496636    128.07202   0.02493614  0.025596382            2 
  429000    1.0646588   -7.5906516    127.95492  0.024855268  0.025576809            3 
  430000    1.1061747   -7.5720972    128.27957  0.024860382  0.025556975            1 
  431000    1.0653015   -7.6178332    128.17916  0.024783286  0.025537599            2 
  432000     1.071065   -7.5754111    128.70971  0.024828262  0.025518554            2 
  433000    1.0794398   -7.6068073    129.23668  0.024872339  0.025499825            2 
  434000    1.0799762    -7.594379    129.45016  0.024856022  0.025480417            3 
  435000    1.0763993   -7.5529938    129.59745  0.024827098  0.025461984            7 
  436000    1.0760499   -7.5627317    130.21862   0.02488888  0.025443615            2 
  437000    1.0748747   -7.5761326    130.16928  0.024822518  0.025424848            2 
  438000    1.0828302   -7.5577933    130.40482  0.024810658  0.025406122            2 
  439000    1.1030992    -7.533562    130.46864  0.024766257  0.025387733            3 
  440000    1.0848138   -7.5821889     130.3946  0.024695947  0.025369223            3 
  441000    1.0894905    -7.570107    130.80639  0.024717761  0.025350444            3 
  442000    1.0834982    -7.601951    130.81387  0.024663248  0.025331558            2 
  443000    1.0806149   -7.5691009    131.29359  0.024697815  0.025312454            2 
  444000    1.1034686   -7.5902305    131.33425  0.024649822  0.025293818            2 
  445000    1.0481481    -7.551074    131.72241  0.024667119  0.025274954            2 
  446000    1.0956478   -7.5447366    131.80689  0.024627594  0.025256222            2 
  447000    1.0844546   -7.5589075    131.81049  0.024573171  0.025237096            9 
  448000    1.0901283   -7.5781927    132.09611  0.024571448  0.025217547            5 
  449000    1.0580614   -7.5940739    131.39709  0.024386988  0.025197971           10 
  450000    1.0796735   -7.6364704    131.69394  0.024387767  0.025177643            3 
  451000    1.0714199   -7.5729236     132.6604  0.024512269  0.025157923            2 
  452000    1.1064058   -7.6218168    131.96326  0.024329509  0.025138081            2 
  453000    1.0759761   -7.5695885    132.88304  0.024445005   0.02511809            1 
  454000    1.0562461    -7.596257    132.82494  0.024380495  0.025098659            4 
  455000    1.0651775   -7.5582911     133.0516  0.024368425   0.02507902            1 
  456000    1.0437715    -7.604525    133.44897  0.024387605  0.025059218            3 
  457000    1.0600322   -7.5615496    133.93832  0.024423471  0.025038917            2 
  458000    1.0360727   -7.5761461    133.60703  0.024309867  0.025018631            5 
  459000    1.0771214   -7.6044947    133.38075  0.024215822  0.024997993            3 
  460000     1.056057   -7.5847207    133.73878   0.02422804  0.024977315            3 
  461000    1.0730518   -7.5555681    134.15246  0.024250263  0.024957016            2 
  462000    1.0822857   -7.5838098    134.17677  0.024202158  0.024936279            4 
  463000    1.0735106   -7.5903785     134.1218  0.024139992  0.024915318            2 
  464000    1.0648494   -7.5703484    134.19243  0.024100652  0.024894399            1 
  465000    1.0516617    -7.585694     134.2204  0.024053835  0.024872783            3 
  466000    1.0798712   -7.6021663    134.79523  0.024105013  0.024851636            3 
  467000    1.0653264   -7.6185192     134.5838  0.024015667  0.024830018            2 
  468000    1.0539716   -7.6163683    135.19286  0.024072803  0.024808201            2 
  469000    1.0546846   -7.6092893    135.17398  0.024018119  0.024786236            3 
  470000    1.0895096   -7.6119243    134.80765  0.023902066  0.024764307            4 
  471000    1.0735882     -7.60634    135.43825  0.023962889  0.024742442            3 
  472000    1.0819273   -7.5862743     136.2662  0.024058299  0.024720771            1 
  473000    1.0688906   -7.5818089    136.00047  0.023960619  0.024699533            5 
  474000     1.055173   -7.5613672    136.43715   0.02398684  0.024677875            3 
  475000    1.0600935   -7.6319387    135.79043  0.023822882  0.024656173            9 
  476000    1.0602139   -7.6097805     136.7557  0.023941824    0.0246339            2 
  477000    1.0701486   -7.6077401    135.93814  0.023748801  0.024611917            3 
  478000    1.0524514   -7.6173071    136.47373  0.023792491  0.024589968            2 
  479000    1.0428998    -7.640192    136.41678  0.023732912    0.0245679            3 
  480000    1.0633185   -7.5685552    137.48473  0.023868877  0.024546079            2 
  481000    1.0438371    -7.599292    137.09773  0.023752206  0.024524292            2 
  482000    1.0596647   -7.6109044    137.37601   0.02375104  0.024502844            2 
  483000    1.0377917   -7.6068537    137.33996  0.023695645  0.024480835            2 
  484000    1.0514592   -7.6198698    137.79202  0.023724521  0.024459278            2 
  485000     1.099113   -7.5895752    137.98463  0.023708699  0.024437912            4 
  486000    1.0772824   -7.5734512    138.52237  0.023752121  0.024416755            1 
  487000    1.0723398   -7.6024219    138.91019  0.023769712  0.024395409            2 
  488000    1.0536519   -7.5730273    139.05174  0.023745174  0.024374464            1 
  489000    1.0466624    -7.629533    139.18005  0.023718481  0.024353774            2 
  490000    1.0694945   -7.5833694    139.81318  0.023777752  0.024333494            2 
  491000    1.0400499   -7.6037386    139.93901  0.023750681  0.024313133            3 
  492000    1.0562773   -7.6264741    139.75492  0.023671227  0.024293031            2 
  493000    1.0623918   -7.6349996    139.85102  0.023639456  0.024272689            2 
  494000    1.0580115   -7.6266319    139.73819   0.02357257  0.024251949            1 
  495000    1.0362652   -7.6277734    139.85401  0.023544446  0.024231019            2 
  496000    1.0569549   -7.6018734    140.45391  0.023597767  0.024210521            5 
  497000    1.0351695   -7.6232124    140.45962  0.023551245  0.024190237            1 
  498000    1.0783257   -7.6323093    140.39492  0.023493125  0.024169124            2 
  499000    1.0714366   -7.6230457    140.47272  0.023459039   0.02414824            3 
  500000    1.0392167   -7.6387484    140.81463  0.023469105  0.024127503            6 
  501000    1.0652834   -7.6491405    140.54834  0.023377967  0.024106229            4 
  502000    1.0351657   -7.6486761      141.203  0.023440072  0.024084836            4 
  503000    1.0645297   -7.6272322    141.05523   0.02336899  0.024063551            1 
  504000    1.0575902   -7.5844771    142.11216  0.023497381  0.024042666            2 
  505000    1.0692039   -7.6299798    141.61355  0.023368573  0.024021516            2 
  506000    1.0659716   -7.6417225    141.78136  0.023350027  0.024000416            3 
  507000    1.0430026   -7.6217998    141.56021  0.023267622  0.023979529            4 
  508000    1.0495613   -7.6702688    141.26443  0.023173299  0.023958139            2 
  509000    1.0617206   -7.6441394    141.80104  0.023215625  0.023936334            4 
  510000    1.0594762   -7.6279421    141.70843  0.023154972  0.023914471            5 
  511000    1.0257174    -7.629304    142.06015  0.023167017  0.023892415            1 
  512000    1.0518641   -7.6248025    142.31119  0.023162628  0.023870921            2 
  513000    1.0434025   -7.6692419    142.08143  0.023080154  0.023848963            4 
  514000     1.041989   -7.5915713    142.72039  0.023138844  0.023826807            2 
  515000    1.0455585   -7.6427898    143.35813  0.023197108  0.023805219            3 
  516000    1.0589137   -7.6048804    143.16804  0.023121453   0.02378375            3 
  517000    1.0268421   -7.6586197    143.58063  0.023143235  0.023762255            2 
  518000    1.0579498   -7.6424887    143.67675   0.02311402  0.023740744            2 
  519000    1.0310722   -7.6366493    143.93815  0.023111457  0.023719453            4 
  520000    1.0322402   -7.6586348    143.38571  0.022978479  0.023698206            2 
  521000    1.0477705   -7.6556751    144.01048  0.023034306  0.023677036            3 
  522000    1.0414095   -7.6779883    144.20278  0.023020878  0.023655625            5 
  523000    1.0907458   -7.6947811    144.27129  0.022987778  0.023634256            4 
  524000    1.0267919   -7.6591788    144.68648  0.023009937  0.023613181            2 
  525000    1.0554386   -7.6619968    144.82439  0.022987998  0.023592694            1 
  526000    1.0460394   -7.6798238    144.75388  0.022933125  0.023571959            3 
  527000    1.0423165   -7.7069786    145.26707  0.022970757  0.023551211            2 
  528000    1.0423679   -7.6701483    145.19486  0.022915855  0.023530029            3 
  529000     1.024937    -7.674198     145.4243  0.022908679  0.023509122            3 
  530000    1.0396259   -7.7022855     145.4772  0.022873774  0.023488405            2 
  531000    1.0515189   -7.6478605    145.88469  0.022894647  0.023468078            2 
  532000    1.0243926   -7.6182889    146.04155  0.022876183  0.023447586            5 
  533000    1.0128037   -7.7137616    145.81734  0.022798208  0.023426853            1 
  534000    1.0385373   -7.6471941    146.32537  0.022834796  0.023405998            1 
  535000    1.0449213   -7.6620289     146.4211  0.022807025  0.023385715            2 
  536000    1.0287452   -7.6726482    145.97346  0.022694879  0.023364854            3 
  537000    1.0475386   -7.6845598    146.79477   0.02278007  0.023343385            5 
  538000    1.0371969   -7.6710527    146.48491  0.022689732  0.023322199            3 
  539000    1.0326997   -7.6677334    147.18316  0.022755591  0.023301282            2 
  540000    1.0376437   -7.7001791    146.66347  0.022633252  0.023280152            3 
  541000    1.0300441   -7.7212836    147.03274  0.022648296  0.023259012            6 
  542000      1.03599   -7.6879356    147.52775  0.022682618  0.023237903            1 
  543000    1.0316876   -7.6420892    147.36105  0.022615263  0.023216926            2 
  544000    1.0229264   -7.7033945    147.40711  0.022580747  0.023195778            2 
  545000    1.0275353   -7.6397676    147.82504  0.022603217  0.023174758            2 
  546000    1.0492572   -7.6916251    147.73598  0.022548227   0.02315402            2 
  547000    1.0327624    -7.651024    148.29377  0.022591982    0.0231328            2 
  548000    1.0504319   -7.6720798      148.714  0.022614659  0.023111928            2 
  549000      1.05525   -7.6966083    148.49088  0.022539599  0.023091186            2 
  550000    1.0302186   -7.6968019    148.58218  0.022512451  0.023070525            1 
  551000    1.0534647    -7.680882    149.03014  0.022539343   0.02305016            2 
  552000     1.035743   -7.6632256    149.22994  0.022528674  0.023029714            3 
  553000    1.0184235   -7.6821578      149.091  0.022466998  0.023009604            3 
  554000    1.0073068   -7.7333543    149.29022  0.022456412   0.02298908            1 
  555000    1.0482054   -7.7084064    149.79577  0.022491857  0.022968738            2 
  556000    1.0272008   -7.6385347    150.16271  0.022506401  0.022948668            3 
  557000    1.0139151   -7.7051696    149.41834  0.022354628  0.022928264            3 
  558000    1.0156397   -7.7189127     149.5619  0.022336007  0.022907489            3 
  559000    1.0421424   -7.6807603    150.26372  0.022400674  0.022886993            2 
  560000    1.0031866   -7.6770269    149.99723  0.022321016  0.022866238            3 
  561000    1.0283386   -7.7233773    149.98654  0.022279641  0.022845537            3 
  562000    1.0410544   -7.7035685    149.79898  0.022212186   0.02282509            3 
  563000    1.0233404   -7.6928101    150.45305  0.022269545  0.022804322            1 
  564000    1.0152129    -7.694034      150.704  0.022267139  0.022783845            2 
  565000    1.0375518   -7.6953596    150.96135  0.022265686  0.022763387            2 
  566000     1.034997   -7.7135221    150.97644  0.022228568  0.022742951            7 
  567000    1.0427124   -7.6873289    151.37836  0.022248436   0.02272267            4 
  568000     1.031296   -7.7303591    150.67884  0.022106638  0.022702275            2 
  569000    1.0183877   -7.7082894    151.43342  0.022178298  0.022681759            3 
  570000    1.0023422   -7.6713792    151.74035  0.022184262  0.022661533            2 
  571000    1.0464867   -7.7180954     151.8504  0.022161471  0.022641229            4 
  572000    1.0340874   -7.6889397    151.80228  0.022115717  0.022620496            7 
  573000      1.03501   -7.7076075    152.29299  0.022148486  0.022599812            3 
  574000    1.0354793   -7.7398652    152.26206  0.022105409   0.02257944            2 
  575000    1.0245683    -7.721612    153.07558  0.022184866  0.022559684            4 
  576000    1.0308736    -7.726812    152.95378   0.02212873  0.022540001            3 
  577000    1.0467702   -7.7063882     152.8236  0.022071577  0.022520297            2 
  578000    1.0288409   -7.7086639    153.32638   0.02210588  0.022500895            2 
  579000    1.0159644   -7.7090135     153.6197  0.022109917  0.022481353            4 
  580000    1.0386769   -7.6821325    154.06603  0.022135925  0.022462161            6 
  581000    1.0170918   -7.6968337    153.78996  0.022058228  0.022443023            3 
  582000      1.01226   -7.6688912    154.15372  0.022072412  0.022423628            5 
  583000    1.0086612   -7.7568574    154.05076  0.022019834  0.022404469            1 
  584000    1.0315575   -7.7102917    154.18797  0.022001708  0.022385245            3 
  585000    1.0488458   -7.7435913    154.51786  0.022011091   0.02236614            4 
  586000    1.0242704   -7.7622949    154.49864  0.021970797  0.022346768            2 
  587000    1.0396866   -7.7479947    154.24349  0.021897145  0.022327147            3 
  588000    1.0383903   -7.7644076    154.35459   0.02187565  0.022307515            4 
  589000    1.0199037   -7.6897392    154.91916  0.021918388   0.02228801            9 
  590000    1.0348381   -7.7457332    154.79721  0.021864013  0.022268288            2 
  591000    1.0425671   -7.7251937    155.51852  0.021928726  0.022248823            5 
  592000    1.0094015   -7.7403211    155.25782  0.021854985  0.022229429            6 
  593000    1.0045887   -7.7195418    155.88465  0.021906218  0.022210412            3 
  594000    1.0072935   -7.7445966    155.86609  0.021866735  0.022191356            2 
  595000    1.0351609   -7.7562308    155.91168   0.02183637  0.022172245            2 
  596000    1.0196404   -7.7825101    155.64623  0.021762616  0.022152941            5 
  597000    1.0137582   -7.7377803    156.21099  0.021804996   0.02213391            2 
  598000    1.0108449   -7.7430823    156.34478  0.021787177  0.022114774            2 
  599000    1.0335991   -7.7587749    156.55729  0.021780368  0.022095795            2 
  600000    1.0167085   -7.7377515    156.55427  0.021743649  0.022076681            3 
  601000    1.0121487   -7.7585084    156.37892  0.021683155  0.022057413            4 
  602000    1.0314893   -7.7194716    157.14668  0.021753416  0.022038451            4 
  603000    1.0384404   -7.7394394     156.8088  0.021670647   0.02201965            7 
  604000    1.0217287   -7.7248887    156.74985  0.021626635  0.022000718            3 
  605000    1.0118983   -7.7374673    157.10554  0.021639882  0.021982012            2 
  606000    1.0040344   -7.7155628    157.50642  0.021659298  0.021963376            3 
  607000    1.0068856   -7.7289441    158.11562  0.021707251  0.021945091            3 
  608000    1.0331533   -7.7478993    158.26905  0.021692578  0.021926829            6 
  609000    1.0287758   -7.6810017    158.52819  0.021692418  0.021908547            3 
  610000    1.0132774   -7.7194196    158.46747  0.021648562  0.021890362            5 
  611000    1.0209862   -7.7320253     158.2382   0.02158186  0.021871958            2 
  612000     1.012347   -7.7760452    158.35751  0.021562842  0.021853362            3 
  613000    1.0140314   -7.7685882    158.46566  0.021542368  0.021834884            2 
  614000    1.0030775   -7.7456165    158.64866   0.02153212  0.021816344            5 
  615000    1.0074112   -7.7559678     158.7342  0.021508699   0.02179781            3 
  616000     1.033282   -7.7487555    158.69962  0.021469105   0.02177917            1 
  617000       1.0192   -7.7232139    159.14028  0.021493825  0.021760466            3 
  618000    0.9964044     -7.82517    158.95704  0.021434337  0.021741656            2 
  619000   0.99201983   -7.8157928    158.98102  0.021402937  0.021722777            1 
  620000   0.99117357   -7.7805028    159.46112  0.021432946  0.021704012            3 
  621000    1.0118727   -7.7717775    159.38689  0.021388472  0.021685395            3 
  622000    1.0119656   -7.7963146    159.41618  0.021358009  0.021666273            2 
  623000   0.99606444   -7.7155258    159.91725  0.021390751   0.02164759            2 
  624000    1.0496188    -7.727013    160.06847  0.021376666  0.021628958            1 
  625000    1.0282114   -7.7876593    159.96773  0.021329031  0.021610442            3 
  626000   0.99423117   -7.7841824    160.16172  0.021320783  0.021591562            2 
  627000    1.0126115   -7.7989454    159.94805   0.02125838  0.021572525            2 
  628000    1.0060724   -7.7909128    159.92714  0.021221754  0.021553611            4 
  629000    1.0222384   -7.7936825     159.8945  0.021183692  0.021534521            1 
  630000   0.99091782   -7.7839928    160.49306  0.021229241   0.02151545            3 
  631000   0.99789555   -7.7738533    160.52731   0.02120012  0.021496539            3 
  632000    1.0057576   -7.8197914    160.18844  0.021121893  0.021477648            3 
  633000   0.98895474   -7.7757467    161.12026  0.021211197  0.021459019            2 
  634000   0.98749252   -7.7537813    161.52572  0.021231036  0.021440362            2 
  635000   0.99392112   -7.7840531    161.47529  0.021190982  0.021422024            7 
  636000   0.99045912   -7.7564904    161.29922  0.021134594  0.021403546            4 
  637000     1.008751   -7.7763564    161.64562  0.021146731  0.021385063            5 
  638000   0.99371286    -7.798125    161.45826  0.021089115   0.02136663            2 
  639000   0.97838699   -7.7700037    162.43653   0.02118369  0.021348352            2 
  640000   0.99504956     -7.78178     162.3539   0.02113983  0.021330379            2 
  641000    1.0132903   -7.8067512    161.99742  0.021060507  0.021312171            4 
  642000   0.98058719   -7.7850386    162.69643  0.021118436   0.02129403            2 
  643000    1.0077067   -7.8221929    162.22153  0.021024045  0.021276026            3 
  644000    1.0034232   -7.7765772    162.84524  0.021072107  0.021257979            3 
  645000    1.0089579   -7.8258246     162.5614  0.021002765  0.021240019            3 
  646000   0.98939381   -7.7624228    163.48966  0.021089997  0.021222356            3 
  647000   0.99520063   -7.7801402    163.60757  0.021072588  0.021204655            4 
  648000    0.9772899    -7.813545    163.45857  0.021020906  0.021186997            4 
  649000    1.0030866   -7.8032747    163.88548  0.021043333  0.021169297            2 
  650000   0.96881461   -7.8326721    164.08633  0.021036709  0.021151871            2 
  651000   0.98911207   -7.8025644    164.32512  0.021034962  0.021134651            2 
  652000   0.99611241   -7.7882025    164.27925  0.020996837  0.021117331            2 
  653000    0.9934517   -7.8163655    164.20678  0.020955434   0.02109991            7 
  654000   0.98824338   -7.7884652    164.27005  0.020931453  0.021082531            4 
  655000   0.99201862   -7.8264444    164.25518  0.020897606  0.021065253            3 
  656000   0.99688399   -7.8277037    164.76898  0.020931019  0.021047958            3 
  657000   0.99894486   -7.7991188    164.92023  0.020918345  0.021030744            1 
  658000    0.9677878   -7.7822464    164.84183  0.020876625  0.021013914            4 
  659000   0.95615873   -7.7837121    165.53224  0.020932251  0.020996825            4 
  660000    1.0063388   -7.8159857    165.31589  0.020873219  0.020979947            4 
  661000   0.98765552   -7.8261536    165.35345  0.020846376  0.020962949            8 
  662000   0.97689343   -7.8497394      165.267  0.020804003  0.020945721            2 
  663000   0.99019035   -7.8441415    165.42156  0.020792051  0.020928385            3 
  664000   0.99001867   -7.8381657    165.98421  0.020831352  0.020911063            3 
  665000   0.98134526   -7.8342966    165.86034  0.020784504  0.020894058            5 
  666000   0.99485626   -7.7856216    166.61723  0.020848001  0.020877162            3 
  667000   0.97483455   -7.7955977    166.07851  0.020749439  0.020860436            2 
  668000   0.97837862   -7.8200285    166.84466  0.020813955  0.020843548            2 
  669000   0.98788773   -7.8297635    166.71462  0.020766644   0.02082667            2 
  670000   0.98249394   -7.7926212    167.07127  0.020780008  0.020809658            1 
  671000   0.99430763   -7.7254101    167.63106  0.020818562   0.02079317            2 
  672000   0.98325763   -7.8222332    166.76832  0.020680595  0.020776476            3 
  673000   0.98666232   -7.8119747     167.0436  0.020683952  0.020759447            2 
  674000   0.98860192    -7.872434     166.6754   0.02060774  0.020742124            2 
  675000   0.98164525   -7.8253993    167.24078   0.02064701  0.020725118            4 
  676000   0.97712116   -7.8617433     167.2624  0.020619132  0.020708036            2 
  677000   0.99194894    -7.814268    167.25176  0.020587366  0.020691058            2 
  678000   0.99183736   -7.8526962    167.63478  0.020604078  0.020674268            4 
  679000    0.9792319   -7.8412334    167.61867  0.020571756  0.020657392            2 
  680000   0.98276251   -7.8348445    168.25778  0.020619826  0.020640564            4 
  681000   0.97600061    -7.842033    167.93961  0.020550613   0.02062375            3 
  682000   0.98306313   -7.8106173    168.14482  0.020545555  0.020607032            1 
  683000   0.96006841   -7.8144607    168.52442  0.020561789  0.020590425            3 
  684000   0.97278159    -7.882912    167.70983  0.020432484  0.020573608            2 
  685000   0.99169789   -7.8780459    167.99995   0.02043795  0.020556624            3 
  686000   0.99648526   -7.8445463    168.50877  0.020469968  0.020539864            5 
  687000    0.9830979   -7.8497587    168.52591   0.02044225  0.020522943            4 
  688000   0.98888142   -7.8459825     168.9761  0.020467067  0.020505947            3 
  689000   0.98792645   -7.8436572    169.51145   0.02050211  0.020488869            2 
  690000   0.98908217   -7.8478741    169.09612  0.020422237  0.020471879            3 
  691000   0.96736342   -7.8174931    169.26948  0.020413589  0.020454937            4 
  692000   0.97431369   -7.8608546    169.27835  0.020385158  0.020438062            4 
  693000   0.97662351   -7.8233168    169.52451  0.020385343  0.020421349            3 
  694000   0.96493046   -7.8640097    170.05487  0.020419653   0.02040481            6 
  695000   0.98113927   -7.8633821    169.92528  0.020374734  0.020388424            2 
  696000   0.97183016   -7.8304008    170.09113  0.020365317  0.020372071            4 
  697000   0.96232631   -7.8656072    169.98236  0.020323094  0.020355381            3 
  698000   0.97408972   -7.8715066    169.70698  0.020261101  0.020338722            5 
  699000   0.98933665   -7.8886613     169.9425  0.020260193  0.020321956            3 
  700000   0.96759763   -7.8604086     170.2305  0.020265536  0.020305352            4 
  701000   0.99591303   -7.8566555    170.26026  0.020240164  0.020288965            2 
  702000    1.0086689   -7.8632639    170.39848   0.02022774  0.020272453            2 
  703000   0.97161622   -7.8731554    170.82081   0.02024903  0.020255949            3 
  704000   0.98532781   -7.8544632     170.4163  0.020172384  0.020239473            3 
  705000   0.96278748   -7.8041207    171.56946  0.020280078  0.020223243            5 
  706000   0.96573429   -7.8586763    171.43261  0.020235199  0.020207108            2 
  707000   0.97170759   -7.8583475    171.54115  0.020219371  0.020191036            2 
  708000    0.9898093   -7.8326737    172.06348  0.020252293  0.020174547            2 
  709000   0.96767995   -7.8443777    171.39768  0.020145472  0.020158364            3 
  710000   0.96520833   -7.8608506    171.43965  0.020122024  0.020141972            2 
  711000    0.9821188   -7.8781715    171.53179  0.020104522   0.02012542            3 
  712000   0.97298773   -7.8556693    172.10494  0.020143368  0.020108977            3 
  713000    0.9470733   -7.8445224    171.83067  0.020083061   0.02009254            7 
  714000   0.99169959   -7.8467343     171.6847  0.020037897  0.020075989            3 
  715000   0.97832603    -7.827279    172.37891  0.020090782    0.0200595            3 
  716000   0.97757091   -7.8853924    172.01008  0.020019795  0.020042949            2 
  717000   0.96387879   -7.9021879    171.89078  0.019978008  0.020026239            2 
  718000   0.96859302   -7.8719724    172.35761  0.020004365  0.020009392            3 
  719000   0.97201885   -7.8157125    173.15888  0.020069412  0.019992918            3 
  720000   0.98498034   -7.8454112    172.92468   0.02001443  0.019976638            4 
  721000   0.95034715   -7.9189306    172.45656  0.019932566  0.019960049            7 
  722000   0.95366614   -7.8772641    172.50195  0.019910198  0.019943496           13 
  723000   0.96919867   -7.8992127    172.77735  0.019914401  0.019926982            5 
  724000   0.96196488   -7.8921954    172.94728  0.019906455  0.019910323            4 
  725000   0.95989876   -7.8932225     172.8426  0.019866965  0.019893711            2 
  726000   0.97314905   -7.9198879    172.93723  0.019850463  0.019877173            2 
  727000   0.97014362   -7.8837583     173.3515  0.019870644  0.019860569            2 
  728000   0.95041508   -7.9147589    172.77704  0.019777592  0.019843927            5 
  729000   0.96685939   -7.8772363    173.16092  0.019794344  0.019827099            4 
  730000   0.96601264   -7.8978439    173.86328  0.019847406  0.019810455            2 
  731000   0.96478733   -7.8714822      174.006  0.019836525  0.019794078            6 
  732000   0.94761157   -7.8896386    173.99449  0.019808116  0.019777651            2 
  733000   0.95673651   -7.8893804    173.98812  0.019780369  0.019761307            6 
  734000   0.94930013   -7.8917316    174.03682  0.019758948  0.019744813            4 
  735000   0.95009652   -7.8906274    173.59822  0.019682337  0.019728197           14 
  736000    0.9565782   -7.8873174    174.08733  0.019710975  0.019711687           14 
  737000   0.97511056    -7.905299    174.35151  0.019714101  0.019695296            8 
  738000   0.95944509   -7.9221232    173.93305  0.019640137  0.019678861            5 
  739000     0.952236   -7.9064971    174.57367    0.0196858  0.019662422            3 
  740000   0.93375482   -7.9001395    174.21529  0.019618839  0.019646087            5 
  741000   0.94366318   -7.9248073    174.66812  0.019643289  0.019629712            3 
  742000    0.9703593   -7.8767503    175.10126   0.01966546  0.019613517            2 
  743000   0.97019231   -7.8982309    174.92694  0.019619442    0.0195975            2 
  744000   0.97479951   -7.9135005    175.11039  0.019613618   0.01958144            2 
  745000   0.98649667   -7.9111034    175.01053  0.019576122  0.019565215            4 
  746000   0.95825243     -7.87557    175.42739  0.019596446  0.019548981            4 
  747000   0.94713331   -7.8544891    175.56179  0.019585206  0.019532804            3 
  748000   0.94860347   -7.8831379    175.51187  0.019553461  0.019516757            5 
  749000   0.95649294   -7.8924077    175.81562   0.01956115  0.019500538            3 
  750000   0.95441272   -7.8931786     175.8054  0.019533933   0.01948456            2 
  751000   0.93524512    -7.902177    176.17721   0.01954918  0.019468662            3 
  752000     0.941943   -7.8906615    176.50643  0.019559666  0.019452796            4 
  753000   0.92887513   -7.9183615    176.21191  0.019501097  0.019436887            1 
  754000    0.9385204   -7.9214258    176.38351  0.019494199  0.019421019            3 
  755000   0.93836328   -7.8861075    176.71378  0.019504833  0.019405083            8 
  756000   0.96340371     -7.93185     176.7587  0.019483984   0.01938923            4 
  757000     0.964712   -7.8716754    177.05215  0.019490549  0.019373556           10 
  758000   0.94397519   -7.9221303    176.86527  0.019444291   0.01935771            5 
  759000   0.94688023   -7.9146265    176.87734  0.019419998  0.019342144            3 
  760000   0.94831017   -7.9278531    176.97094  0.019404708  0.019326367            1 
  761000   0.93893661   -7.9388881    176.97378   0.01937952  0.019310502            3 
  762000   0.93404682   -7.9480054    177.02448  0.019359632  0.019294812            3 
  763000   0.94093539   -7.9093056    177.29786  0.019364117  0.019279022            3 
  764000   0.94249226   -7.9894473    176.75078  0.019279099    0.0192631            6 
  765000   0.96133055   -7.9511223    177.43481  0.019328411  0.019247212            2 
  766000   0.95290061   -7.9171069    177.88554  0.019352213   0.01923124            2 
  767000   0.95181886   -7.9087664    177.64436  0.019300778  0.019215416            4 
  768000   0.93581381   -7.9294169    177.92646  0.019306256  0.019199766            1 
  769000   0.93262801   -7.9268083    177.89138   0.01927735  0.019184166            4 
  770000   0.97130767   -7.9392918    178.57625  0.019326434  0.019168638            5 
  771000   0.95095505   -7.9388362    178.11045  0.019251021  0.019153138            3 
  772000   0.95689239   -7.9391851     178.3537  0.019252342  0.019137661            6 
  773000   0.93448255   -7.9158324    178.97304  0.019294204  0.019122144            3 
  774000   0.92626197   -7.9445944    178.45873  0.019213903  0.019106536            3 
  775000   0.93505362   -7.9459082    178.69099  0.019214085  0.019091117            3 
  776000   0.92589572   -7.9515624    178.08827  0.019124599  0.019075605            4 
  777000    0.9578966   -7.9283043    179.09761  0.019208238  0.019059917            5 
  778000   0.95009134   -7.9627819    178.75868  0.019147245  0.019044248            9 
  779000   0.93691297    -7.954027    178.87059  0.019134637   0.01902858            4 
  780000   0.95675294   -7.9446012    178.65221  0.019086774  0.019012772            5 
  781000   0.93771307   -7.9759134     178.5203  0.019048261  0.018996815            2 
  782000   0.91603688    -7.954849    178.59094   0.01903143  0.018980904            5 
  783000   0.93999392   -7.9736665     178.9251  0.019042688  0.018965147            6 
  784000   0.92178286   -7.9265141    179.29803  0.019058039  0.018949496            5 
  785000   0.93385741   -7.9607257    179.44184  0.019049028  0.018933737            2 
  786000   0.94126545   -7.9551927    179.45648  0.019026344  0.018918021            4 
  787000   0.93383861   -7.9345188    179.06759   0.01896099  0.018902303            3 
  788000   0.90918238   -7.9656752    179.08523  0.018938793  0.018886612            5 
  789000   0.92508816   -7.9945265    179.24361  0.018931518  0.018870771            3 
  790000   0.94665836   -7.9725679    179.39681  0.018923714  0.018854854            9 
  791000     0.941686   -7.9755979     179.5472  0.018915635   0.01883902            1 
  792000   0.94360455   -7.9816577    179.58292   0.01889551   0.01882324            6 
  793000     0.947853    -7.973648    179.89593  0.018904574   0.01880735            1 
  794000   0.93983677   -7.9602945    180.21867  0.018914638  0.018791525            3 
  795000    0.9588375   -7.9686429    179.89031  0.018856426  0.018775802            4 
  796000    0.9276117   -7.9360667     180.1971  0.018864855  0.018760118            2 
  797000   0.92031011   -7.9644278    179.98376  0.018818879  0.018744477            3 
  798000   0.93177405   -7.9806642    180.75976  0.018876332   0.01872882            3 
  799000   0.94572166   -7.9941641    180.31357  0.018806172  0.018713161            8 
  800000   0.93260981   -7.9639381    180.58844  0.018811296  0.018697711            6 
  801000   0.91986475   -7.9902556    181.28066  0.018859828  0.018682271            1 
  802000   0.91106418   -7.9296529    181.06979  0.018814401  0.018667002            2 
  803000   0.96607004   -7.9515539    181.08804  0.018792865  0.018651667            8 
  804000   0.94333384   -7.9408439    181.42417  0.018804329  0.018636285            7 
  805000   0.91169558   -7.9460946    181.51987  0.018790877  0.018620954            3 
  806000   0.93868966   -7.9195665    181.82574  0.018799188  0.018605652            1 
  807000   0.92984949   -7.9336081    182.18384  0.018812871  0.018590389            4 
  808000   0.93073851   -7.9619349    181.60168  0.018729546  0.018575055            2 
[...]
 1800000   0.53340304   -8.9772002    199.77312 0.0092487557 0.0077731234          121 
 1801000   0.54345913   -9.0046625     199.4379 0.0092281094 0.0077662244          121 
 1802000   0.54594883   -8.9886026    199.81395 0.0092403786 0.0077593396           89 
 1803000   0.52923141   -8.9802647    199.96326 0.0092421546 0.0077524716          101 
 1804000   0.53688832   -9.0040109    199.55158 0.0092180146 0.0077456005           99 
 1805000   0.53494859    -8.998807    199.56473  0.009213515 0.0077387424           69 
 1806000   0.53012097   -8.9904364    199.45803 0.0092034898 0.0077318869          102 
 1807000   0.52853814   -9.0083757    199.56294 0.0092032349  0.007725036           95 
 1808000   0.54016647   -9.0048585    199.28885  0.009185511 0.0077181948          103 
 1809000   0.53332013   -9.0149172    199.23509 0.0091779569 0.0077113548           96 
 1810000   0.53439199   -9.0095503    199.42284 0.0091815303 0.0077045322           86 
 1811000   0.53404184    -9.003292    199.42148  0.009176398 0.0076977213           85 
 1812000   0.52199005   -9.0016545    199.33911 0.0091675455 0.0076909003          105 
 1813000   0.53831306   -9.0048467    199.54415 0.0091719134 0.0076840952          122 
 1814000    0.5368566   -9.0017831    199.14849 0.0091486811 0.0076772931           95 
 1815000   0.52520556   -8.9976493    199.51027 0.0091602511 0.0076704943           96 
 1816000   0.53290269   -8.9819247    199.31594 0.0091462894 0.0076637153           94 
 1817000   0.52658956   -9.0151127    198.91585 0.0091229065  0.007656932          100 
 1818000   0.51364216   -9.0167233    199.54856 0.0091468902 0.0076501575           72 
 1819000   0.53573786   -9.0026072    199.85266 0.0091557935 0.0076433898          101 
 1820000   0.52379681    -9.019733    199.30425 0.0091256527 0.0076366271           75 
 1821000   0.52393021   -9.0222477    199.28613  0.009119812 0.0076298742           68 
 1822000   0.53087378   -9.0069017    199.66862 0.0091323006 0.0076231247           84 
 1823000    0.5234267   -9.0006394    199.03935 0.0090985257 0.0076163965           96 
 1824000   0.52508048   -9.0054111    199.30377 0.0091056183 0.0076096567          106 
 1825000   0.54085831   -9.0199974    199.09569 0.0090911275 0.0076029359          103 
 1826000   0.52806475   -9.0108284    199.32677 0.0090966947 0.0075962294          101 
 1827000   0.52854924   -9.0071324    199.37268 0.0090938095 0.0075895148           72 
 1828000   0.52985371   -9.0151037    199.16118 0.0090791932 0.0075828133           88 
 1829000   0.52908992   -9.0099505    199.17786 0.0090749888 0.0075761147           92 
 1830000   0.52375183   -9.0100719    199.28182 0.0090747642 0.0075694248           87 
 1831000   0.51650208   -9.0129698    199.02406 0.0090580768 0.0075627454           76 
 1832000    0.5153978   -9.0130654     199.1708  0.009059807 0.0075560666          116 
 1833000   0.52238979   -9.0157736    199.15568 0.0090541773  0.007549403           99 
 1834000   0.51629564   -9.0222579    199.33815 0.0090575316 0.0075427494           88 
 1835000   0.52572043   -9.0424748    199.18684 0.0090457241 0.0075361047           87 
 1836000   0.52005102   -9.0259881    199.34705 0.0090480686 0.0075294574           84 
 1837000   0.51710874   -9.0206259    199.13559 0.0090335509   0.00752282           90 
 1838000   0.51749706    -9.011251    199.55985 0.0090478716 0.0075161973           88 
 1839000   0.52315319    -9.010232    199.35349 0.0090336003 0.0075095713           97 
 1840000    0.5089755   -9.0272581    199.26675  0.009024762 0.0075029529           48 
 1841000   0.51480048   -9.0390792    198.90208 0.0090033533 0.0074963464           98 
 1842000   0.51451957   -9.0238698    199.34868   0.00901867 0.0074897445           54 
 1843000   0.50986467   -9.0281006    199.19121 0.0090066564 0.0074831531           85 
 1844000   0.51505208   -9.0319766    199.26617 0.0090051597 0.0074765692          102 
 1845000   0.51193688   -9.0207315     199.4225 0.0090073395 0.0074699972          104 
 1846000   0.51205016   -9.0173697    199.23739  0.008994104 0.0074634213           77 
 1847000   0.51823632    -9.032878    198.99849 0.0089784557 0.0074568551           83 
 1848000   0.51040821   -9.0405669    199.07048 0.0089768436 0.0074503036           49 
 1849000   0.53115139   -9.0362911    199.15337 0.0089757243 0.0074437543          106 
 1850000   0.52259127   -9.0313087    199.00002 0.0089639647 0.0074372138           99 
 1851000   0.51899551   -9.0195006    199.20784 0.0089684783 0.0074306868           90 
 1852000   0.51583144   -9.0263921    199.10084  0.008958821 0.0074241586          108 
 1853000   0.52061163   -9.0373951     198.5369 0.0089286247 0.0074176363           99 
 1854000    0.4971908   -9.0196152    199.40988 0.0089630475  0.007411129          104 
 1855000   0.51644886   -9.0289567    199.35554 0.0089557745 0.0074046256          104 
 1856000   0.51390194   -9.0436188     198.9619 0.0089332751 0.0073981236           90 
 1857000   0.52512257   -9.0434307    199.03593 0.0089317864  0.007391629           99 
 1858000     0.515737   -9.0272727    198.98947 0.0089248954 0.0073851405           83 
 1859000   0.50732254    -9.029748    199.00163 0.0089206396 0.0073786631           92 
 1860000   0.51477117   -9.0363466    199.03799 0.0089174727 0.0073721897          102 
 1861000   0.50707387   -9.0310105     199.4382 0.0089306019 0.0073657337           90 
 1862000   0.50345736    -9.034435    198.76917 0.0088958633 0.0073592781          101 
 1863000    0.5134004   -9.0625068    199.27194 0.0089135776 0.0073528309           82 
 1864000   0.50005705   -9.0438286    198.71417 0.0088838593 0.0073463897          114 
 1865000    0.5078501    -9.019585    198.97007 0.0088905304 0.0073399483          112 
 1866000   0.51221529   -9.0347184    199.24161 0.0088978926 0.0073335262           97 
 1867000   0.50998228   -9.0380126    198.92314 0.0088789119 0.0073270996           83 
 1868000   0.49673133   -9.0423683    198.85636 0.0088711797 0.0073206786           88 
 1869000   0.49530629   -9.0469614    199.11046 0.0088777625 0.0073142808           98 
 1870000   0.51002932    -9.035123    198.99682 0.0088679511 0.0073078795           90 
 1871000   0.51438681   -9.0377932    198.93122 0.0088602897 0.0073014894           94 
 1872000   0.51400039   -9.0513515    198.67352 0.0088440847 0.0072950979          107 
 1873000   0.52120266   -9.0527308    198.95021 0.0088516735 0.0072887172           95 
 1874000   0.51110504   -9.0360891     198.7306 0.0088371844 0.0072823482          113 
 1875000   0.51109655   -9.0415819    198.71824 0.0088319219 0.0072759807           94 
 1876000   0.50631768   -9.0410173     199.0465 0.0088417956 0.0072696253           96 
 1877000   0.49953381    -9.046237    199.04265 0.0088369139 0.0072632807           56 
 1878000   0.50986202   -9.0459673    198.87177 0.0088246259 0.0072569342           91 
 1879000   0.49821449    -9.068789    199.18916 0.0088340055    0.0072506          107 
 1880000   0.49035056   -9.0149132    198.97859 0.0088199729 0.0072442724          103 
 1881000   0.50367037   -9.0507578    199.08797 0.0088201298 0.0072379493          101 
 1882000   0.49038834   -9.0433294    199.20654 0.0088206932 0.0072316321          102 
 1883000   0.50120251   -9.0496478    199.17755  0.008814726  0.007225328          113 
 1884000   0.49654493    -9.064123    199.26724 0.0088140147 0.0072190319          118 
 1885000   0.49947994   -9.0444961    198.93613 0.0087947008 0.0072127438           96 
 1886000   0.50812215   -9.0440324    199.07591 0.0087962138 0.0072064514          102 
 1887000   0.50311022   -9.0479898    198.74892  0.008777112 0.0072001752          100 
 1888000   0.49435868   -9.0687908     198.7345 0.0087718266 0.0071939014           96 
 1889000   0.49968011   -9.0511692    198.97793 0.0087779217  0.007187626           96 
 1890000   0.49854079   -9.0531765     198.8694 0.0087684922 0.0071813689           76 
 1891000   0.49170817   -9.0690232    198.82908 0.0087620782 0.0071751219           87 
 1892000   0.49886036    -9.056239    199.17755 0.0087727954 0.0071688757          104 
 1893000   0.49360592     -9.05011    199.20177 0.0087692273 0.0071626353          105 
 1894000   0.50354076   -9.0432995      199.131 0.0087614838 0.0071564126           86 
 1895000    0.4971336    -9.047248    199.04157 0.0087529276 0.0071501926          105 
 1896000    0.4867791   -9.0562336    198.81271 0.0087382521  0.007143976           88 
 1897000   0.49907808   -9.0689896    198.71141 0.0087291956 0.0071377631           84 
 1898000   0.49678699   -9.0452266    199.04149 0.0087390891 0.0071315615           99 
 1899000   0.50005921   -9.0821584    198.89941  0.008728252 0.0071253714          104 
 1900000   0.49624646    -9.058668    198.92312 0.0087246981  0.007119179           96 
 1901000   0.50048386   -9.0421226    198.52599 0.0087027001 0.0071129948           94 
 1902000   0.49023372   -9.0542309    198.86637 0.0087130377 0.0071068159           65 
 1903000   0.49317317   -9.0572898    198.81851 0.0087063633 0.0071006527           83 
 1904000   0.48513463    -9.048537    198.71584 0.0086972967 0.0070944983           78 
 1905000   0.49656868   -9.0660675     198.5141 0.0086839066 0.0070883396          120 
 1906000   0.49397363   -9.0584597    198.78286 0.0086911009 0.0070821835          110 
 1907000   0.51013683   -9.0857391    198.63008 0.0086798669 0.0070760376           84 
 1908000   0.49741668   -9.0812983     198.5579 0.0086721655 0.0070699003           94 
 1909000   0.49180636    -9.060442    198.78105  0.008677364 0.0070637712          111 
 1910000   0.50212088   -9.0720308    198.56827  0.008663537 0.0070576491           83 
 1911000   0.49538429   -9.0853916    198.97696 0.0086768256 0.0070515379          101 
 1912000   0.49095075   -9.0809406    198.48728  0.008650945 0.0070454282          102 
 1913000   0.47803922   -9.0770984    198.56379 0.0086497555 0.0070393254           95 
 1914000   0.48527589   -9.0796151    198.63311 0.0086482544 0.0070332298           97 
 1915000   0.49300205   -9.0695845    198.82666 0.0086521609 0.0070271446          100 
 1916000   0.48411144    -9.078964    198.44805 0.0086311781 0.0070210629          110 
 1917000   0.47782211   -9.0743122    198.77425 0.0086408559 0.0070149867           99 
 1918000   0.48173932   -9.0726536     198.8168 0.0086381997 0.0070089227          107 
 1919000   0.48593634   -9.0659749    198.64846 0.0086263878 0.0070028609           92 
 1920000   0.48558714   -9.0641852    198.47576 0.0086143992  0.006996803           89 
 1921000   0.48042853   -9.0776058    198.37359 0.0086054828 0.0069907565           90 
 1922000   0.49106402   -9.0769011    198.77144 0.0086182554 0.0069847161           83 
 1923000   0.48980437   -9.0689211    198.62861 0.0086075842 0.0069786783          105 
 1924000   0.48323867   -9.0657356    198.82842 0.0086117646  0.006972647           99 
 1925000   0.48057216   -9.0715086    198.73702 0.0086033341 0.0069666291           97 
 1926000   0.48559389   -9.0662684    198.60489 0.0085931501 0.0069606146           83 
 1927000   0.48084703   -9.0644399     198.6612 0.0085911263 0.0069546077           87 
 1928000   0.47981439   -9.0758173     198.7239 0.0085893801 0.0069486087          119 
 1929000   0.47857546   -9.0867219    198.76192 0.0085865701 0.0069426198          107 
 1930000   0.48251387   -9.0641717    198.52334 0.0085718194 0.0069366347           95 
 1931000   0.49070971   -9.0665062    198.89432 0.0085833904 0.0069306552          108 
 1932000   0.48351222   -9.0847602    198.72812 0.0085717787 0.0069246804          108 
 1933000   0.47422424   -9.0823449    198.59645 0.0085616681 0.0069187105           95 
 1934000   0.47306485    -9.074184    198.43819  0.008550422 0.0069127544           82 
 1935000   0.49037453   -9.0869988    198.40284 0.0085444808 0.0069067932           97 
 1936000   0.47245103   -9.0868913    198.56573 0.0085470787 0.0069008472           91 
 1937000   0.48904942    -9.066213    198.45334 0.0085378307  0.006894904           97 
 1938000   0.46942228   -9.0835468     198.7433 0.0085458936 0.0068889659          107 
 1939000   0.47197627   -9.0780772    198.20487 0.0085183457 0.0068830379          106 
 1940000   0.47713117   -9.1028163    198.58342 0.0085302157 0.0068771138           94 
 1941000   0.46993929   -9.0927208    198.88538  0.008538785 0.0068712001           95 
 1942000   0.48714797   -9.0722968    198.52938 0.0085191118 0.0068652924           98 
 1943000   0.48003231   -9.1110058    198.48598 0.0085128659 0.0068593878          113 
 1944000   0.47725701   -9.0705624    198.66024 0.0085159569 0.0068534983           95 
 1945000   0.48040048   -9.0949166    198.52524 0.0085057943 0.0068476074          125 
 1946000   0.48943254   -9.1006334    198.46269 0.0084987449 0.0068417246          110 
 1947000   0.47805885   -9.1009922    198.38204 0.0084909279 0.0068358432           92 
 1948000   0.47721682   -9.0797838    198.45409 0.0084896512 0.0068299677           94 
 1949000   0.46489852   -9.1098893    198.57537 0.0084904811 0.0068241063          101 
 1950000   0.46800213   -9.0805149    198.51635 0.0084836046 0.0068182493           98 
 1951000    0.4752573   -9.0905935    198.49699 0.0084784292  0.006812399          102 
 1952000   0.46955582   -9.1023204    198.70467  0.008482952 0.0068065517           66 
 1953000   0.47754605   -9.1001654     198.6257 0.0084752391 0.0068007113           61 
 1954000   0.47795274     -9.09541    198.59668 0.0084696637 0.0067948773          100 
 1955000   0.47862988   -9.0900355    198.53178  0.008462565 0.0067890496          105 
 1956000   0.46888859   -9.0868879    198.44187 0.0084544082 0.0067832303           90 
 1957000   0.47083366   -9.0700399    198.38156   0.00844752  0.006777416          110 
 1958000   0.48034537   -9.1105915    198.39589 0.0084438155  0.006771604           70 
 1959000   0.45863334   -9.0963598     198.3973 0.0084395651 0.0067658045          100 
 1960000   0.47375633   -9.0887278    198.47041 0.0084383676 0.0067600079           78 
 1961000   0.47679971   -9.1109825    198.72264 0.0084447834 0.0067542174           93 
 1962000   0.47555674     -9.10085    198.56508  0.008433787 0.0067484367          114 
 1963000   0.47476203   -9.0991464    198.60741 0.0084312874 0.0067426585           63 
 1964000   0.47486542   -9.1047419    198.46412 0.0084209147  0.006736889          106 
 1965000   0.46294727   -9.0965268    198.05145 0.0083991285 0.0067311259           98 
 1966000    0.4684951   -9.1074737    198.35013 0.0084075166 0.0067253683          116 
 1967000   0.47375571   -9.1304004    198.44267 0.0084071629 0.0067196101          108 
 1968000   0.47122729    -9.096713    198.59028 0.0084091411 0.0067138609          116 
 1969000   0.46105805   -9.1145994    198.30904 0.0083929677 0.0067081237          123 
 1970000    0.4635389   -9.0900019    198.28239 0.0083875799 0.0067023776          108 
 1971000   0.47078604   -9.1159306    198.56012 0.0083950669 0.0066966522          106 
 1972000    0.4668934   -9.1083479    198.44592 0.0083859837 0.0066909253          125 
 1973000   0.47460312   -9.1123615    198.09191 0.0083667811 0.0066852114          112 
 1974000   0.46641692    -9.090444    198.72604 0.0083893128 0.0066795042          113 
 1975000   0.46044037   -9.1125951    198.33795 0.0083686898 0.0066738063          118 
 1976000    0.4659953   -9.1000386    198.39423 0.0083668281 0.0066681126          115 
 1977000   0.45513837   -9.1109653    198.52644 0.0083681687 0.0066624258          109 
 1978000   0.46434685    -9.096841    198.31289 0.0083549416 0.0066567364          117 
 1979000   0.47028426   -9.1169694    198.32646 0.0083512912 0.0066510596          100 
 1980000   0.45635993   -9.1103355     198.1306 0.0083388301 0.0066453913           90 
 1981000   0.47078379   -9.0897679    198.13825 0.0083349422 0.0066397266          105 
 1982000   0.47292548   -9.1064613    198.28558 0.0083369313 0.0066340763          106 
 1983000   0.46922933   -9.1141899    198.11974 0.0083257582 0.0066284277          115 
 1984000    0.4591087   -9.1036226    198.65078 0.0083438667 0.0066227884           98 
 1985000   0.46044412   -9.1258316    198.44381 0.0083309742 0.0066171492          101 
 1986000    0.4615682    -9.118088    198.32215 0.0083216748  0.006611526          129 
 1987000   0.45264411   -9.1170147    198.42229 0.0083216865 0.0066059036          116 
 1988000   0.45872865   -9.1185553    198.30527 0.0083125951 0.0066002884           92 
 1989000   0.46578698    -9.113071    198.13141 0.0083011318 0.0065946764          109 
 1990000   0.46265052   -9.0998657    198.46114 0.0083107679 0.0065890752          107 
 1991000   0.45779485    -9.113757    198.36784 0.0083026889 0.0065834772          111 
 1992000   0.45926676   -9.1184532    198.19299 0.0082912059 0.0065778774           84 
 1993000   0.45824878   -9.1211686    198.11684 0.0082838618 0.0065722861          105 
 1994000   0.46219833   -9.0978915    198.25837 0.0082856224 0.0065667041          128 
 1995000   0.44900174   -9.1251877    198.23852 0.0082806401  0.006561127           71 
 1996000   0.46685419   -9.1306463    198.03591 0.0082680325 0.0065555544          103 
 1997000   0.45057589   -9.1279501    198.12299 0.0082675259 0.0065499858          105 
 1998000   0.45723622   -9.1112762    198.54978 0.0082811887 0.0065444196          106 
 1999000   0.45620759   -9.1267287    198.08793 0.0082577926 0.0065388718          103 
 2000000   0.45771034   -9.1239425    198.45488 0.0082689532   0.00653333          116 
 2001000   0.45813492   -9.1099812    198.13625 0.0082515513 0.0065277908          101 
 2002000   0.45642213   -9.1188966    198.17571 0.0082490722 0.0065222589           98 
 2003000   0.45422959   -9.1275559    198.04378 0.0082394648  0.006516733          109 
 2004000   0.45013333   -9.1213728    198.03114 0.0082348279 0.0065112136           97 
 2005000   0.44911842   -9.1298315     198.5168 0.0082509059 0.0065057003          110 
 2006000   0.45625418   -9.1259584    198.16029 0.0082319827  0.006500192          106 
 2007000   0.44825082   -9.1258235    198.23561 0.0082310087 0.0064946945           95 
 2008000   0.45273683   -9.1181099    198.02351 0.0082181071 0.0064891972           98 
 2009000   0.45346318   -9.1289616    198.13791 0.0082187619 0.0064837011          101 
 2010000   0.45311308   -9.1161629    198.02647 0.0082100525 0.0064782161          103 
 2011000   0.45220988   -9.1336949    198.21418 0.0082137484 0.0064727292           99 
 2012000   0.45980879   -9.1312841    198.28862 0.0082127494 0.0064672478           72 
Loop time of 5037.47 on 48 procs for 2000000 steps with 4000 atoms

Performance: 68605.843 tau/day, 397.025 timesteps/s
99.4% CPU use with 48 MPI tasks x no OpenMP threads

MPI task timing breakdown:
Section |  min time  |  avg time  |  max time  |%varavg| %total
---------------------------------------------------------------
Pair    | 345.34     | 375.09     | 405.58     |  74.9 |  7.45
Neigh   | 33.815     | 35.1       | 36.653     |  12.3 |  0.70
Comm    | 311.8      | 350.02     | 382.12     |  82.9 |  6.95
Output  | 4.267      | 4.2686     | 4.3039     |   0.2 |  0.08
Modify  | 4206.1     | 4225.7     | 4247.1     |  12.7 | 83.89
Other   |            | 47.31      |            |       |  0.94

Nlocal:        83.3333 ave          90 max          76 min
Histogram: 1 1 8 4 7 9 3 11 2 2
Nghost:        2279.25 ave        2302 max        2264 min
Histogram: 4 6 11 7 7 2 1 6 2 2
Neighs:        15375.9 ave       17173 max       13866 min
Histogram: 2 5 4 8 10 6 6 5 1 1
FullNghs:      30751.3 ave       33650 max       27923 min
Histogram: 1 4 6 4 11 5 9 4 2 2

Total # of neighbors = 1476062
Ave neighs/atom = 369.01550
Neighbor list builds = 106600
Dangerous builds = 0

#clear
#
#next RN
#
#jump SELF
Total wall time: 1:24:01
