
units lj                  # Use reduced LJ style units
atom_style atomic         # Uncharged point particles
atom_modify map hash      # Needed for indexing of clusters etc
                          # Used to be able to find where atoms are in relation to each other.

# Define a lattice with which to populate the simulation cell. With units
# set to 'lj' the second argument to the lattice command is the reduced
# density rho* and the spacings are multiples of that required to acheive
# that density. Also define a simulation cell called 'box' in lattice units
# and fill it with atoms. Here we're creating a box which is ten lattice
# constants in each direction.
lattice fcc 1.0 spacing 1 1 1                 # All equal sizes - gives the right reduced density.
Lattice spacing in x,y,z = 1.5874011 1.5874011 1.5874011

region box block 0 10 0 10 0 10 units lattice # Defines a region, "box", in lattice units
create_box 1 box                              # Creates a simulation box as specified above,
Created orthogonal box = (0.0000000 0.0000000 0.0000000) to (15.874011 15.874011 15.874011)
  3 by 4 by 4 MPI processor grid
                                              # with one type of atom
create_atoms 1 box                            # Creates particles on lattice points
Created 4000 atoms
  using lattice units in orthogonal box = (0.0000000 0.0000000 0.0000000) to (15.874011 15.874011 15.874011)
  create_atoms CPU = 0.011 seconds


# Set the mass of the first (and only) atom type.
mass 1 1.0

# Lennard-Jones interactions between particles, 3.5 sigma cut-off. Apply
# long range tail corrections to energy and pressure and set all coefficients
# to unity since we work in reduced units here. Note that this doesn't shift
# the potential such that it goes to zero at the cutoff. That would require
# pair_modify('shift', 'yes').
pair_style lj/cut  3.5      # non-GPU version
pair_modify tail  yes
pair_coeff 1  1  1.0  1.0   # Intearaction between 1 and 1 set with epsilon = 1 and sigma = 1

write_data data.*
System init for write_data ...
Neighbor list info ...
  update every 1 steps, delay 10 steps, check yes
  max neighbors/atom: 2000, page size: 100000
  master list distance cutoff = 3.8
  ghost atom cutoff = 3.8
  binsize = 1.9, bins = 9 9 9
  1 neighbor lists, perpetual/occasional/extra = 1 0 0
  (1) pair lj/cut, perpetual
      attributes: half, newton on
      pair build: half/bin/atomonly/newton
      stencil: half/bin/3d
      bin: standard

#############################
#   M E L T   S Y S T E M   #
#############################

velocity all create 2.4 6583654 mom yes dist gaussian # Assign velocities
                                                    # Temperature 2.4, random number seed, zero linear momentum
						                                                        # Gaussian distribution

timestep 0.002   # simulation timestep
thermo 1000       # output thermodynamic data every 1000 steps

# Define a fix  in this case with index 1 applied to all
# particles in the simulation. This fix is for simulations
# in the anisotropic NPT ensemble. Note that we use the MTK
# correction.
fix 1 all npt temp 2.4 2.4 0.1 iso 5.68 5.68 0.5 mtk yes tchain 5 pchain 5 # Use NPT ensemble
                                                                         # Set temperature and pressure and damping
                                                                         # Numbers of thermostats in chain and in barostat
run 1000         # run for 10000 steps
Per MPI rank memory allocation (min/avg/max) = 3.642 | 3.644 | 3.648 Mbytes
Step Temp E_pair E_mol TotEng Press Volume 
       0          2.4   -8.3859253            0   -4.7868253   -2.2405722         4000 
    1000    2.3598253   -4.4579732            0  -0.91912021    5.7048558     5164.517 
Loop time of 0.226232 on 48 procs for 1000 steps with 4000 atoms

Performance: 763817.473 tau/day, 4420.240 timesteps/s
99.5% CPU use with 48 MPI tasks x no OpenMP threads

MPI task timing breakdown:
Section |  min time  |  avg time  |  max time  |%varavg| %total
---------------------------------------------------------------
Pair    | 0.094866   | 0.10117    | 0.1174     |   1.6 | 44.72
Neigh   | 0.017678   | 0.018717   | 0.021873   |   0.6 |  8.27
Comm    | 0.06294    | 0.081411   | 0.090127   |   2.1 | 35.99
Output  | 2.4403e-05 | 2.53e-05   | 3.2213e-05 |   0.0 |  0.01
Modify  | 0.019845   | 0.023312   | 0.028374   |   1.3 | 10.30
Other   |            | 0.001597   |            |       |  0.71

Nlocal:        83.3333 ave          92 max          74 min
Histogram: 1 2 5 4 5 15 8 4 3 1
Nghost:        1388.73 ave        1407 max        1372 min
Histogram: 6 1 7 7 5 2 9 6 1 4
Neighs:        7379.69 ave        8441 max        6080 min
Histogram: 1 0 2 9 5 12 9 7 1 2

Total # of neighbors = 354225
Ave neighs/atom = 88.556250
Neighbor list builds = 86
Dangerous builds = 12

# Equilibrate just above the melting temperature to avoid step fn in T

fix 1 all npt temp 1.25 1.25 0.1 iso 5.68 5.68 0.5 mtk yes tchain 5 pchain 5
run 1000
Per MPI rank memory allocation (min/avg/max) = 3.642 | 3.644 | 3.648 Mbytes
Step Temp E_pair E_mol TotEng Press Volume 
    1000    2.3598253   -4.4579732            0  -0.91912021    5.7048558     5164.517 
    2000    1.2696682   -5.8381473            0   -3.9341211    5.6425989    4351.2694 
Loop time of 0.219799 on 48 procs for 1000 steps with 4000 atoms

Performance: 786171.775 tau/day, 4549.605 timesteps/s
99.6% CPU use with 48 MPI tasks x no OpenMP threads

MPI task timing breakdown:
Section |  min time  |  avg time  |  max time  |%varavg| %total
---------------------------------------------------------------
Pair    | 0.096041   | 0.10082    | 0.11678    |   1.4 | 45.87
Neigh   | 0.015611   | 0.016449   | 0.019049   |   0.6 |  7.48
Comm    | 0.061093   | 0.076913   | 0.086319   |   1.9 | 34.99
Output  | 2.2833e-05 | 2.3605e-05 | 3.0542e-05 |   0.0 |  0.01
Modify  | 0.017906   | 0.023627   | 0.03257    |   2.4 | 10.75
Other   |            | 0.001968   |            |       |  0.90

Nlocal:        83.3333 ave          93 max          75 min
Histogram: 1 2 6 12 7 8 8 2 1 1
Nghost:        1550.04 ave        1575 max        1524 min
Histogram: 1 1 5 6 9 12 7 5 1 1
Neighs:        8747.10 ave       10033 max        7783 min
Histogram: 1 1 12 9 9 7 4 4 0 1

Total # of neighbors = 419861
Ave neighs/atom = 104.96525
Neighbor list builds = 75
Dangerous builds = 7


# Small amount of linear quench

fix 1 all npt temp 1.25 ${temp} 0.1 iso 5.68 5.68 0.5 mtk yes tchain 5 pchain 5
fix 1 all npt temp 1.25 2 0.1 iso 5.68 5.68 0.5 mtk yes tchain 5 pchain 5
run 2000
Per MPI rank memory allocation (min/avg/max) = 3.643 | 3.645 | 3.648 Mbytes
Step Temp E_pair E_mol TotEng Press Volume 
    2000    1.2696682   -5.8381473            0   -3.9341211    5.6425989    4351.2694 
    3000    1.5802575   -5.3660174            0   -2.9962238    5.8129791    4569.2278 
    4000    1.9595531   -4.8622518            0    -1.923657    5.5696091    4901.1525 
Loop time of 0.426923 on 48 procs for 2000 steps with 4000 atoms

Performance: 809513.768 tau/day, 4684.686 timesteps/s
99.6% CPU use with 48 MPI tasks x no OpenMP threads

MPI task timing breakdown:
Section |  min time  |  avg time  |  max time  |%varavg| %total
---------------------------------------------------------------
Pair    | 0.19104    | 0.19864    | 0.20688    |   0.9 | 46.53
Neigh   | 0.031942   | 0.03289    | 0.034214   |   0.3 |  7.70
Comm    | 0.13338    | 0.14565    | 0.15969    |   1.5 | 34.12
Output  | 4.7641e-05 | 4.8824e-05 | 6.2302e-05 |   0.0 |  0.01
Modify  | 0.038334   | 0.045809   | 0.053709   |   1.8 | 10.73
Other   |            | 0.003888   |            |       |  0.91

Nlocal:        83.3333 ave          91 max          76 min
Histogram: 1 3 6 3 13 7 8 1 4 2
Nghost:        1437.25 ave        1453 max        1418 min
Histogram: 1 4 3 4 10 1 9 5 8 3
Neighs:        7766.69 ave        8705 max        7071 min
Histogram: 3 2 8 12 7 5 5 3 1 2

Total # of neighbors = 372801
Ave neighs/atom = 93.200250
Neighbor list builds = 150
Dangerous builds = 2

#############################
# F R E E Z E  S Y S T E M  #
#############################

# Define solid atoms. This closely follows ten Wolde  Ruiz-Montero and Frenkel  Faraday Discuss  1996  104  93-110
# Compute components of the per-atom q6 vector
compute q6 all orientorder/atom degrees 1 6 components 6 nnn NULL cutoff 1.3 # compute the Q6 parameter.
                                                                             # Use all neighbours within 1.3 unit cell.

# get number of connections
compute coord_number all coord/atom orientorder q6 0.5

# An atom is solid if it has 8 or more connections (of a possible 14)
variable is_solid atom c_coord_number>=8
group solid dynamic all var is_solid    # Must be dynamic to update
dynamic group solid defined

# do clustering
compute cluster solid cluster/atom 1.3 # Create a cluster where all atoms within are solid and max 1.3 units from another member

# define chunks one chunk per cluster
compute clus_chunks solid chunk/atom c_cluster nchunk every compress yes  # Says which atoms are in which chunk

# count the size of each chunk
compute size_chunks solid property/chunk clus_chunks count


# Find the maximum entry in the vector of chunk sizes
variable max_n equal max(c_size_chunks)


# Thermo style which includes this variable
thermo_style custom step temp pe vol v_max_n

thermo ${N}  # Print the thermo information every 100 steps
thermo 1000  

# Reset the npt fix at a lower temperature (below freezing)
fix 1  all npt temp  ${temp} ${temp}  0.1  iso  5.68  5.68  0.5  mtk yes tchain  5  pchain  5
fix 1  all npt temp  2 ${temp}  0.1  iso  5.68  5.68  0.5  mtk yes tchain  5  pchain  5
fix 1  all npt temp  2 2  0.1  iso  5.68  5.68  0.5  mtk yes tchain  5  pchain  5

dump dmp2 all dcd ${N} traj_${rand}.dcd
dump dmp2 all dcd 1000 traj_${rand}.dcd
dump dmp2 all dcd 1000 traj_462431.dcd


# fix rnuntil all halt ${N} v_max_n >= 3980 error soft message no   # Stop when solidified


run 1000000 # 5000000  # Run for this many steps
Neighbor list info ...
  update every 1 steps, delay 10 steps, check yes
  max neighbors/atom: 2000, page size: 100000
  master list distance cutoff = 3.8
  ghost atom cutoff = 3.8
  binsize = 1.9, bins = 9 9 9
  4 neighbor lists, perpetual/occasional/extra = 1 3 0
  (1) pair lj/cut, perpetual
      attributes: half, newton on
      pair build: half/bin/atomonly/newton
      stencil: half/bin/3d
      bin: standard
  (2) compute orientorder/atom, occasional
      attributes: full, newton on
      pair build: full/bin/atomonly
      stencil: full/bin/3d
      bin: standard
  (3) compute coord/atom, occasional
      attributes: full, newton on
      pair build: full/bin/atomonly
      stencil: full/bin/3d
      bin: standard
  (4) compute cluster/atom, occasional
      attributes: full, newton on
      pair build: full/bin/atomonly
      stencil: full/bin/3d
      bin: standard
Per MPI rank memory allocation (min/avg/max) = 9.322 | 9.330 | 9.334 Mbytes
Step Temp PotEng Volume v_max_n 
    4000    1.9595531   -4.8622518    4901.1525            1 
    5000    2.0338338   -4.7942397    4934.7692            1 
    6000    1.9897247   -4.8434213    4883.6101            2 
    7000    2.0221833   -4.8005444    4919.0692            1 
    8000    1.9835923   -4.7777466    4911.5768            1 
    9000    1.9884297   -4.7468069    4923.4663            1 
   10000    1.9683867   -4.7532971    4935.1127            2 
   11000    1.9946729   -4.8347113    4883.1086            2 
   12000    2.0265794   -4.7870071     4935.215            1 
   13000    2.0045802   -4.8314219    4889.5016            1 
   14000    2.0053465   -4.8270615    4946.0472            1 
   15000    1.9953023    -4.857324    4905.6132            1 
   16000    1.9757845   -4.7974981    4942.8329       -1e+20 
   17000    2.0048113   -4.8408294    4914.7045            1 
   18000    2.0108206   -4.8212532    4946.8857            1 
   19000    1.9647123    -4.777978    4934.8208            1 
   20000    1.9479204   -4.8092527    4901.5899       -1e+20 
   21000    2.0085297   -4.7932927    4943.3939            1 
   22000    1.9773726   -4.8128835    4944.3031            1 
   23000    2.0197148   -4.8037081    4948.9893            1 
   24000    1.9925513   -4.7572456    4966.4573            1 
   25000    1.9844899   -4.7776276    4917.7453            1 
   26000    2.0187664   -4.7991305    4934.6859            1 
   27000     2.025545   -4.8049633    4923.6686            1 
   28000    1.9954471   -4.8092756    4906.1651            1 
   29000    2.0049187   -4.8303017    4953.4916            1 
   30000    1.9646088   -4.7718024    4933.0554            1 
   31000    2.0150235   -4.8500317    4917.6743            1 
   32000    2.0164028   -4.8016476    4926.5932            1 
   33000    2.0159825   -4.8530746    4912.4581            1 
   34000    2.0029534    -4.786491     4902.073            1 
   35000    2.0198982   -4.7947487    4917.2504       -1e+20 
   36000    1.9821505   -4.8610188    4912.0742            1 
   37000    1.9641644   -4.8291633     4898.604            1 
   38000    2.0113359   -4.7646291    4921.5899            1 
   39000    2.0444189   -4.7657546    4913.3272       -1e+20 
   40000    1.9612556   -4.8402666    4904.3193            1 
   41000    2.0238098   -4.8199433    4946.2959       -1e+20 
   42000    1.9882337    -4.779908    4919.7658            1 
   43000    1.9865194   -4.8129754    4907.4192       -1e+20 
   44000    1.9783941   -4.8596263     4875.751            2 
   45000    2.0099611   -4.7381085    4945.7235            1 
   46000    1.9934529   -4.7965481     4935.101            1 
   47000    1.9789352   -4.8311171     4905.712            1 
   48000    1.9860205   -4.8209791    4933.1504            1 
   49000    1.9814188   -4.7574897    4926.8566            1 
   50000    2.0064927   -4.7734374    4945.6764            1 
   51000    1.9826017   -4.8555952    4902.9811            1 
   52000    1.9877462   -4.8450238    4924.3827            2 
   53000    1.9750884   -4.7502665    4942.9264            1 
   54000    2.0952919   -4.8094047    4887.4973       -1e+20 
   55000    1.9943732   -4.8066279    4906.9726       -1e+20 
   56000    2.0306216    -4.804215    4937.9377            1 
   57000    1.9994307    -4.829017    4926.5175       -1e+20 
   58000    2.0200374   -4.7868384     4911.092            1 
   59000    1.9943952   -4.8101402    4929.0947            1 
   60000    2.0122116   -4.7673842    4943.3248       -1e+20 
   61000    2.0441004   -4.8047169    4921.8718            1 
   62000    1.9818521   -4.7668101    4915.6822            1 
   63000    2.0283352   -4.8285722    4920.6229            1 
   64000    2.0254762   -4.7891942    4915.3183            2 
   65000    2.0139711   -4.7907627    4930.1765            1 
   66000    1.9758263   -4.8461632    4886.4628            2 
   67000     1.987761   -4.7842125    4932.0858            1 
   68000    1.9767192   -4.7878439    4932.8655       -1e+20 
   69000    2.0140208   -4.7942247    4925.5972            3 
   70000    2.0278256   -4.8255759    4929.9699            1 
   71000    2.0226717   -4.7952389    4908.1419            1 
   72000     2.011535   -4.8103602    4934.1862            1 
   73000    2.0010588   -4.7772756    4911.1846            1 
   74000    1.9688116    -4.814036    4929.6966            1 
   75000    1.9668992   -4.7879818    4864.0512            2 
   76000    1.9969432   -4.7840635    4955.4778            1 
   77000    1.9890222   -4.7974617    4894.4524            1 
   78000    1.9987641   -4.8185133    4897.3558            1 
   79000     1.970362   -4.8015234     4920.301            1 
   80000    2.0170998   -4.7891027     4926.813            1 
   81000    1.9800891   -4.8320443    4919.9927            1 
   82000    1.9605974   -4.7519867    4921.5409       -1e+20 
   83000    1.9578256   -4.8263607    4930.7278            1 
   84000    2.0218302   -4.7884987    4921.0039            1 
   85000    2.0179918   -4.7750686    4897.9897            1 
   86000    2.0227497   -4.7834158    4932.2772            1 
   87000    2.0155482   -4.8391989    4916.4526            1 
   88000    1.9705949   -4.8101808    4926.9853       -1e+20 
   89000     1.992488   -4.8165017    4895.6536       -1e+20 
   90000    1.9653198   -4.8529301     4926.624            1 
   91000    2.0000706   -4.7842018    4952.1384            1 
   92000     2.003277   -4.7818383    4935.3043            1 
   93000    2.0130354   -4.8129241    4897.5963            1 
   94000    2.0244664   -4.8236976    4917.5414            2 
   95000    1.9919251   -4.8152743    4882.4661            1 
   96000    1.9924247   -4.7706443    4931.1224            1 
   97000    2.0079768   -4.7707972    4915.8817       -1e+20 
   98000    1.9838704   -4.7718517     4926.518            1 
   99000     1.954238    -4.848085    4904.3197            1 
  100000    1.9895826    -4.740788    4924.7204       -1e+20 
  101000     2.017485   -4.8031528    4895.8446            1 
  102000    2.0231585   -4.8071179     4906.452            1 
  103000     2.010576   -4.7630231    4932.5619            1 
  104000    2.0017735   -4.7904678    4902.5864            2 
  105000    2.0293907   -4.7831211    4920.2003            1 
  106000    2.0070917   -4.7843408    4917.8172            1 
  107000    1.9718805   -4.8215263    4931.3366            1 
  108000    1.9829786   -4.7870255    4913.5584       -1e+20 
  109000    1.9926419   -4.7889591    4924.8484       -1e+20 
  110000    2.0269026   -4.8301643    4905.7563            1 
  111000    2.0126039   -4.8354315    4890.9767            2 
  112000    2.0011757   -4.7811603    4924.5673            1 
  113000    2.0058215   -4.7845869    4944.9666            4 
  114000    2.0471151   -4.8188343     4895.807            1 
  115000    1.9833893   -4.7672034    4940.5872            1 
  116000     1.982985   -4.8523265    4890.0685            1 
  117000     2.022239   -4.8115576    4931.0697            1 
  118000    1.9855268   -4.8245725    4903.2431            1 
  119000    1.9913698   -4.7709476    4901.5396            2 
  120000    1.9800267   -4.8113745    4924.6404            1 
  121000    1.9549685   -4.8078317    4898.7211            1 
  122000    1.9681891   -4.7822617    4944.7029            1 
  123000    1.9880439    -4.723591     4943.827            1 
  124000    1.9647035    -4.814585    4910.0536            2 
  125000    1.9797891   -4.8227306     4904.969            1 
  126000    1.9670287   -4.7904071    4939.2193            1 
  127000    2.0023785   -4.7711532    4921.0282            1 
  128000    2.0007228   -4.8527887    4916.6743            1 
  129000    1.9898499   -4.7297391    4947.6148            1 
  130000    2.0028258   -4.7913658     4940.261            1 
  131000    1.9937488   -4.7742044    4880.1752            1 
  132000     1.979915   -4.7917394    4929.7845            1 
  133000    2.0141171    -4.822523    4920.2123       -1e+20 
  134000    2.0068657    -4.774734    4906.3328            1 
  135000    1.9496728   -4.7998085     4933.437            1 
  136000    1.9980899   -4.8236057    4864.0626            1 
  137000    2.0058607   -4.8190313     4908.977            2 
  138000    2.0231342   -4.8595427    4908.3944            1 
  139000    2.0299191   -4.7806023    4920.2327            1 
  140000    2.0093848   -4.7993956    4919.7418            1 
  141000    2.0367724   -4.7720795    4924.7717            1 
  142000    2.0231519   -4.7785722    4941.2724            1 
  143000    2.0115188   -4.7780079    4919.3108            2 
  144000    1.9630263    -4.781986    4932.2725            1 
  145000    2.0018727    -4.822837    4899.5856            2 
  146000    2.0214084   -4.7969534    4918.7726            1 
  147000    1.9808554   -4.8144808    4915.0374            1 
  148000     1.941529   -4.8046234    4902.3466       -1e+20 
  149000     2.025877   -4.7820459    4897.2946       -1e+20 
  150000    1.9838006   -4.8164538    4915.5811       -1e+20 
  151000    2.0011872   -4.7747581    4886.7172            3 
  152000    1.9818817   -4.8494445    4937.7088            2 
  153000    2.0203557   -4.8197333    4899.0562            1 
  154000    1.9980865   -4.8289967    4928.8837            1 
  155000    2.0086331   -4.8064987    4916.9974            1 
  156000    2.0192486   -4.8178162    4943.5566            1 
  157000    2.0070515   -4.8398986    4903.6403            2 
  158000    1.9908158   -4.7691781    4953.0683            1 
  159000    2.0292876   -4.8435605    4912.4649            1 
  160000    1.9317198   -4.8116945    4902.8621            1 
  161000    2.0015954   -4.8103209    4901.2779            1 
  162000    2.0000604    -4.826846    4936.2579            1 
  163000    2.0086348   -4.7793435    4897.3629            1 
  164000     2.010148   -4.7757396    4920.0015            1 
  165000    1.9948713    -4.826395    4934.6389            1 
  166000    2.0118757   -4.7676732    4927.3807            1 
  167000    2.0328716   -4.8581991    4915.7574            2 
  168000    1.9960589   -4.8201091    4926.3821            1 
  169000    1.9863332   -4.7576661    4934.6407            1 
  170000     1.977127   -4.7914436    4926.4152            1 
  171000     2.004399   -4.8582777    4890.0681            1 
  172000    2.0025018   -4.8285121    4889.7228            1 
  173000     1.987725   -4.8007745    4939.6085            1 
  174000    2.0675257   -4.8305715    4911.7159            2 
  175000    2.0353676   -4.8563731    4910.6234            1 
  176000    1.9933719   -4.8044656    4932.9019            1 
  177000    1.9808984   -4.7613666    4935.7194            2 
  178000    1.9628266   -4.8196415     4887.673            1 
  179000    2.0339026   -4.8274652    4905.3127            1 
  180000    1.9745828   -4.7991277    4879.3943            1 
  181000    1.9916004   -4.8366925    4898.0819            2 
  182000    1.9772698   -4.8536734    4933.4824            1 
  183000    2.0248856   -4.7923847    4936.0457            1 
  184000    2.0415028   -4.7877775    4914.7449            1 
  185000     2.027701   -4.7761045    4931.5734            1 
  186000    1.9772365   -4.7736385    4906.7471       -1e+20 
  187000    1.9636207   -4.8040404      4912.08       -1e+20 
  188000    1.9895767   -4.7950788    4924.8271            2 
  189000    1.9801027    -4.851956    4922.5987            1 
  190000    1.9781417   -4.8279158    4899.5694            1 
  191000    2.0063795   -4.8026304    4925.4649            1 
  192000    2.0030316   -4.7658064    4930.2766            2 
  193000    2.0042519   -4.8188116    4912.4774            1 
  194000    1.9896394   -4.7901068    4956.9364       -1e+20 
  195000    2.0199912   -4.7910589    4925.4255       -1e+20 
  196000    2.0285808   -4.8447471    4920.2827            2 
  197000    1.9917035   -4.7971461    4893.9633            1 
  198000    1.9909174   -4.8147643    4901.2873       -1e+20 
  199000    1.9790879   -4.7155568    4925.5867            2 
  200000    1.9841368   -4.8522041    4925.5553       -1e+20 
  201000    2.0025331   -4.8365604    4917.0123            1 
  202000    1.9990034   -4.8004621    4950.5236       -1e+20 
  203000    1.9696813   -4.7664131    4899.9376       -1e+20 
  204000    1.9786393    -4.821502     4928.885            1 
  205000    2.0274174   -4.7698204    4937.2488            2 
  206000    1.9868013   -4.8312895    4853.4856            1 
  207000    1.9735729   -4.7973573    4898.8014            2 
  208000    2.0191624   -4.7476694    4956.3556            1 
  209000    1.9935887   -4.8168416    4912.8945            1 
  210000    1.9698539   -4.7998665    4914.3148            1 
  211000     2.027963   -4.8262279    4901.1237            1 
  212000    2.0265493   -4.7470923    4928.2888            1 
  213000    1.9895839   -4.7849934    4941.1503            1 
  214000    1.9513601   -4.7790453     4910.473            1 
  215000    1.9845869   -4.8089931    4905.9474            1 
  216000    1.9975091   -4.8173072    4888.4457            1 
  217000    1.9932432   -4.8269592    4932.9682            1 
  218000     2.001273   -4.8388411    4898.1175            1 
  219000    2.0038771   -4.7741194    4927.7785            1 
  220000    2.0050184   -4.7560081    4920.1304            1 
  221000    1.9937711   -4.8199917    4926.5179       -1e+20 
  222000    2.0263075   -4.7778641    4924.2186       -1e+20 
  223000    1.9866692   -4.7919117    4920.1513            2 
  224000    2.0191473   -4.8268886    4892.0585            1 
  225000    2.0265264   -4.8654947    4900.8642       -1e+20 
  226000    2.0110543   -4.7815737    4895.7578            2 
  227000    2.0089877   -4.8080028    4919.8486            1 
  228000    2.0098897   -4.7805152    4969.6772            1 
  229000    2.0089737   -4.7960818     4941.257            1 
  230000    2.0135881    -4.736224    4926.0889            1 
  231000    2.0066053   -4.7698415    4934.5803            1 
  232000    2.0146581   -4.7842067    4918.7316            1 
  233000    2.0286397   -4.7735247    4937.8386            1 
  234000    1.9838189   -4.7696722    4944.7171            1 
  235000    2.0118918   -4.7962173    4927.7778            1 
  236000     2.049209   -4.7777606    4920.0786            1 
  237000    1.9938865   -4.8233508    4902.5725            1 
  238000      1.98179   -4.8437142    4886.5159            2 
  239000    2.0068277   -4.7571477    4911.8079            1 
  240000     2.017542   -4.8464628    4911.7698       -1e+20 
  241000    2.0316345   -4.8071631    4908.6783            1 
  242000    1.9957206   -4.8055171    4929.0668            1 
  243000    2.0564074    -4.766389    4916.0779            1 
  244000    1.9928796   -4.7740158    4921.1908            1 
  245000    1.9817419   -4.7949536    4948.3993            1 
  246000    1.9875086   -4.7903969    4957.4192            1 
  247000    2.0087499   -4.8039533    4930.7603            1 
  248000    2.0157031   -4.7998482    4923.7892            1 
  249000    1.9839065   -4.7694097    4919.5968            1 
  250000    1.9939203   -4.7833462    4934.1138            1 
  251000    1.9733775   -4.8223305    4876.0359            1 
  252000    2.0383382   -4.7677114    4953.6576            1 
  253000    1.9761084   -4.7732907    4935.9782            1 
  254000    2.0072389   -4.8195949    4898.3844            1 
  255000    2.0143741   -4.8361538    4896.5066            1 
  256000    2.0213779   -4.7778551    4949.4792            1 
  257000    2.0388438   -4.7361076     4964.845       -1e+20 
  258000    1.9656466   -4.8224639    4901.2702            1 
  259000    2.0079124   -4.7744209    4930.7172            1 
  260000    1.9975614   -4.8161012     4894.761            1 
  261000    2.0252441   -4.8347782    4915.5502            2 
  262000    1.9827813   -4.8132349    4916.5362            1 
  263000    2.0075589   -4.8514643    4901.4823            1 
  264000     2.035971   -4.7534701    4905.6363            1 
  265000    2.0028436   -4.8284087    4919.1974            1 
  266000    2.0254074   -4.8346734    4906.7726            1 
  267000    1.9792687   -4.7909606    4898.1606            1 
  268000    2.0295445   -4.8122834    4929.2389            1 
  269000    1.9979678   -4.8124718    4919.3999            1 
  270000    2.0650174   -4.7958839    4893.7996            1 
  271000    1.9811639   -4.8131216    4922.2263            1 
  272000    1.9799012   -4.7761444    4892.2677       -1e+20 
  273000    1.9281954   -4.8053229    4906.6268            1 
  274000    2.0083774   -4.7802524    4930.9583            1 
  275000    2.0291377   -4.8006805    4928.3435            1 
  276000    1.9918228   -4.8058458    4897.8967       -1e+20 
  277000    1.9497638   -4.8242027    4885.9843            1 
  278000    2.0130439   -4.8085365    4920.3045            1 
  279000    2.0026452   -4.8090743    4922.3845            1 
  280000    1.9792441   -4.7992337    4915.5261       -1e+20 
  281000    2.0275454   -4.7965163    4911.3665            1 
  282000    1.9640887   -4.8381567    4912.5507       -1e+20 
  283000    1.9998696   -4.7587956    4938.3814            1 
  284000    2.0286014   -4.8154124    4917.4166            1 
  285000    1.9891698   -4.7632039    4919.2461            1 
  286000      2.04064   -4.7568117    4951.5609            1 
  287000     2.020221   -4.8432108    4880.0803            1 
  288000    2.0312911   -4.8460606      4897.01            1 
  289000    1.9509741   -4.7854261    4924.3764            1 
  290000    2.0220739   -4.7987801    4901.1343            1 
  291000    2.0361382   -4.7777438    4982.0095            1 
  292000    2.0198102   -4.7753278    4915.1257            1 
  293000    2.0000523   -4.8083485    4922.1436            1 
  294000    2.0080117   -4.7791432    4896.8456            1 
  295000    1.9349308   -4.7673867    4923.5722            2 
  296000    1.9794979   -4.8395223    4913.7234            2 
  297000    2.0429993   -4.8093634    4928.9658            2 
  298000    1.9855432   -4.8122241    4904.0138            1 
  299000    2.0175838    -4.800112    4922.3335       -1e+20 
  300000    1.9810587   -4.7536833    4934.3177            1 
  301000    2.0001594   -4.7821214    4925.2537            2 
  302000    2.0367494   -4.8052685    4912.6839            1 
  303000    1.9937692   -4.7458425    4940.0614            1 
  304000    1.9268356   -4.8314069    4909.1647            1 
  305000    2.0283102   -4.7938241    4912.8705       -1e+20 
  306000    2.0204947   -4.8218294     4951.369            1 
  307000    2.0005348   -4.7894465     4918.093       -1e+20 
  308000    1.9879153   -4.7864951    4917.4404       -1e+20 
  309000     1.970147   -4.7936038    4934.5702            2 
  310000    1.9863133   -4.7801622    4922.0733            2 
  311000     1.964712   -4.8145433    4895.5104       -1e+20 
  312000    1.9801235   -4.7448123    4945.9677            1 
  313000    1.9936032   -4.8027079    4878.3778            1 
  314000    2.0075828   -4.8001605     4913.976            1 
  315000     2.019119   -4.7593219    4921.3909            1 
  316000    1.9867229   -4.7948663     4950.634            1 
  317000    2.0032417   -4.7975815    4918.4524            2 
  318000     2.030135    -4.773387    4953.6768            1 
  319000    2.0014781   -4.7884773    4918.8301            1 
  320000    2.0148513   -4.8311712    4924.6007            1 
  321000    1.9750958   -4.7169784    4907.9586            1 
  322000    1.9935363   -4.7904356    4900.5549            1 
  323000    1.9801796   -4.7912184    4914.2536            1 
  324000    1.9967198    -4.782074    4909.1671            2 
  325000    2.0193156   -4.7642511    4932.2774            2 
  326000    1.9839102   -4.8058345    4977.0264            2 
  327000    1.9818403   -4.8227158    4922.4349            1 
  328000    2.0560049   -4.7391288    4918.2641            1 
  329000    2.0442391   -4.7665402    4940.8127            1 
  330000     2.008192   -4.7862612    4917.3324            1 
  331000    1.9596448   -4.8171075    4910.7785            1 
  332000    1.9537833   -4.7749537    4935.0744            1 
  333000     1.993816    -4.796301     4923.138            1 
  334000    2.0382987   -4.7911101    4927.0923            1 
  335000    2.0145492   -4.7622191      4913.79            1 
  336000    2.0178901   -4.8142461    4928.4206            1 
  337000     1.980466   -4.7931754    4922.6029            1 
  338000    2.0032793   -4.8050319    4925.4839            1 
  339000    1.9802409   -4.8402815    4889.3728            1 
  340000    2.0122023   -4.7778498     4888.694            2 
  341000    2.0119961   -4.7648329    4914.8772            1 
  342000    2.0121466   -4.7932455    4915.1717            1 
  343000    1.9933533    -4.836119    4919.8762            2 
  344000    1.9648917   -4.7647277    4954.2404            1 
  345000    2.0391866    -4.761034    4934.6984       -1e+20 
  346000    2.0248567   -4.7925004    4960.3625            1 
  347000    2.0078253    -4.794761    4925.9484            1 
  348000    1.9924453   -4.7931212    4909.9242       -1e+20 
  349000    1.9755549   -4.7822795    4899.1691            1 
  350000    1.9645219    -4.764692    4943.7136       -1e+20 
  351000    1.9998507    -4.819648    4892.2734            1 
  352000    1.9765205   -4.7984271    4939.6554            1 
  353000    1.9908869   -4.8004556    4883.8056            1 
  354000    2.0072714   -4.8062808    4917.0192            2 
  355000    2.0084977   -4.7835256    4926.7481            1 
  356000    1.9797251   -4.8522586    4907.7764            1 
  357000    1.9611947     -4.82733    4911.0698            1 
  358000    2.0284036   -4.8319161    4912.6277            1 
  359000    1.9628577   -4.7433909    4932.9968            1 
  360000    1.9958093   -4.8041935    4921.7707            1 
  361000    2.0085053   -4.7618546    4916.0765            1 
  362000    1.9867738   -4.7829325    4914.2308            1 
  363000    1.9963621   -4.7819394    4923.7373            1 
  364000     1.983446   -4.8369775    4899.0241       -1e+20 
  365000    1.9820667   -4.8263282    4905.1458            2 
  366000    1.9763781   -4.8042361    4911.5354       -1e+20 
  367000    1.9359599   -4.7703861    4948.4557            1 
  368000    2.0106076   -4.8211042    4899.3475            1 
  369000    2.0404188   -4.7778053    4945.4793       -1e+20 
  370000    2.0098424   -4.8577328     4902.602            1 
  371000    2.0227261   -4.7905052    4927.8639            2 
  372000    1.9433814   -4.8490905    4898.8622            1 
  373000    2.0224573   -4.8059359    4921.9624            1 
  374000    2.0481145   -4.8141306    4917.7296            2 
  375000    1.9698273   -4.7991352    4918.1269       -1e+20 
  376000    2.0251893   -4.8031631    4918.3456            1 
  377000    1.9932052   -4.8759356    4913.7032            1 
  378000    2.0192245   -4.8433744    4899.5657            1 
  379000    1.9912669   -4.8118767    4904.9653            2 
  380000    2.0200975   -4.7541064    4925.3603            1 
  381000    2.0074282   -4.8171509    4924.7697            1 
  382000    1.9744602   -4.7929214     4932.166            1 
  383000    1.9602034   -4.8297629    4896.0302            4 
  384000    2.0372287   -4.7921247    4916.6365            3 
  385000    2.0344925   -4.7832932    4948.3479            1 
  386000    2.0115056   -4.8264287    4924.4781            1 
  387000    1.9855467   -4.8116392    4894.2811            1 
  388000    1.9480772   -4.8439821    4907.6337            1 
  389000    1.9895034   -4.8077936    4933.4024            1 
  390000    2.0256542   -4.7851237    4928.5869            1 
  391000    1.9764653   -4.7417426    4930.6864            1 
  392000    1.9994685    -4.810474    4914.5313       -1e+20 
  393000    1.9560088   -4.7616988    4903.6123            1 
  394000    2.0342321   -4.7830977    4950.0518            1 
  395000    2.0062955   -4.7474111      4926.55       -1e+20 
  396000    2.0041297    -4.808229    4947.2599       -1e+20 
  397000    2.0171852   -4.8118139    4937.7478            1 
  398000    1.9666024   -4.8232271     4889.189            1 
  399000    1.9996176   -4.7505111    4940.0997            1 
  400000     2.040625   -4.8392818    4900.7179            1 
  401000    1.9892277   -4.8257628    4939.2421            1 
  402000    2.0020929   -4.7874846     4920.185            2 
  403000    2.0076199   -4.8678729    4914.1592            2 
  404000    2.0434847   -4.7900989    4951.8553            1 
  405000    2.0357314   -4.7588477    4942.2634            1 
  406000    2.0135393   -4.8237907    4924.9943            1 
  407000    1.9551678   -4.8200596      4926.87            1 
  408000    1.9712789   -4.7684494      4906.49       -1e+20 
  409000     2.018661   -4.7450005    4943.7297            1 
  410000    1.9997158   -4.7474341    4931.8563            2 
  411000    1.9670299   -4.7732004    4933.1884            1 
  412000    2.0171657   -4.8880977    4886.5282            2 
  413000    2.0192755   -4.7900674    4927.3073       -1e+20 
  414000    1.9831249   -4.7690224    4939.7057            1 
  415000    2.0312594   -4.7858881     4922.478       -1e+20 
  416000    1.9743653   -4.7970641    4950.8465            1 
  417000    1.9874157   -4.7984965    4936.8383            1 
  418000    1.9531571   -4.7856919    4898.9236            2 
  419000     2.011207   -4.7584693     4962.594            1 
  420000    2.0210802   -4.7946732    4918.5198            1 
  421000    2.0173885   -4.7464669    4902.9253            1 
  422000    2.0562937   -4.7962386    4925.9257            1 
  423000    2.0100642   -4.8093991    4891.4468            1 
  424000    2.0427493   -4.8284634    4927.1522            2 
  425000    1.9970149   -4.8062193    4930.9162            1 
  426000    1.9950818   -4.8180006    4887.9818            1 
  427000    2.0208525   -4.7859471    4946.0753       -1e+20 
  428000    2.0245979   -4.8085121    4904.9182            1 
  429000     1.949632    -4.802447     4923.168            1 
  430000     2.026975   -4.8062306    4903.7342            1 
  431000    1.9740381   -4.8189274    4906.4642            1 
  432000    1.9979631    -4.828487    4936.2825            1 
  433000    1.9806213   -4.7826071    4927.0599            1 
  434000    1.9907709   -4.7375152    4947.4121            1 
  435000    2.0050643   -4.7906126     4938.845            1 
  436000    1.9959816   -4.7747517    4926.1374            1 
  437000    2.0115579   -4.7842775    4900.9358            2 
  438000    1.9945908   -4.7702078    4908.4085            1 
  439000    2.0332882   -4.8039494    4943.0209            1 
  440000    1.9521571   -4.7938234     4909.831       -1e+20 
  441000    2.0372222   -4.8030108    4936.1642            1 
  442000    2.0111629   -4.7713579    4930.6402            1 
  443000    2.0022781   -4.8631743    4899.1654            1 
  444000    1.9787917   -4.8219767    4905.7591            1 
  445000    1.9639397   -4.7931733    4917.9661       -1e+20 
  446000    1.9776107   -4.8045745    4899.5587            1 
  447000    2.0045442   -4.8476664    4905.6111       -1e+20 
  448000    1.9899022   -4.8177074    4880.5762            1 
  449000    2.0270713   -4.7815883    4909.1853            1 
  450000    1.9589253   -4.8146535    4918.4752            1 
  451000    2.0017508   -4.7581878    4906.9737            1 
  452000    1.9965671   -4.8315411    4921.0455            2 
  453000     2.033514   -4.8072969    4905.2548            1 
  454000    1.9797326   -4.8188491    4922.6859            1 
  455000    1.9829884   -4.7931455     4913.292            1 
  456000    2.0148039   -4.8066481    4933.6058            1 
  457000    2.0276018   -4.8195145    4943.5312            1 
  458000    1.9658204   -4.8159926    4900.4149            1 
  459000    1.9949917   -4.7740916    4943.9726       -1e+20 
  460000    1.9691478   -4.7710976    4939.3958       -1e+20 
  461000    1.9896762   -4.8048358    4914.4046            1 
  462000    1.9462283   -4.8283787      4935.11       -1e+20 
  463000    1.9831865   -4.7883655    4916.4712            1 
  464000    1.9674291   -4.8226529    4937.1333            1 
  465000    2.0083177   -4.7743299    4909.1985            1 
  466000    1.9846412   -4.7863099    4964.0233            1 
  467000     2.035917   -4.7797292     4876.155            1 
  468000     1.965021    -4.795955    4879.6395            3 
  469000    1.9939084   -4.7970371    4941.7607            1 
  470000    1.9544114   -4.8174629    4908.6831            1 
  471000    1.9781134   -4.7950369    4890.2036            1 
  472000    2.0232861   -4.7608262    4937.3298            1 
  473000    2.0152956   -4.8578456    4911.5156            1 
  474000     2.013833   -4.8197885     4910.262            1 
  475000    1.9808399   -4.7504873    4935.0158            1 
  476000    2.0088305   -4.7995609    4925.8147            1 
  477000    2.0173906   -4.7536805    4941.4424            1 
  478000    1.9990793    -4.765641    4934.9153            1 
  479000    1.9984683    -4.827178    4920.0686            2 
  480000    1.9817701    -4.822709     4896.584            1 
  481000    1.9981711   -4.7755964    4940.7497            1 
  482000     1.989022   -4.7884594    4926.2482            1 
  483000    2.0161905    -4.807863    4923.9991       -1e+20 
  484000    2.0305422   -4.7579548    4899.7756            1 
  485000    1.9847871   -4.7751385    4926.3663            1 
  486000    1.9559292   -4.8087652    4916.1794            2 
  487000    2.0220206   -4.8190185     4897.414            1 
  488000    1.9877694   -4.7354707    4950.6945            1 
  489000    1.9637679   -4.8180514    4947.2927       -1e+20 
  490000    2.0453761   -4.7879244    4923.5704            3 
  491000    1.9779715   -4.7667192    4956.3766            1 
  492000    1.9948916   -4.7937984    4939.8747       -1e+20 
  493000    2.0114671   -4.8405137    4945.9889            1 
  494000    1.9967942   -4.7821641    4908.0004            2 
  495000    2.0113063    -4.808464    4925.2391            1 
  496000    2.0253544   -4.8456071    4939.0143       -1e+20 
  497000    1.9741419   -4.7618915    4940.0471            1 
  498000    2.0174798   -4.8057633    4899.3848            1 
  499000    1.9764438   -4.7952563    4895.5274            1 
  500000    2.0188969   -4.7829893    4939.3686            1 
  501000    1.9678124   -4.8111536    4936.5042       -1e+20 
  502000    2.0289269   -4.8199086    4952.4329            1 
  503000    1.9914735    -4.775525    4914.0875            1 
  504000    1.9632045    -4.791331    4934.1735            1 
  505000    2.0035703   -4.8312728    4891.6477            2 
  506000    1.9628276   -4.7837219     4937.173            1 
  507000    2.0201266   -4.8017521    4908.2332            1 
  508000    2.0357289    -4.794665    4937.4575       -1e+20 
  509000    2.0073063   -4.7844416    4919.2052            1 
  510000    1.9763601   -4.7740407    4917.2828            2 
  511000    1.9955443    -4.802395    4911.9784            1 
  512000    2.0145304   -4.8345931    4948.6375            1 
  513000    2.0110127   -4.7856984    4914.6948            1 
  514000    1.9670208   -4.7752277     4944.201       -1e+20 
  515000    2.0208211   -4.8303663    4905.9498            1 
  516000    1.9893888   -4.7853533    4931.2946            1 
  517000    1.9699431   -4.8010048    4917.4325            1 
  518000    1.9800794   -4.8456068    4902.2966            2 
  519000    2.0361861    -4.822433    4930.0831            1 
  520000    1.9896871     -4.81046    4924.8446            1 
  521000    2.0034816   -4.7798305    4958.3489            1 
  522000    2.0136628   -4.8330226    4921.7839            1 
  523000    1.9615329   -4.7985119    4926.8459       -1e+20 
  524000    1.9423402   -4.7394684    4959.5307            1 
  525000    1.9980286   -4.8210268    4909.7768            1 
  526000    1.9937251   -4.7868544    4906.7455       -1e+20 
  527000    2.0204249   -4.7965502     4928.665            1 
  528000    1.9976951   -4.7573603    4926.3044            1 
  529000    2.0102521   -4.7517423    4918.3107            1 
  530000    1.9957708   -4.7824139    4927.1842            1 
  531000    1.9933329   -4.7762503    4916.7368            1 
  532000    1.9961579   -4.7749167    4933.0587       -1e+20 
  533000    2.0022166   -4.8219145    4923.0703            1 
  534000    2.0150233   -4.8335139    4896.7612            1 
  535000     2.013968    -4.830258    4936.1842            1 
  536000    1.9827613   -4.7805926    4904.9178            1 
  537000    1.9972982   -4.7843674    4915.0754            2 
  538000    1.9891521   -4.7858872    4952.1149            1 
  539000    2.0327753   -4.8370733     4923.847            1 
  540000    1.9628071   -4.7923068    4921.5864            1 
  541000    1.9846381   -4.8158363    4933.6101            1 
  542000    1.9614524   -4.8271473    4918.5378       -1e+20 
  543000    1.9669206   -4.8071317    4936.2886            1 
  544000    2.0230101    -4.796094    4910.7001            2 
  545000    2.0199887   -4.7783085    4914.3874            2 
  546000    1.9981763   -4.8159574    4939.3632            1 
  547000    2.0297251   -4.8202573    4918.4875            1 
  548000    1.9635264   -4.8495542    4910.4184            1 
  549000    2.0345647   -4.8328428    4946.1966            1 
  550000    2.0505302   -4.7936079    4937.8515            1 
  551000    1.9728838   -4.7863647    4939.0357            2 
  552000    2.0049778   -4.8191637    4956.1556            1 
  553000     2.010636   -4.8507042    4901.9502            1 
  554000    2.0125594   -4.8254664    4959.2113            1 
  555000    1.9933346   -4.8294128    4906.1639            2 
  556000    1.9950681   -4.8127522    4921.6797            1 
  557000    2.0296868   -4.8083093    4952.9647            1 
  558000    1.9794125   -4.7863711    4899.7088            1 
  559000    2.0025492   -4.8146411    4907.0261            1 
  560000    2.0396869      -4.8261    4939.3745            1 
  561000    1.9900842   -4.8569935    4920.4461       -1e+20 
  562000    1.9472674   -4.7712076    4942.9949            1 
  563000    1.9765297   -4.8012584    4913.0901            3 
  564000    2.0048652   -4.8080567    4885.2408       -1e+20 
  565000    2.0142818   -4.8242764    4923.2591            1 
  566000    1.9925441   -4.7366146    4951.0424            1 
  567000    2.0186805   -4.7681602    4915.3133            1 
  568000    1.9642636   -4.8167751    4925.2437            2 
  569000    2.0074965    -4.821787    4910.6482            1 
  570000    1.9732764   -4.7690781    4912.5522            2 
  571000    1.9779334   -4.7752219    4911.9986            1 
  572000    2.0066226   -4.8082762    4921.4779       -1e+20 
  573000    1.9626428    -4.765409    4932.2334            1 
  574000    2.0386379   -4.8131442    4910.0111            2 
  575000     2.062941   -4.7638587    4957.3011            1 
  576000    1.9659396   -4.8180209    4898.1651            1 
  577000    2.0147137   -4.7922054     4932.482       -1e+20 
  578000    1.9901865   -4.7841388    4904.0872            1 
  579000    2.0495026   -4.8038242     4906.841            2 
  580000    1.9771937   -4.7461481    4937.1844            1 
  581000    2.0118817    -4.733483     4911.316            1 
  582000      1.97589   -4.8502499     4889.917            1 
  583000    1.9863765   -4.8066808    4903.0261            2 
  584000    2.0076936   -4.8094289    4929.8274            2 
  585000    2.0173986   -4.7536687    4932.5067       -1e+20 
  586000     2.006294   -4.7649376    4931.6292            1 
  587000    2.0656485   -4.7690104    4918.6573       -1e+20 
  588000    1.9968887   -4.8069256    4922.2423            1 
  589000    1.9885228   -4.7970287    4898.1624            1 
  590000    2.0134535    -4.853355    4899.5825       -1e+20 
  591000    2.0014092   -4.7894419    4953.4387            1 
  592000    1.9720412   -4.8092347    4939.0586       -1e+20 
  593000    2.0010893   -4.8491383    4863.9856            1 
  594000    1.9951951   -4.8403702    4912.1954            1 
  595000    2.0071234   -4.8411632    4906.9757            3 
  596000    2.0041525    -4.832224    4907.1732            1 
  597000    1.9717957   -4.7703361     4945.112            1 
  598000    1.9826323   -4.8393592     4920.114            1 
  599000    2.0467615   -4.8054191    4925.6833       -1e+20 
  600000    2.0206097   -4.7762792    4950.3013            1 
  601000    1.9991159   -4.8140554    4889.6065            1 
  602000    1.9839614   -4.8460982    4923.6014            1 
  603000     2.011173   -4.7876492    4919.4004            1 
  604000    2.0349585   -4.7869811    4937.0648            3 
  605000    1.9723733    -4.796956    4935.9773            2 
  606000    2.0055275   -4.8040889    4910.7128            1 
  607000    2.0079587   -4.7748033    4920.7259            1 
  608000    2.0533518   -4.7860802    4921.2421            1 
  609000    1.9958295   -4.7560014    4948.3103            1 
  610000     1.983613   -4.8235226    4910.1235            1 
  611000    1.9626849   -4.7550123    4912.4288            1 
  612000     1.992211   -4.8146631    4912.2651            1 
  613000    2.0408905   -4.7870957    4891.5508            1 
  614000     2.011454   -4.8401624    4926.1436            1 
  615000    2.0379767   -4.8232528    4937.2556            1 
  616000    2.0399035   -4.7995215    4949.2695            1 
  617000    2.0130498      -4.8073    4937.4726            1 
  618000    1.9922304   -4.8423479    4926.8906            1 
  619000    1.9923883   -4.8212532    4907.4666            1 
  620000    1.9777515   -4.7840283    4939.1996            1 
  621000    1.9890514    -4.779225    4916.1739            2 
  622000    1.9883791   -4.7984927    4924.9909       -1e+20 
  623000    2.0424501   -4.8080716    4890.9416            1 
  624000    2.0084095   -4.8393435    4900.2026            1 
  625000    1.9850709   -4.7811958    4920.6501            1 
  626000     2.031983   -4.8039649    4876.6892            1 
  627000    2.0375788   -4.8361503    4911.3259            1 
  628000    2.0135754   -4.8583499    4903.6497       -1e+20 
  629000     1.983394   -4.7498612    4906.2833            1 
  630000    1.9830933   -4.7565468    4931.5202            1 
  631000    2.0216553    -4.809053    4922.0639            1 
  632000    1.9779739   -4.7841066    4926.6348            2 
  633000    2.0165758    -4.762524    4939.4305            1 
  634000    1.9303794   -4.8548716    4934.4625            1 
  635000    1.9928866   -4.7816694    4917.9422            1 
  636000    1.9747212   -4.7893047    4942.6902            1 
  637000    2.0102277   -4.8949489    4913.6953            1 
  638000    2.0170709   -4.7580238    4939.7063            1 
  639000    2.0267321   -4.7599747    4916.4959            1 
  640000    2.0230812   -4.7947666    4925.8232            1 
  641000     2.002573   -4.8137154    4940.0675            1 
  642000    1.9913819   -4.7903825    4911.4596            1 
  643000    1.9993839   -4.8502673    4925.1717            1 
  644000    1.9760487   -4.8173733    4906.9489            1 
  645000    1.9673736   -4.7919416     4925.535            1 
  646000    2.0358517   -4.7936252    4908.4504            1 
  647000    1.9715229   -4.7876295    4922.1583       -1e+20 
  648000    2.0354581   -4.8108963    4910.2677            1 
  649000    1.9316553    -4.811585    4904.0427            1 
  650000    2.0496421   -4.7656849    4925.6573            1 
  651000    1.9799329    -4.782943    4922.9634            1 
  652000    2.0389046   -4.8334357    4934.1019       -1e+20 
  653000    2.0491624   -4.7522142    4923.4649            1 
  654000    1.9577866   -4.7946838    4920.6541            2 
  655000    2.0049408   -4.8082427    4928.8872            1 
  656000    1.9684981   -4.7512578    4924.7282            1 
  657000    1.9975256   -4.8202652    4905.1592            2 
  658000    2.0101945   -4.8000312    4943.0003            1 
  659000    1.9492435   -4.8229802    4902.1312            1 
  660000    1.9646744   -4.7862024    4935.6125            1 
  661000    2.0287572   -4.8075775    4934.9569            1 
  662000    2.0117829   -4.7795561     4920.849       -1e+20 
  663000     1.987553   -4.7636155    4944.0835            1 
  664000    2.0012785    -4.825955    4889.4883            1 
  665000    1.9965658   -4.7900474    4919.8937            1 
  666000    1.9959181   -4.7729585    4931.3463       -1e+20 
  667000    2.0247098    -4.797832    4918.8913            1 
  668000    2.0408799   -4.7814798    4928.5139            1 
  669000    1.9635411   -4.7940362    4914.2452            1 
  670000    1.9834959   -4.7851965    4943.5644            1 
  671000     2.001599   -4.8223639    4879.3127            2 
  672000    1.9744402   -4.7893232    4949.5946            1 
  673000    1.9383067   -4.8270559    4909.6853            2 
  674000    2.0284881   -4.8018621    4911.9033            2 
  675000    2.0252938    -4.855948    4901.5057            1 
  676000    1.9780594   -4.7906292    4924.6743            1 
  677000    2.0014147   -4.8398974     4880.796            1 
  678000    1.9980256    -4.870643     4937.233            2 
  679000    1.9959973   -4.7729231    4932.9015            1 
  680000    2.0053254   -4.8241227    4910.4998            1 
  681000    1.9854563   -4.8309553     4916.151            2 
  682000    2.0387641   -4.8267834    4948.8018       -1e+20 
  683000    2.0145439   -4.8402741     4906.811       -1e+20 
  684000    1.9951419   -4.7990248    4911.5921       -1e+20 
  685000    2.0164266   -4.8099388    4930.0863       -1e+20 
  686000    2.0000381   -4.7619748     4917.439            1 
  687000    1.9939696   -4.8118453    4931.7343            1 
  688000    2.0219615    -4.741811     4921.316       -1e+20 
  689000    2.0308976   -4.8300837    4904.9764            1 
  690000    2.0416788   -4.8221573    4883.4237            1 
  691000    2.0001863   -4.8102704    4936.8267            1 
  692000    2.0328146   -4.8032369    4931.6144            1 
  693000    1.9998899   -4.8374651     4908.194            1 
  694000    2.0339752   -4.8079177    4899.4401            1 
  695000    2.0604503   -4.7888459    4929.1381            2 
  696000    2.0308276   -4.7935442    4897.6779       -1e+20 
  697000    1.9619317   -4.7619091    4957.3415            2 
  698000    2.0511705    -4.780334    4938.0519            1 
  699000     1.994831   -4.7672375    4933.7612            1 
  700000    1.9715095   -4.7985855    4903.1959            1 
  701000     1.979739   -4.7533168    4917.7067            1 
  702000    2.0104092   -4.8137621    4911.3083            1 
  703000    2.0234011   -4.8316239     4930.463       -1e+20 
  704000    1.9985068   -4.7753384    4934.6272            1 
  705000    2.0109229   -4.8147646    4920.0787            2 
  706000    1.9841381   -4.8397917    4916.7925            1 
  707000     1.977063   -4.8099853    4892.9988            1 
  708000    2.0203524    -4.804406    4964.4264            1 
  709000    1.9950753   -4.7928781    4942.8006            1 
  710000    2.0084694   -4.7637278    4911.4059            1 
  711000    1.9520404   -4.7661916    4931.2911            1 
  712000    2.0237752   -4.7461268    4935.9165            2 
  713000    1.9651259   -4.7862579    4951.2168            1 
  714000    2.0189704   -4.8029789    4925.5532            1 
  715000    2.0272892   -4.7700618    4924.5763            1 
  716000    1.9917034   -4.7771714    4939.1166       -1e+20 
  717000    2.0256357   -4.8504592    4922.7183            1 
  718000    1.9886113   -4.7942953    4931.4496            1 
  719000    2.0221468   -4.8248205    4907.1623            1 
  720000    1.9695417   -4.8093224    4929.9314            1 
  721000    1.9995341   -4.8125288    4920.7852            2 
  722000    2.0114772   -4.7809605    4925.0512            1 
  723000    1.9848224    -4.786416    4941.1471            2 
  724000    1.9888061   -4.8124056    4912.4215            1 
  725000    2.0168921    -4.773108    4932.1522            1 
  726000    1.9799688   -4.7781438    4890.4536            2 
  727000    1.9803172   -4.8040829    4937.7757            1 
  728000     1.989552   -4.7512544    4948.0744            1 
  729000    2.0389797   -4.8821196    4899.5787            1 
  730000    1.9861944   -4.7698799    4909.0911            1 
  731000    1.9922613   -4.7594417    4944.6427            1 
  732000    1.9804538   -4.7665672    4933.7325            1 
  733000    2.0069954   -4.8002278    4912.8603            1 
  734000    1.9840115   -4.7826346     4919.515            2 
  735000    2.0194635    -4.793023    4911.0398            1 
  736000    1.9716147    -4.859524    4904.8713       -1e+20 
  737000    1.9756591   -4.8172314    4917.0468            1 
  738000    2.0516821   -4.8099402    4926.3979            1 
  739000    1.9751522   -4.7931648    4917.3823            1 
  740000    1.9959792   -4.7370091    4969.0009            1 
  741000    2.0073314   -4.7751854    4930.7629            1 
  742000    1.9994614    -4.803944    4938.6113            1 
  743000    1.9933232    -4.785927    4943.0848            2 
  744000    1.9487305   -4.7776645    4913.1278            1 
  745000    1.9953086    -4.841711    4910.9459            1 
  746000    1.9848535   -4.7918755    4908.3464            1 
  747000    2.0194336    -4.797333    4932.0733       -1e+20 
  748000    2.0081658   -4.7526407    4967.6682            1 
  749000    2.0047517   -4.7413766    4945.9238            1 
  750000    2.0072271   -4.7735288    4926.6675            1 
  751000    2.0342828   -4.8308755    4933.5799            1 
  752000    1.9943401    -4.771158    4931.6806            1 
  753000    1.9943613   -4.7952873    4939.0114            1 
  754000      2.03227   -4.8379165    4924.5799            1 
  755000    1.9566601   -4.8392086    4930.1883            3 
  756000    1.9983853   -4.8231033    4911.6423            1 
  757000      1.95336   -4.8188669    4908.2435            1 
  758000    1.9539983   -4.8211121    4902.6343            1 
  759000    1.9789938   -4.8353061    4899.9243            1 
  760000    2.0059822   -4.8206104    4927.4794            1 
  761000    2.0407353   -4.8493713    4901.2204            1 
  762000    1.9693729   -4.8062852     4942.202            2 
  763000    1.9922074    -4.817092    4957.3359            1 
  764000    1.9879873   -4.8017207    4945.2105            1 
  765000    1.9907482   -4.8207031    4881.0322       -1e+20 
  766000    1.9998363   -4.8726507    4904.9244            1 
  767000    1.9575302   -4.7951287    4931.6682            2 
  768000    2.0314786   -4.8274697    4917.9719            1 
  769000    2.0244232   -4.8098774    4936.3053            1 
  770000    2.0310798   -4.7931807    4919.0164            1 
  771000    2.0247023   -4.7785401    4966.9305            1 
  772000    1.9587649   -4.8079385    4888.8308            1 
  773000    1.9921833   -4.7641838    4930.3363            1 
  774000    1.9895618   -4.8054154    4908.1459            2 
  775000    2.0361514   -4.8031601    4865.4808            2 
  776000    2.0001737   -4.7579344    4959.3672            1 
  777000    2.0461913   -4.8240966    4917.8115            1 
  778000    2.0045806   -4.8323114    4948.7118            1 
  779000    1.9954943   -4.8189974    4905.3287            1 
  780000    2.0450443   -4.8595527    4893.8006            1 
  781000     2.034171   -4.7410772    4943.1385            1 
  782000    1.9490393   -4.7740791    4927.4815            1 
  783000    2.0220867   -4.7886367    4935.2984            1 
  784000    2.0112092   -4.8470598    4919.1295            1 
  785000    1.9975027   -4.7636073    4909.6166            1 
  786000    2.0136659   -4.7673604    4930.4204            1 
  787000    1.9577188   -4.7928134     4925.018            1 
  788000    2.0180396   -4.7857905    4886.6947            2 
  789000    2.0098216   -4.7822695    4909.9963            1 
  790000    1.9873795   -4.7983803     4894.475            2 
  791000    2.0258281   -4.8180533    4916.4079       -1e+20 
  792000    1.9419222   -4.8700532    4889.2781            1 
  793000    2.0492184   -4.8033437    4932.8814            1 
  794000    2.0228611   -4.7690195    4934.0773            1 
  795000    2.0591162   -4.8168536     4892.782            1 
  796000    2.0356577   -4.8571799     4908.804            1 
  797000    2.0267838   -4.7993014    4938.6151            1 
  798000     1.985877   -4.8562842    4883.7682            1 
  799000    1.9731753   -4.8131196    4921.6952       -1e+20 
  800000    2.0142018   -4.8157862    4936.2937            1 
  801000    2.0126087   -4.8222153    4919.0737            1 
  802000    1.9789213   -4.8134248    4925.2648            1 
  803000    1.9745209   -4.7989356    4910.1098            1 
  804000     1.977084   -4.8325806    4912.8468       -1e+20 
  805000    2.0451126   -4.7864109    4971.7687            1 
  806000    2.0110117     -4.78542    4900.3559            1 
  807000    1.9586506   -4.7838354    4942.4978            1 
  808000    2.0279386   -4.7700716    4952.9216            1 
  809000    2.0102662   -4.8168455    4926.5162       -1e+20 
  810000    2.0092069   -4.7773293    4939.6056            1 
  811000    1.9985665   -4.8926188     4865.836       -1e+20 
  812000    1.9940889   -4.8044579    4908.7803            1 
  813000    1.9760979   -4.8414313    4904.3756            1 
  814000    1.9680731   -4.7588289    4914.8466       -1e+20 
  815000    1.9966678   -4.7719358    4954.4624            1 
  816000     2.011496   -4.7908917    4889.9347            1 
  817000     2.025434   -4.7966972    4918.9072            1 
  818000    1.9741499   -4.7921102    4941.0534            1 
  819000    1.9670066   -4.8072348     4920.858            1 
  820000    2.0111463    -4.810604    4926.0827            1 
  821000    1.9967677   -4.7593461    4930.4849            1 
  822000    2.0354113    -4.869198    4922.1396            2 
  823000    2.0170861    -4.785322    4932.8637            1 
  824000    1.9911041   -4.7821597    4913.8338            1 
  825000    2.0008922    -4.826333    4948.4365            1 
  826000     2.003651   -4.7879016    4938.8519            1 
  827000    1.9950818   -4.8565675    4890.7608            1 
  828000    2.0230398   -4.8261685    4906.2767            1 
  829000    1.9733682   -4.7418019    4980.2788            1 
  830000    2.0073837   -4.7155215    4933.2755            1 
  831000    1.9670787   -4.7857066    4947.6095            1 
  832000    2.0391446   -4.7957148    4915.5635       -1e+20 
  833000     1.949753   -4.7904595    4940.1475            2 
  834000     2.006949    -4.782714    4937.1787            2 
  835000    2.0106022    -4.840675    4887.7561            1 
  836000    1.9684763   -4.7358858    4940.9112            1 
  837000    2.0183731   -4.7594749    4917.0488            2 
  838000     1.987415   -4.7954185    4914.1553       -1e+20 
  839000    1.9977566   -4.7458062    4891.5599            1 
  840000    1.9934407   -4.8409798    4909.3742            1 
  841000    1.9871185   -4.7955958    4962.5598            1 
  842000    1.9818149   -4.8507377    4895.9716            2 
  843000    1.9876442    -4.824746    4894.3144       -1e+20 
  844000    1.9822089     -4.80217    4902.3599            1 
  845000    1.9920234   -4.7973543    4926.8824            1 
  846000    2.0295767   -4.8342723    4913.5237            3 
  847000    1.9889648    -4.836269    4887.1531            1 
  848000    2.0237492   -4.8224734    4899.4276            1 
  849000    1.9852405   -4.7585355    4902.2717            1 
  850000     2.026982   -4.8245391    4916.3358       -1e+20 
  851000    1.9932068   -4.8374112    4891.8487            2 
  852000    2.0098035   -4.8629874    4916.0371            1 
  853000    1.9822631   -4.7887976    4917.0115            1 
  854000     2.015211   -4.7937768    4903.9463            1 
  855000    1.9752541   -4.8321651    4921.8957            1 
  856000    1.9768843   -4.7588895    4911.5831            1 
  857000    1.9915068   -4.8708355    4882.2141       -1e+20 
  858000    1.9423774   -4.7996465     4945.433            1 
  859000    1.9809906   -4.8056367    4881.4011            2 
  860000    2.0184943   -4.7775294    4911.8906            4 
  861000    2.0208014   -4.7677919    4917.0754            1 
  862000     2.039795   -4.8152477    4894.2822       -1e+20 
  863000    1.9920777   -4.7994671    4922.9344            1 
  864000    1.9741446   -4.7847533    4909.5496       -1e+20 
  865000    1.9835098   -4.8156815    4946.2192            1 
  866000    1.9799741   -4.8363423    4907.6876            1 
  867000    2.0370013   -4.8113018    4926.6562       -1e+20 
  868000    2.0101909    -4.795452    4919.7963            1 
  869000    2.0227058   -4.7542171      4913.38       -1e+20 
  870000    2.0221567   -4.7861942     4910.762            1 
  871000    2.0059442   -4.8139534    4933.2098            1 
  872000    1.9849915   -4.8236849    4909.5888       -1e+20 
  873000    2.0378263   -4.8313495    4921.4699            1 
  874000    2.0102446   -4.7889854     4949.178            1 
  875000    2.0035473   -4.7586718    4913.1388            1 
  876000    2.0116222   -4.7914898    4946.1077       -1e+20 
  877000    1.9807957   -4.8139883    4931.8653            2 
  878000    1.9904724    -4.793408    4913.8359            1 
  879000    2.0164023   -4.7837335    4899.7179            2 
  880000    1.9442235   -4.8099647    4912.7259            1 
  881000    1.9990054   -4.7954315    4939.3193            1 
  882000    2.0369927    -4.786896    4942.0896            1 
  883000    2.0006773   -4.8223964    4928.8269            2 
  884000    2.0241883   -4.8076033    4903.4352            1 
  885000    1.9616055    -4.810946    4936.4925            1 
  886000    2.0324056   -4.7805567    4937.5105            1 
  887000    2.0218619   -4.7808248    4921.8926       -1e+20 
  888000    2.0498907   -4.7724133    4939.3682            2 
  889000    2.0254076    -4.750985     4920.887       -1e+20 
  890000     1.979967   -4.7658513    4950.9203            2 
  891000     2.005995   -4.8309233    4901.2023       -1e+20 
  892000    2.0269952   -4.8500644    4938.4657            2 
  893000    1.9956634   -4.8521975    4901.1296            1 
  894000    1.9888007   -4.8082215    4908.5048            1 
  895000     1.997413   -4.7836301    4936.9537            1 
  896000    1.9917192    -4.756966    4926.9497            1 
  897000    1.9753614   -4.8313859    4927.4332            1 
  898000    2.0463008   -4.7852416    4956.3784            1 
  899000    1.9903428    -4.811189    4931.2921            2 
  900000    2.0049727   -4.8229655    4914.1517            3 
  901000     2.041204   -4.8071292    4899.7261            1 
  902000    2.0150615   -4.8204349    4919.5292            1 
  903000    2.0299198   -4.7776727    4949.9894            1 
  904000    2.0181149   -4.7973195    4904.5917            1 
  905000    1.9800681   -4.7804897    4903.6347            1 
  906000    1.9710067   -4.8125068    4934.9819            2 
  907000    1.9589757   -4.8115906    4909.0438            1 
  908000    1.9771187   -4.8223331    4900.9778            1 
  909000    1.9926695   -4.8109822    4911.3406            2 
  910000      2.06271   -4.7884794    4916.0007       -1e+20 
  911000    1.9818675   -4.7697258    4951.8736            1 
  912000     2.033479   -4.8257867    4901.3858            2 
  913000      1.99569    -4.833479    4939.6767            1 
  914000    1.9987439   -4.7571165    4939.9928       -1e+20 
  915000    1.9962936   -4.7873201    4955.6044            3 
  916000    1.9473667   -4.8045321    4906.3134            1 
  917000    1.9851444   -4.8277046    4889.9239            1 
  918000     1.963162   -4.8084172    4942.8986            1 
  919000    1.9821018   -4.7741132    4942.6331            1 
  920000    1.9624144   -4.8101484    4930.8999            1 
  921000    1.9976145   -4.7562012    4934.3382            1 
  922000    2.0174806   -4.7653078      4923.62            1 
  923000    2.0076538   -4.7816406    4930.2139            4 
  924000    2.0035459   -4.7704973    4933.1426            2 
  925000    1.9858098   -4.7976236    4911.7135            1 
  926000    1.9679176   -4.7717837    4931.2282       -1e+20 
  927000    2.0017086   -4.7709625    4912.0822            1 
  928000    2.0018441   -4.7962368    4908.1537            1 
  929000    2.0218215   -4.8170115     4952.266            1 
  930000    2.0364507     -4.76413    4915.0209            1 
  931000    2.0022527   -4.8369065    4874.8313            1 
  932000     2.041432   -4.8143803    4900.6057       -1e+20 
  933000        1.976   -4.8446042    4931.5259            1 
  934000    1.9966612   -4.8062031    4924.1788            1 
  935000    2.0285515   -4.7933337    4917.5694            1 
  936000    2.0374118   -4.7391336    4941.7117       -1e+20 
  937000    2.0278211   -4.8859934    4891.0432       -1e+20 
  938000    2.0218731   -4.7522041    4925.5701            1 
  939000    2.0032625   -4.8046029    4910.4378            1 
  940000    1.9532277   -4.8273749    4894.9995            1 
  941000    2.0092663   -4.7957857    4951.6637            1 
  942000    1.9892217   -4.8211737    4905.3654            1 
  943000    2.0050561   -4.7463945      4947.65            1 
  944000    1.9913813   -4.7457374    4953.3205            2 
  945000    1.9852232   -4.7763178    4909.7352            1 
  946000    1.9800218   -4.8226714    4901.1324       -1e+20 
  947000    1.9426923   -4.7996269     4937.367            1 
  948000    2.0072935   -4.7487434    4941.5797            1 
  949000    1.9718419    -4.830608    4900.4439            2 
  950000    2.0194753   -4.8060819    4910.0952            1 
  951000    2.0316439    -4.806807    4921.6253            1 
  952000    2.0891397   -4.7897251    4936.2897            1 
  953000    2.0437627   -4.8117572    4898.6717            1 
  954000    1.9910026   -4.7761901    4915.1423            1 
  955000    1.9871723    -4.811607    4933.8437            1 
  956000    2.0067698   -4.8237971    4918.0508            1 
  957000    1.9832788   -4.8257807    4922.6056            1 
  958000    1.9593831   -4.8019546    4911.6683            1 
  959000    1.9948635   -4.7654609    4935.6641            1 
  960000    2.0293552   -4.8133465    4907.6112       -1e+20 
  961000    2.0439536   -4.7768304    4892.9883            1 
  962000    2.0156832   -4.7977804    4926.6824            1 
  963000    2.0252651   -4.7578498    4929.5256            1 
  964000    2.0180502   -4.8214651    4883.1573            1 
  965000    1.9951355   -4.7792226    4910.4869            1 
  966000    1.9813403   -4.8097257    4926.6812       -1e+20 
  967000    1.9733666   -4.8347186    4905.1826            2 
  968000    2.0024934   -4.8599209    4884.8225            1 
  969000    1.9927938   -4.8237687    4920.7508            1 
  970000    2.0249975   -4.7535735     4938.353            1 
  971000    2.0075927   -4.7867438    4951.4869            1 
  972000    2.0087113   -4.7871124    4924.5048       -1e+20 
  973000      2.01531   -4.7647417    4936.5782            1 
  974000    1.9616967   -4.7861102    4919.8983       -1e+20 
  975000    1.9743082   -4.7893384    4875.0406            1 
  976000    1.9884208   -4.8179767    4926.8538            1 
  977000    2.0588974   -4.7931725    4858.5491            1 
  978000    1.9943854   -4.7946384    4951.8084            1 
  979000    2.0171748   -4.7708634    4897.7502            1 
  980000    2.0107224   -4.8096641    4945.2096            1 
  981000    2.0060957   -4.8076065    4912.5268       -1e+20 
  982000    1.9710758    -4.811479    4921.8654            1 
  983000    2.0634042   -4.7740532    4947.0608       -1e+20 
  984000    2.0195054   -4.8031727     4947.435       -1e+20 
  985000    2.0420382   -4.7703662    4913.3373       -1e+20 
  986000    2.0244811    -4.789529    4934.4262            1 
  987000    2.0385149   -4.7816576    4910.3892            2 
  988000    1.9984091   -4.7784906    4899.5782            1 
  989000    1.9753968   -4.8227146    4923.0917            1 
  990000    1.9922221   -4.7952868    4942.0052       -1e+20 
  991000    1.9948823   -4.8041626    4908.5068            1 
  992000    1.9728152   -4.7824101    4927.1195            2 
  993000    2.0146663   -4.8028624    4950.7414            1 
  994000    1.9787677   -4.8238347     4916.724            1 
  995000    2.0162067   -4.7516844    4923.4336            1 
  996000    1.9637302   -4.8065848    4929.7322       -1e+20 
  997000    2.0020559   -4.8383573    4907.4782            1 
  998000    1.9948048   -4.7867852    4922.4238            1 
  999000    2.0027626   -4.7917709    4932.2383            1 
 1000000    2.0228472   -4.8302842    4898.4604            1 
 1001000    1.9901625   -4.8381163    4903.2766            1 
 1002000     2.025099   -4.7662549    4955.9976            1 
 1003000    2.0296472   -4.8138978    4911.6684            1 
 1004000    2.0267887   -4.8298105    4927.4788            1 
Loop time of 1971.66 on 48 procs for 1000000 steps with 4000 atoms

Performance: 87642.019 tau/day, 507.188 timesteps/s
99.4% CPU use with 48 MPI tasks x no OpenMP threads

MPI task timing breakdown:
Section |  min time  |  avg time  |  max time  |%varavg| %total
---------------------------------------------------------------
Pair    | 105.92     | 107.96     | 111.85     |  13.8 |  5.48
Neigh   | 20.467     | 20.669     | 20.907     |   2.2 |  1.05
Comm    | 109.66     | 115.21     | 118.68     |  21.0 |  5.84
Output  | 1.1666     | 1.1674     | 1.1822     |   0.2 |  0.06
Modify  | 1709.7     | 1714.9     | 1719.3     |   6.3 | 86.98
Other   |            | 11.72      |            |       |  0.59

Nlocal:        83.3333 ave          91 max          75 min
Histogram: 2 4 2 8 4 11 5 3 7 2
Nghost:        1429.81 ave        1457 max        1410 min
Histogram: 1 8 3 8 10 12 4 1 0 1
Neighs:        7718.71 ave        8458 max        6869 min
Histogram: 3 2 6 3 10 5 7 5 2 5
FullNghs:      15437.1 ave       16820 max       13821 min
Histogram: 3 3 2 4 9 9 3 6 5 4

Total # of neighbors = 740983
Ave neighs/atom = 185.24575
Neighbor list builds = 83457
Dangerous builds = 2986

#clear
#
#next RN
#
#jump SELF
Total wall time: 0:32:52
