
units lj                  # Use reduced LJ style units
atom_style atomic         # Uncharged point particles
atom_modify map hash      # Needed for indexing of clusters etc
                          # Used to be able to find where atoms are in relation to each other.

# Define a lattice with which to populate the simulation cell. With units
# set to 'lj' the second argument to the lattice command is the reduced
# density rho* and the spacings are multiples of that required to acheive
# that density. Also define a simulation cell called 'box' in lattice units
# and fill it with atoms. Here we're creating a box which is ten lattice
# constants in each direction.
lattice fcc 1.0 spacing 1 1 1                 # All equal sizes - gives the right reduced density.
Lattice spacing in x,y,z = 1.5874011 1.5874011 1.5874011

region box block 0 10 0 10 0 10 units lattice # Defines a region, "box", in lattice units
create_box 1 box                              # Creates a simulation box as specified above,
Created orthogonal box = (0.0000000 0.0000000 0.0000000) to (15.874011 15.874011 15.874011)
  3 by 4 by 4 MPI processor grid
                                              # with one type of atom
create_atoms 1 box                            # Creates particles on lattice points
Created 4000 atoms
  using lattice units in orthogonal box = (0.0000000 0.0000000 0.0000000) to (15.874011 15.874011 15.874011)
  create_atoms CPU = 0.002 seconds


# Set the mass of the first (and only) atom type.
mass 1 1.0

# Lennard-Jones interactions between particles, 3.5 sigma cut-off. Apply
# long range tail corrections to energy and pressure and set all coefficients
# to unity since we work in reduced units here. Note that this doesn't shift
# the potential such that it goes to zero at the cutoff. That would require
# pair_modify('shift', 'yes').
pair_style lj/cut  3.5      # non-GPU version
pair_modify tail  yes
pair_coeff 1  1  1.0  1.0   # Intearaction between 1 and 1 set with epsilon = 1 and sigma = 1

write_data data.*
System init for write_data ...
Neighbor list info ...
  update every 1 steps, delay 10 steps, check yes
  max neighbors/atom: 2000, page size: 100000
  master list distance cutoff = 3.8
  ghost atom cutoff = 3.8
  binsize = 1.9, bins = 9 9 9
  1 neighbor lists, perpetual/occasional/extra = 1 0 0
  (1) pair lj/cut, perpetual
      attributes: half, newton on
      pair build: half/bin/atomonly/newton
      stencil: half/bin/3d
      bin: standard

#############################
#   M E L T   S Y S T E M   #
#############################

velocity all create 2.4 6583654 mom yes dist gaussian # Assign velocities
                                                    # Temperature 2.4, random number seed, zero linear momentum
						                                                        # Gaussian distribution

timestep 0.002   # simulation timestep
thermo 1000       # output thermodynamic data every 1000 steps

# Define a fix  in this case with index 1 applied to all
# particles in the simulation. This fix is for simulations
# in the anisotropic NPT ensemble. Note that we use the MTK
# correction.
fix 1 all npt temp 2.4 2.4 0.1 iso 5.68 5.68 0.5 mtk yes tchain 5 pchain 5 # Use NPT ensemble
                                                                         # Set temperature and pressure and damping
                                                                         # Numbers of thermostats in chain and in barostat
run 1000         # run for 10000 steps
Per MPI rank memory allocation (min/avg/max) = 3.642 | 3.644 | 3.648 Mbytes
Step Temp E_pair E_mol TotEng Press Volume 
       0          2.4   -8.3859253            0   -4.7868253   -2.2405722         4000 
    1000    2.3598253   -4.4579732            0  -0.91912021    5.7048558     5164.517 
Loop time of 0.237177 on 48 procs for 1000 steps with 4000 atoms

Performance: 728569.994 tau/day, 4216.262 timesteps/s
99.2% CPU use with 48 MPI tasks x no OpenMP threads

MPI task timing breakdown:
Section |  min time  |  avg time  |  max time  |%varavg| %total
---------------------------------------------------------------
Pair    | 0.091169   | 0.10136    | 0.11742    |   1.6 | 42.74
Neigh   | 0.017695   | 0.018804   | 0.021978   |   0.6 |  7.93
Comm    | 0.064044   | 0.078963   | 0.090021   |   2.1 | 33.29
Output  | 2.432e-05  | 2.527e-05  | 3.2959e-05 |   0.0 |  0.01
Modify  | 0.031301   | 0.036439   | 0.041046   |   1.6 | 15.36
Other   |            | 0.001582   |            |       |  0.67

Nlocal:        83.3333 ave          92 max          74 min
Histogram: 1 2 5 4 5 15 8 4 3 1
Nghost:        1388.73 ave        1407 max        1372 min
Histogram: 6 1 7 7 5 2 9 6 1 4
Neighs:        7379.69 ave        8441 max        6080 min
Histogram: 1 0 2 9 5 12 9 7 1 2

Total # of neighbors = 354225
Ave neighs/atom = 88.556250
Neighbor list builds = 86
Dangerous builds = 12

# Equilibrate just above the melting temperature to avoid step fn in T

fix 1 all npt temp 1.25 1.25 0.1 iso 5.68 5.68 0.5 mtk yes tchain 5 pchain 5
run 1000
Per MPI rank memory allocation (min/avg/max) = 3.642 | 3.644 | 3.648 Mbytes
Step Temp E_pair E_mol TotEng Press Volume 
    1000    2.3598253   -4.4579732            0  -0.91912021    5.7048558     5164.517 
    2000    1.2696682   -5.8381473            0   -3.9341211    5.6425989    4351.2694 
Loop time of 0.212959 on 48 procs for 1000 steps with 4000 atoms

Performance: 811424.717 tau/day, 4695.745 timesteps/s
99.6% CPU use with 48 MPI tasks x no OpenMP threads

MPI task timing breakdown:
Section |  min time  |  avg time  |  max time  |%varavg| %total
---------------------------------------------------------------
Pair    | 0.09161    | 0.099844   | 0.10809    |   1.1 | 46.88
Neigh   | 0.015681   | 0.016317   | 0.018425   |   0.3 |  7.66
Comm    | 0.064387   | 0.07318    | 0.080127   |   1.4 | 34.36
Output  | 2.328e-05  | 2.3882e-05 | 3.0413e-05 |   0.0 |  0.01
Modify  | 0.01904    | 0.021669   | 0.024853   |   1.0 | 10.18
Other   |            | 0.001924   |            |       |  0.90

Nlocal:        83.3333 ave          93 max          75 min
Histogram: 1 2 6 12 7 8 8 2 1 1
Nghost:        1550.04 ave        1575 max        1524 min
Histogram: 1 1 5 6 9 12 7 5 1 1
Neighs:        8747.10 ave       10033 max        7783 min
Histogram: 1 1 12 9 9 7 4 4 0 1

Total # of neighbors = 419861
Ave neighs/atom = 104.96525
Neighbor list builds = 75
Dangerous builds = 7


# Small amount of linear quench

fix 1 all npt temp 1.25 ${temp} 0.1 iso 5.68 5.68 0.5 mtk yes tchain 5 pchain 5
fix 1 all npt temp 1.25 0.04 0.1 iso 5.68 5.68 0.5 mtk yes tchain 5 pchain 5
run 2000
Per MPI rank memory allocation (min/avg/max) = 3.643 | 3.645 | 3.648 Mbytes
Step Temp E_pair E_mol TotEng Press Volume 
    2000    1.2696682   -5.8381473            0   -3.9341211    5.6425989    4351.2694 
    3000   0.78288951   -6.5895592            0   -5.4155185    5.6678134    4024.8463 
    4000     0.176088   -7.4064252            0   -7.1423593     5.674027    3733.5283 
Loop time of 0.451441 on 48 procs for 2000 steps with 4000 atoms

Performance: 765548.489 tau/day, 4430.257 timesteps/s
99.6% CPU use with 48 MPI tasks x no OpenMP threads

MPI task timing breakdown:
Section |  min time  |  avg time  |  max time  |%varavg| %total
---------------------------------------------------------------
Pair    | 0.20513    | 0.22529    | 0.24004    |   1.5 | 49.90
Neigh   | 0.02243    | 0.023442   | 0.024951   |   0.3 |  5.19
Comm    | 0.13802    | 0.15277    | 0.17233    |   1.8 | 33.84
Output  | 4.8312e-05 | 4.9262e-05 | 6.1968e-05 |   0.0 |  0.01
Modify  | 0.039349   | 0.044377   | 0.049913   |   1.3 |  9.83
Other   |            | 0.005513   |            |       |  1.22

Nlocal:        83.3333 ave          90 max          77 min
Histogram: 3 2 3 12 4 5 11 5 1 2
Nghost:        1716.15 ave        1734 max        1700 min
Histogram: 2 1 6 9 10 10 1 5 2 2
Neighs:        10305.8 ave       11181 max        9576 min
Histogram: 3 4 5 10 5 8 8 2 1 2

Total # of neighbors = 494679
Ave neighs/atom = 123.66975
Neighbor list builds = 102
Dangerous builds = 0

#############################
# F R E E Z E  S Y S T E M  #
#############################

# Define solid atoms. This closely follows ten Wolde  Ruiz-Montero and Frenkel  Faraday Discuss  1996  104  93-110
# Compute components of the per-atom q6 vector
compute q6 all orientorder/atom degrees 1 6 components 6 nnn NULL cutoff 1.3 # compute the Q6 parameter.
                                                                             # Use all neighbours within 1.3 unit cell.

# get number of connections
compute coord_number all coord/atom orientorder q6 0.5

# An atom is solid if it has 8 or more connections (of a possible 14)
variable is_solid atom c_coord_number>=8
group solid dynamic all var is_solid    # Must be dynamic to update
dynamic group solid defined

# do clustering
compute cluster solid cluster/atom 1.3 # Create a cluster where all atoms within are solid and max 1.3 units from another member

# define chunks one chunk per cluster
compute clus_chunks solid chunk/atom c_cluster nchunk every compress yes  # Says which atoms are in which chunk

# count the size of each chunk
compute size_chunks solid property/chunk clus_chunks count


# Find the maximum entry in the vector of chunk sizes
variable max_n equal max(c_size_chunks)


# Thermo style which includes this variable
thermo_style custom step temp pe vol v_max_n

thermo ${N}  # Print the thermo information every 100 steps
thermo 1000  

# Reset the npt fix at a lower temperature (below freezing)
fix 1  all npt temp  ${temp} ${temp}  0.1  iso  5.68  5.68  0.5  mtk yes tchain  5  pchain  5
fix 1  all npt temp  0.04 ${temp}  0.1  iso  5.68  5.68  0.5  mtk yes tchain  5  pchain  5
fix 1  all npt temp  0.04 0.04  0.1  iso  5.68  5.68  0.5  mtk yes tchain  5  pchain  5

dump dmp2 all dcd ${N} traj_${rand}.dcd
dump dmp2 all dcd 1000 traj_${rand}.dcd
dump dmp2 all dcd 1000 traj_462431.dcd


# fix rnuntil all halt ${N} v_max_n >= 3980 error soft message no   # Stop when solidified


run 1000000 # 5000000  # Run for this many steps
Neighbor list info ...
  update every 1 steps, delay 10 steps, check yes
  max neighbors/atom: 2000, page size: 100000
  master list distance cutoff = 3.8
  ghost atom cutoff = 3.8
  binsize = 1.9, bins = 9 9 9
  4 neighbor lists, perpetual/occasional/extra = 1 3 0
  (1) pair lj/cut, perpetual
      attributes: half, newton on
      pair build: half/bin/atomonly/newton
      stencil: half/bin/3d
      bin: standard
  (2) compute orientorder/atom, occasional
      attributes: full, newton on
      pair build: full/bin/atomonly
      stencil: full/bin/3d
      bin: standard
  (3) compute coord/atom, occasional
      attributes: full, newton on
      pair build: full/bin/atomonly
      stencil: full/bin/3d
      bin: standard
  (4) compute cluster/atom, occasional
      attributes: full, newton on
      pair build: full/bin/atomonly
      stencil: full/bin/3d
      bin: standard
Per MPI rank memory allocation (min/avg/max) = 9.394 | 9.397 | 9.401 Mbytes
Step Temp PotEng Volume v_max_n 
    4000     0.176088   -7.4064252    3733.5283           52 
    5000  0.041288878   -7.6287996    3664.4634           92 
    6000  0.040212481   -7.6603339    3660.0989          328 
    7000  0.040325315   -7.6688349    3652.3533          152 
    8000  0.039974638   -7.6768565    3650.5409          345 
    9000  0.040076955    -7.681611    3651.6657          231 
   10000  0.040199001   -7.6824384    3649.0717          350 
   11000  0.039103135   -7.6834159    3647.0724          161 
   12000  0.040486855   -7.6887562    3648.9577          206 
   13000  0.040629253   -7.6907021    3648.9743          150 
   14000  0.040378405   -7.6864914    3645.4315          137 
   15000  0.039991227   -7.6915219     3646.383          329 
   16000  0.040369241   -7.6957255     3647.483          167 
   17000  0.040352658   -7.6971719    3647.6102          439 
   18000  0.039916207   -7.6958693    3643.4219          416 
   19000  0.039662019   -7.6995775     3644.795          517 
   20000  0.040160746   -7.7024911    3646.0146          557 
   21000  0.040589851   -7.7013878    3644.7246          534 
   22000  0.039897643   -7.6995644    3642.5835          564 
   23000  0.040181469    -7.701634     3644.247          562 
   24000  0.038785939   -7.7061037    3645.3156          549 
   25000    0.0396858   -7.7048259    3643.4087          647 
   26000  0.039619082   -7.7025694    3641.5751          657 
   27000  0.039826287   -7.7069209    3642.9649          703 
   28000   0.04060003   -7.7114215     3644.523          677 
   29000  0.040058695   -7.7089856    3642.1681          671 
   30000  0.040326558   -7.7063404    3640.4892          652 
   31000  0.040451379   -7.7091724    3642.1928          666 
   32000  0.039692743   -7.7131063    3644.1096          651 
   33000  0.040335443   -7.7095646    3641.8346          695 
   34000  0.040374636   -7.7079767    3640.7829          667 
   35000  0.040056373   -7.7101819    3642.5367          669 
   36000  0.040173269   -7.7106896    3643.4807          687 
   37000  0.039737287   -7.7089843    3642.4315          676 
   38000   0.04029269   -7.7055731    3638.8811          645 
   39000   0.03984125   -7.7096127     3642.054          684 
   40000  0.039740802   -7.7117118    3642.9931          662 
   41000  0.039014018   -7.7110178    3642.1231          634 
   42000  0.039687524   -7.7068427    3639.9285          684 
   43000  0.040002161   -7.7101991    3642.0436          657 
   44000  0.040270249   -7.7129404    3644.1288          661 
   45000  0.040533775   -7.7113557     3642.194          675 
   46000  0.039715855   -7.7094961    3639.9528          686 
   47000  0.040650481   -7.7114712     3641.738          695 
   48000  0.040201794   -7.7120382    3643.3828          659 
   49000  0.039491137   -7.7104423    3642.2634          692 
   50000  0.039877874   -7.7104258    3641.8633          668 
   51000  0.039675081   -7.7086523     3641.147          655 
   52000  0.040160252   -7.7108517    3643.0016          702 
   53000  0.039787312   -7.7115958    3643.1118          680 
   54000  0.040141242   -7.7113822    3641.4003          658 
   55000  0.040490895   -7.7092569    3641.0799          672 
   56000  0.041082618   -7.7111891    3642.3966          665 
   57000   0.04080737   -7.7115811    3642.7438          648 
   58000  0.039620934   -7.7086768    3641.7576          673 
   59000  0.039522096   -7.7099058    3641.0035          680 
   60000  0.040303382   -7.7117401    3642.6702          649 
   61000   0.03991231   -7.7150997    3644.8282          640 
   62000  0.039650242   -7.7101006    3641.0535          667 
   63000  0.040445463   -7.7089808    3641.1461          666 
   64000  0.040232878    -7.711841    3642.5994          650 
   65000  0.040428729   -7.7157971    3645.1185          688 
   66000  0.039097055   -7.7093929    3641.2463          656 
   67000   0.03998683    -7.710382    3640.6167          673 
   68000  0.040618058   -7.7113681    3642.5722          651 
   69000  0.039775376    -7.716924    3645.4613          668 
   70000  0.040720222   -7.7100817    3641.6302          656 
   71000  0.039851688   -7.7106436    3640.7901          674 
   72000  0.040308451   -7.7111915     3642.234          682 
   73000  0.039612128    -7.711576    3642.1879          655 
   74000  0.039426368   -7.7112208    3641.6284          660 
   75000  0.039948176   -7.7098768    3641.1754          678 
   76000  0.040339412   -7.7123009    3641.8585          679 
   77000  0.040610252    -7.714925    3644.1884          674 
   78000  0.039076296   -7.7100695    3642.1347          671 
   79000  0.040959272   -7.7086659    3640.1743          655 
   80000  0.039568565   -7.7102483    3641.9851          638 
   81000  0.040033829      -7.7122    3643.8203          655 
   82000  0.040140377   -7.7117458    3642.6799          639 
   83000  0.039400524   -7.7099649     3640.822          702 
   84000   0.03957659   -7.7104922    3641.3681          674 
   85000  0.039546594   -7.7153195    3644.1683          662 
   86000  0.040030729    -7.713407    3642.4428          676 
   87000  0.040156235   -7.7105071     3640.868          703 
   88000  0.039766513   -7.7107157    3640.6656          683 
   89000   0.03927085   -7.7153261    3644.2977          687 
   90000   0.03880624   -7.7146362    3642.2342          660 
   91000  0.039866413   -7.7107911     3640.673          654 
   92000  0.039606919    -7.707387    3639.6877          648 
   93000  0.040220691   -7.7125968    3642.8891          701 
   94000  0.039932284   -7.7124791    3642.2288          688 
   95000   0.04018804   -7.7094567    3640.5171          647 
   96000  0.040602454   -7.7110312    3641.6392          631 
   97000  0.040131735   -7.7130077    3642.4392          670 
   98000  0.038552495   -7.7129743    3642.2056          672 
   99000  0.039409898    -7.710656    3641.2585          674 
  100000  0.040081645   -7.7100274    3641.2202          651 
  101000  0.040501721   -7.7124095    3642.7226          696 
  102000  0.039698151   -7.7135694     3643.426          681 
  103000  0.039593505   -7.7114768    3641.3667          681 
  104000  0.040322956   -7.7090676    3640.9548          681 
  105000  0.040248625    -7.713063    3642.4414          678 
  106000  0.040160346   -7.7143347     3643.731          641 
  107000  0.041261974   -7.7117969    3641.6395          680 
  108000  0.040383265   -7.7097831    3640.0404          655 
  109000  0.039686354   -7.7117408    3641.9178          657 
  110000  0.039920409   -7.7127333    3642.7652          662 
  111000  0.040076038   -7.7108549    3641.9781          651 
  112000  0.039630731   -7.7086267    3639.4107          676 
  113000  0.039877407   -7.7126348    3641.4332          646 
  114000  0.039867085   -7.7125452    3643.8484          705 
  115000  0.040236562   -7.7111042    3641.8938          688 
  116000  0.040393799   -7.7076521    3639.3612          650 
  117000  0.039507281   -7.7114582    3641.6796          676 
  118000    0.0394467   -7.7145496    3643.5484          650 
  119000  0.040979833   -7.7120357    3642.1376          672 
  120000  0.040027165   -7.7095758    3639.8927          656 
  121000  0.040335094   -7.7109436    3640.8351          674 
  122000  0.040175426   -7.7122116    3642.7907          676 
  123000  0.039699579   -7.7127325    3643.5365          680 
  124000  0.038983256   -7.7095058     3639.754          699 
  125000   0.04082311   -7.7103337    3641.3996          673 
  126000    0.0396943   -7.7131218    3643.2696          670 
  127000  0.039382841   -7.7114605     3642.223          657 
  128000  0.040796097   -7.7096878    3640.7639          670 
  129000  0.040163304   -7.7106095    3641.0838          676 
  130000  0.040300191   -7.7120461    3642.3385          660 
  131000  0.040253391   -7.7137992    3642.9124          666 
  132000   0.04001941   -7.7122762    3640.2664          670 
  133000  0.039346883   -7.7115236    3641.4137          651 
  134000   0.03984069   -7.7128935    3641.6905          654 
  135000  0.040213743   -7.7151898    3643.5439          695 
  136000   0.04009477   -7.7132922    3641.2094          692 
  137000  0.040406452   -7.7098913    3640.0741          681 
  138000  0.039299009   -7.7134025    3641.5671          690 
  139000  0.039838003   -7.7158157    3643.1286          655 
  140000  0.039838094   -7.7132158    3641.3391          663 
  141000   0.04014702     -7.71088    3640.5691          676 
  142000  0.040316611   -7.7124396    3641.6773          681 
  143000  0.039900061   -7.7146502    3642.8616          697 
  144000  0.040577463   -7.7132775    3641.4996          660 
  145000  0.039063155   -7.7086761    3639.3851          667 
  146000  0.039490298   -7.7118871    3641.7233          656 
  147000  0.040368567    -7.715135    3642.9289          676 
  148000  0.041233888   -7.7148481    3641.3764          695 
  149000  0.040292568   -7.7095909    3639.3157          677 
  150000  0.040008566   -7.7144264    3640.9946          680 
  151000  0.040167402   -7.7145626    3642.2028          671 
  152000  0.039099166   -7.7143771    3642.0313          713 
  153000  0.039871732   -7.7110322     3639.747          667 
  154000  0.040197892   -7.7126214    3640.5756          655 
  155000  0.039478956   -7.7150679    3642.3941          672 
  156000  0.040690829   -7.7165331       3643.4          714 
  157000  0.040483227   -7.7116457    3640.0721          673 
  158000  0.039219943    -7.711817    3640.3722          679 
  159000  0.039934586   -7.7134979     3642.576          726 
  160000  0.040575266   -7.7158304    3643.9688          722 
  161000  0.040738938   -7.7112213     3640.174          747 
  162000  0.040369785   -7.7135463    3639.9226          762 
  163000  0.039814514   -7.7145261    3641.4903          754 
  164000  0.039966873   -7.7173873    3642.7453          750 
  165000  0.039841799   -7.7129486    3640.1254          753 
  166000   0.03917773    -7.712783    3639.7083          739 
  167000  0.039748135   -7.7153025    3640.6653          762 
  168000  0.040423755   -7.7171823    3642.2999          750 
  169000  0.040117291   -7.7149401    3640.8106          766 
  170000  0.039848233   -7.7133183    3640.7889          714 
  171000  0.039013937   -7.7145511    3640.4614          727 
  172000  0.039631102   -7.7153762    3641.1139          770 
  173000  0.039471749    -7.715955    3640.9282          757 
  174000  0.039598693   -7.7154729    3640.2419          740 
  175000  0.040315351   -7.7161479    3639.5548          760 
  176000  0.039811462    -7.718256     3640.582          798 
  177000  0.041057518   -7.7189114    3641.2711          793 
  178000   0.04007304   -7.7163203    3639.9316          806 
  179000  0.039949603    -7.714986    3640.0945          855 
  180000  0.040128803   -7.7183806    3641.3759          838 
  181000  0.040889332   -7.7180507      3640.99          809 
  182000  0.040595477   -7.7167159    3639.1079          815 
  183000  0.040273672   -7.7175135    3639.8244          809 
  184000  0.039936699   -7.7178576    3641.1374          775 
  185000  0.040075924   -7.7177381    3640.8899          826 
  186000  0.040066762   -7.7168764     3640.029          794 
  187000  0.040851779   -7.7169796    3640.0862          772 
  188000  0.040339094   -7.7177407    3640.1872          777 
  189000    0.0401842   -7.7189764    3641.0144          817 
  190000  0.040357084   -7.7186378    3640.7537          792 
  191000  0.040421943   -7.7172338    3639.5247          772 
  192000  0.039682009   -7.7169616    3639.3813          799 
  193000   0.04043985   -7.7184308    3640.2613          801 
  194000  0.041315085   -7.7176039    3640.4489          798 
  195000  0.040885685   -7.7163305     3638.681          815 
  196000  0.040433102   -7.7186921    3639.2923          806 
  197000  0.039749192   -7.7220434    3640.4487          852 
  198000  0.039980061   -7.7206202    3639.7979          824 
  199000  0.039515171   -7.7190449    3638.8971          874 
  200000  0.040309556   -7.7203171    3638.7245          870 
  201000  0.040494859   -7.7211915    3639.4617          852 
  202000  0.039344844   -7.7235257    3639.1397          871 
  203000   0.04014087   -7.7236016    3639.3818          878 
  204000  0.039825086   -7.7222085     3638.307          829 
  205000   0.04076241   -7.7213113    3638.2631          853 
  206000  0.039805799   -7.7232358     3639.047          881 
  207000  0.039921319   -7.7252323    3640.3757          830 
  208000  0.040499869    -7.721975    3638.2313          862 
  209000  0.040570827   -7.7211274    3638.2794          855 
  210000  0.040476899   -7.7240021    3640.2182          868 
  211000  0.039158733   -7.7241929    3639.2174          898 
  212000  0.039565005   -7.7219502    3638.7626          841 
  213000  0.039679723   -7.7212744    3637.7068          857 
  214000  0.039553192   -7.7210536    3638.7822          866 
  215000  0.039845442   -7.7247904    3639.9351          855 
  216000  0.039067599   -7.7234378    3639.7179          855 
  217000  0.040269419    -7.721023    3636.8178          864 
  218000  0.040319605   -7.7234118    3638.0302          853 
  219000  0.039095216   -7.7254262    3639.5648          905 
  220000  0.040478633   -7.7261478    3639.7185          895 
  221000  0.039555361   -7.7238417     3637.192          886 
  222000  0.039986258   -7.7230091      3636.15          925 
  223000  0.039039967   -7.7256865    3638.1182          923 
  224000  0.039302957   -7.7281964     3639.714          926 
  225000  0.039691823   -7.7287863    3639.2245          926 
  226000  0.039805743   -7.7237887    3636.4337          913 
  227000   0.04091359   -7.7253808    3637.6704          930 
  228000  0.039711743    -7.726667    3639.3076          946 
  229000  0.040561689   -7.7275369    3639.3303          914 
  230000  0.039720715   -7.7253236    3637.9372          930 
  231000  0.040970526   -7.7230822    3636.0911          941 
  232000  0.040805326   -7.7252073    3638.0182          917 
  233000  0.040315706   -7.7262669    3639.2064          924 
  234000  0.040307026   -7.7261729    3638.7093          940 
  235000  0.040667693   -7.7211351    3635.2608          936 
  236000  0.041313508   -7.7226356     3636.525          923 
  237000  0.040648392   -7.7255942    3638.9499          952 
  238000   0.03987041   -7.7280713    3639.2921          926 
  239000  0.039152728    -7.724131    3637.4474          894 
  240000  0.039600165    -7.723648     3635.623          909 
  241000  0.039754928    -7.725967    3637.9054          928 
  242000  0.039795007   -7.7271398    3639.8278          914 
  243000  0.038724547   -7.7284186    3639.4022          939 
  244000  0.038832976   -7.7240015    3636.3997          919 
  245000  0.039998418   -7.7257554    3637.3781          913 
  246000     0.039033   -7.7266607    3639.0069          927 
  247000  0.039677723   -7.7265094    3638.1887          929 
  248000  0.039601748   -7.7254283    3637.5129          935 
  249000  0.040563112   -7.7250967     3637.296          928 
  250000  0.041068826    -7.725232    3637.9552          899 
  251000  0.039640838     -7.72742    3639.4074          918 
  252000  0.040735474   -7.7266331    3638.4864          920 
  253000  0.040674837   -7.7239525    3637.1048          922 
  254000  0.040290534   -7.7211307    3635.4598          933 
  255000  0.040453026   -7.7276974     3638.775          928 
  256000  0.039744614   -7.7282115    3639.1589          916 
  257000   0.04012208   -7.7259079    3637.8527          904 
  258000  0.040167945   -7.7223001    3636.0147          901 
  259000  0.040048041   -7.7247628    3638.1894          944 
  260000  0.039897783    -7.725813    3638.8135          925 
  261000  0.040811991   -7.7268909    3639.1286          942 
  262000  0.040862082   -7.7243577    3638.0577          953 
  263000  0.040128059   -7.7237353     3636.869          919 
  264000  0.040152401   -7.7263604    3638.3581          939 
  265000  0.039883516   -7.7285865    3639.9281          923 
  266000  0.040181564   -7.7258559    3637.7451          939 
  267000  0.039502328   -7.7225459    3635.9279          932 
  268000  0.039318692   -7.7257085     3637.725          921 
  269000  0.039964033   -7.7291242    3640.1021          926 
  270000  0.039845041   -7.7281253    3638.4702          935 
  271000  0.040901255   -7.7243004      3637.02          941 
  272000   0.03903231   -7.7241329    3636.9108          938 
  273000  0.039561103   -7.7264353    3638.4836          925 
  274000  0.040099009   -7.7258881    3638.1406          938 
  275000  0.039908524   -7.7263678     3637.784          927 
  276000   0.04036615   -7.7232462    3636.1966          913 
  277000  0.040039141   -7.7254404    3637.6832          943 
  278000  0.040666132   -7.7281139    3638.3295          950 
  279000  0.039879516   -7.7280002    3639.2137          948 
  280000  0.040447647   -7.7259954    3636.8117          933 
  281000  0.040208331    -7.724522    3637.2203          917 
  282000   0.03937359   -7.7286538    3638.8109          963 
  283000  0.039998986   -7.7284816    3638.7796          932 
  284000  0.040164714   -7.7266695    3637.4149          941 
  285000  0.040128073   -7.7241723     3636.357          918 
  286000  0.039739729   -7.7262039    3637.2255          931 
  287000  0.039236785   -7.7276291    3638.4866          938 
  288000  0.039695827   -7.7274534    3638.3012          939 
  289000  0.040159678   -7.7265028    3636.5669          959 
  290000  0.040039511   -7.7253015    3635.4418          959 
  291000  0.039700886   -7.7278567    3638.0745          924 
  292000  0.039885269   -7.7293749    3638.5484          939 
  293000  0.040338321   -7.7271249    3637.9043          923 
  294000  0.039786952   -7.7250992    3636.1631          942 
  295000  0.039653016   -7.7257555    3637.5154          941 
  296000  0.040986437   -7.7283734    3639.0822          940 
  297000  0.040442735    -7.728635    3640.1403          940 
  298000  0.039749453   -7.7255068    3637.1352          961 
  299000  0.041219859   -7.7255975    3636.9575          937 
  300000  0.039954223   -7.7273612    3638.3839          957 
  301000  0.040711997   -7.7309926    3640.2732          948 
  302000  0.041035078   -7.7268804    3638.1455          957 
  303000  0.040200159   -7.7229848    3634.8275          941 
  304000  0.040161463   -7.7254633    3637.0934          935 
  305000  0.040163902   -7.7280771    3638.2751          932 
  306000  0.038810651   -7.7287615    3639.9427          969 
  307000   0.03904268   -7.7261129    3637.3825          911 
  308000  0.039601505   -7.7261808     3636.334          955 
  309000    0.0396457   -7.7268823    3638.0574          935 
  310000  0.040064865   -7.7294634    3640.0982          949 
  311000  0.039740936   -7.7274513    3638.1109          944 
  312000  0.039021892   -7.7248974     3636.641          939 
  313000  0.040082272   -7.7257659    3636.6167          926 
  314000  0.039971686   -7.7294743    3640.4406          953 
  315000  0.039845058   -7.7286433    3638.7697          928 
  316000  0.039643536   -7.7260572      3637.38          926 
  317000  0.039939276   -7.7234568    3635.3269          955 
  318000  0.039952999   -7.7263862    3637.8944          937 
  319000  0.040723012   -7.7286303    3638.8405          931 
  320000  0.039130475    -7.728288    3638.4584          944 
  321000  0.040443214   -7.7252489    3636.0886          959 
  322000  0.039686221   -7.7253239    3637.3869          919 
  323000  0.039627982   -7.7274761    3638.9251          932 
  324000  0.039683179   -7.7311068     3640.714          929 
  325000  0.039681266   -7.7259444    3637.5283          952 
  326000  0.040513001   -7.7252483    3635.6201          949 
  327000  0.039695532   -7.7260483    3637.2139          952 
  328000   0.04034479   -7.7283861    3639.4477          936 
  329000   0.03961749   -7.7278151     3638.257          956 
  330000  0.039997029    -7.724561    3636.4924          935 
  331000  0.040177198   -7.7244196    3636.3805          961 
  332000  0.040384322   -7.7276405    3638.0955          954 
  333000  0.040585109   -7.7290632    3639.7036          955 
  334000  0.040223027   -7.7275531    3637.5552          930 
  335000  0.040595708   -7.7248191    3636.2156          949 
  336000  0.040221584   -7.7270577    3637.5081          951 
  337000  0.040804937   -7.7282208    3639.1499          947 
  338000  0.040141534   -7.7273609    3638.1309          955 
  339000  0.040081948   -7.7234914    3636.3119          939 
  340000  0.039396446   -7.7265335    3636.7538          936 
  341000  0.040661391   -7.7285199    3638.9902          972 
  342000  0.039488628   -7.7295018    3638.8998          949 
  343000  0.039634399   -7.7266241    3637.7406          936 
  344000  0.039710966   -7.7262608     3636.495          924 
  345000  0.039033681   -7.7259984    3636.5204          956 
  346000  0.039228568   -7.7271432    3638.8814          926 
  347000  0.040381823   -7.7282348    3638.5863          957 
  348000  0.040198754   -7.7239581    3634.3546          953 
  349000  0.041395325   -7.7243405    3636.3122          949 
  350000  0.040752215   -7.7273915    3638.1729          925 
  351000  0.040212199   -7.7298771     3639.573          959 
  352000  0.040174956   -7.7279178    3637.6908          948 
  353000  0.039499959   -7.7267604     3636.315          958 
  354000  0.039699336   -7.7240596    3636.6923          956 
  355000  0.040335554   -7.7284711    3638.2636          960 
  356000  0.039511178   -7.7288475    3639.7046          948 
  357000  0.041040216   -7.7256693    3637.0978          957 
  358000   0.03996464   -7.7266493    3636.4152          942 
  359000   0.04019493   -7.7271502    3637.5216          914 
  360000  0.039873917   -7.7289857    3639.1214          932 
  361000  0.039199936   -7.7276675    3638.0584          946 
  362000  0.039989213   -7.7266287    3635.7812          917 
  363000  0.039297946   -7.7261309     3636.978          955 
  364000   0.04047491   -7.7277976    3638.3087          970 
  365000  0.040702924   -7.7289886    3639.9292          980 
  366000  0.039909276   -7.7260919    3636.8524          920 
  367000  0.040159217   -7.7240078     3635.569          944 
  368000  0.040029381   -7.7261078    3638.0788          924 
  369000  0.040253757    -7.727531    3639.1396          956 
  370000  0.040705224   -7.7262997    3638.7309          935 
  371000  0.039468162   -7.7239072     3635.786          984 
  372000  0.039718125   -7.7237312    3635.4592          931 
  373000  0.040509504   -7.7283357    3638.4641          949 
  374000  0.039158798   -7.7275933    3638.8025          949 
  375000  0.038904174   -7.7255756    3637.3763          926 
  376000  0.038745863   -7.7255176     3637.199          932 
  377000   0.03980367   -7.7263964    3637.6456          931 
  378000    0.0397006   -7.7267516    3638.2549          956 
  379000  0.039622936   -7.7282261    3638.7097          921 
  380000   0.04015331   -7.7261817    3637.2091          939 
  381000  0.039503793   -7.7247099    3637.0692          937 
  382000  0.039336398   -7.7271953    3638.5481          888 
  383000  0.039935996   -7.7278065    3638.9416          920 
  384000  0.040298967   -7.7254749     3636.918          960 
  385000    0.0399914   -7.7249526    3636.3712          956 
  386000  0.040476107   -7.7279424    3637.2774          923 
  387000  0.040156956   -7.7292883    3640.1269          950 
  388000  0.039691701    -7.726584    3638.1398          917 
  389000  0.039678248    -7.724796    3636.2797          935 
  390000  0.039876295     -7.72591    3637.3959          946 
  391000  0.040477359   -7.7287009    3638.5658          947 
  392000  0.039447778   -7.7280343    3638.1725          945 
  393000  0.040438259   -7.7259126    3637.6061          945 
  394000  0.040109685   -7.7263231    3637.3219          942 
  395000  0.040305421   -7.7272947    3637.1466          933 
  396000  0.039983599    -7.727528    3638.4921          925 
  397000  0.039751248   -7.7275897    3638.3455          951 
  398000  0.040302822   -7.7270934    3637.2437          958 
  399000  0.040323966   -7.7237381    3636.1049          933 
  400000  0.040765205   -7.7273398    3638.1026          926 
  401000  0.039095324    -7.729011    3639.3889          947 
  402000    0.0399535   -7.7265377    3637.6052          938 
  403000  0.039598997    -7.724901    3636.1213          950 
  404000  0.039903188   -7.7262523    3637.4948          933 
  405000  0.039766022   -7.7292289    3638.5091          928 
  406000  0.039543129   -7.7304288    3639.1769          948 
  407000  0.039504262   -7.7254508    3637.0349          941 
  408000  0.040067481   -7.7259816    3636.9279          938 
  409000  0.041061203   -7.7293987    3638.3336          934 
  410000  0.039319028   -7.7279959    3639.7784          948 
  411000  0.040100369   -7.7260641    3638.0376          951 
  412000  0.040555589    -7.726313     3637.394          942 
  413000  0.039595982   -7.7258583     3637.712          945 
  414000  0.040208332   -7.7292414    3639.0579          940 
  415000  0.040107096   -7.7279664    3638.7858          955 
  416000  0.039740114   -7.7256297    3637.4371          927 
  417000  0.040136672   -7.7253944    3636.3675          969 
  418000  0.040397676   -7.7278766    3637.8795          950 
  419000  0.040939203     -7.73065    3639.8507          941 
  420000  0.040531595   -7.7269759    3637.7054          955 
  421000  0.040030658   -7.7258587    3636.9637          950 
  422000  0.039455661   -7.7251925    3637.2001          939 
  423000  0.039392056   -7.7295991    3639.4936          936 
  424000  0.039560241   -7.7279527    3638.4745          952 
  425000  0.039593667   -7.7242628    3636.5196          937 
  426000  0.040635164   -7.7257908    3636.2058          924 
  427000  0.040283234   -7.7273535    3638.0172          934 
  428000   0.03950196   -7.7275201    3638.0651          940 
  429000  0.040291889    -7.727895    3637.9735          959 
  430000   0.03916589   -7.7257898    3637.0014          948 
  431000  0.040981479   -7.7263421    3636.9594          943 
  432000  0.039685455   -7.7282741    3637.8466          930 
  433000  0.040582794   -7.7298879    3638.5603          960 
  434000   0.03968201   -7.7263151    3637.3339          935 
  435000  0.038915491   -7.7247816    3636.3177          929 
  436000  0.040020825   -7.7270191    3637.9124          975 
  437000  0.040530219   -7.7286905     3638.963          960 
  438000  0.039432133   -7.7261376    3638.2383          969 
  439000  0.039484286   -7.7238072    3634.6596          943 
  440000  0.040172794   -7.7258363    3637.2308          935 
  441000  0.040495431   -7.7279905    3638.8094          941 
  442000  0.039889879   -7.7288337    3639.2997          971 
  443000  0.040138954    -7.725678    3636.9232          954 
  444000  0.039642118   -7.7257951    3636.9123          952 
  445000  0.040028532   -7.7265508    3637.7574          962 
  446000  0.040613988   -7.7288189    3639.9404          922 
  447000  0.040375579   -7.7280913    3639.7466          953 
  448000   0.03959199   -7.7248169    3636.6004          942 
  449000  0.040451077   -7.7259121    3637.0525          941 
  450000  0.039572695   -7.7281336    3638.9212          935 
  451000  0.039872299   -7.7300966    3640.2695          932 
  452000   0.04011518   -7.7265912     3637.515          937 
  453000  0.040484533   -7.7252804    3636.1963          956 
  454000  0.039793596   -7.7263432    3637.5285          941 
  455000  0.040141747   -7.7287508    3638.5558          965 
  456000  0.040095085   -7.7280117    3638.4435          942 
  457000  0.040422531     -7.72449    3635.5988          971 
  458000  0.039518886   -7.7252969    3636.1724          929 
  459000  0.039986023   -7.7276687    3638.3023          959 
  460000  0.040618939   -7.7289759    3639.1278          932 
  461000  0.039852547   -7.7267877    3637.5072          938 
  462000  0.040415131   -7.7229782    3635.5302          948 
  463000  0.039629458   -7.7274428    3637.3051          953 
  464000   0.03945516    -7.728889    3639.3119          941 
  465000  0.040102271   -7.7296337     3639.989          967 
  466000  0.040394298   -7.7249614    3636.4612          964 
  467000  0.040703443   -7.7259152    3637.0798          919 
  468000  0.039645089   -7.7277134    3638.3383          945 
  469000  0.039032639   -7.7298678    3639.2643          957 
  470000  0.039799881   -7.7270358    3637.7837          926 
  471000  0.039491773   -7.7230704    3636.4642          930 
  472000  0.039764804   -7.7233109    3636.6779          953 
  473000  0.039920839   -7.7284731    3639.2107          961 
  474000  0.040058864   -7.7276912    3638.1975          938 
  475000  0.039995851   -7.7256499    3636.4286          920 
  476000  0.039570536   -7.7264898    3637.5784          919 
  477000  0.039629827   -7.7278253    3638.0776          953 
  478000  0.038790356   -7.7284137    3638.3813          936 
  479000  0.039961038   -7.7266389    3638.2649          916 
  480000  0.039929742   -7.7253022    3637.7991          966 
  481000  0.040180673   -7.7252292    3636.7829          959 
  482000  0.040120533   -7.7279711    3638.0405          923 
  483000  0.039845356   -7.7289117    3639.3464          945 
  484000   0.03945138   -7.7268857    3637.2821          922 
  485000  0.040189517   -7.7245133    3636.1659          927 
  486000  0.039470377   -7.7276981    3637.5113          950 
  487000  0.041193375   -7.7278777    3639.3697          938 
  488000  0.040410895   -7.7276971    3638.1016          931 
  489000   0.03984053   -7.7246821    3634.8814          930 
  490000  0.040535048   -7.7258164     3636.862          951 
  491000  0.040104973    -7.727827    3638.7037          961 
  492000  0.040655947   -7.7286713    3639.7256          960 
  493000  0.040413087   -7.7259928    3637.4988          965 
  494000  0.039798239   -7.7266824    3637.5505          954 
  495000  0.039332959   -7.7256148    3637.5919          957 
  496000  0.040858968   -7.7272345    3638.3753          946 
  497000  0.039586235   -7.7271848    3638.9299          957 
  498000  0.040457624   -7.7265964    3637.3012          930 
  499000  0.039974889   -7.7256717    3636.9818          951 
  500000  0.040005047   -7.7270093    3637.6435          946 
  501000  0.039933189   -7.7291783    3638.6531          943 
  502000  0.041279336   -7.7261232    3637.7419          941 
  503000  0.039761329   -7.7245997    3635.4392          935 
  504000  0.040025208   -7.7275281    3637.4977          930 
  505000  0.040480896   -7.7273758    3638.4467          946 
  506000  0.040370662   -7.7282148    3639.1229          928 
  507000  0.040437917   -7.7254151    3637.1897          921 
  508000  0.039729828   -7.7262429    3636.6401          956 
  509000  0.039790675   -7.7278898    3638.4725          930 
  510000   0.03989132   -7.7305888    3640.2834          916 
  511000  0.039823284   -7.7254716    3637.9496          947 
  512000  0.039669983   -7.7248104    3636.4642          954 
  513000  0.040492765   -7.7255694    3636.8139          936 
  514000  0.040431702   -7.7292203    3639.2017          944 
  515000  0.039679467   -7.7282004    3638.4871          948 
  516000  0.040662768   -7.7246079     3635.981          927 
  517000   0.04039123   -7.7255776    3636.3882          933 
  518000  0.039752166    -7.726864    3637.9543          942 
  519000  0.040033153   -7.7297055    3639.8762          954 
  520000  0.039341174   -7.7281567    3637.5594          931 
  521000  0.039815398   -7.7224249    3634.9307          943 
  522000  0.040389179   -7.7267234    3637.2594          952 
  523000  0.039521174   -7.7283594    3638.1634          942 
  524000   0.03950525   -7.7286651    3639.7228          943 
  525000  0.039812117   -7.7266774    3637.2372          952 
  526000  0.040072776   -7.7251572    3636.2012          940 
  527000  0.040669741   -7.7268878    3638.7158          969 
  528000  0.039910628   -7.7287692       3639.2          938 
  529000   0.04007446   -7.7274235    3638.1658          939 
  530000  0.039676883    -7.723591    3636.2425          956 
  531000  0.040445453   -7.7244908    3636.7458          956 
  532000  0.039379322   -7.7277009    3638.6467          949 
  533000  0.039286955   -7.7273711    3638.7424          955 
  534000  0.039840631   -7.7244149    3636.7918          939 
  535000  0.040125753   -7.7254107    3636.4321          949 
  536000  0.039676136    -7.726975    3637.7791          937 
  537000  0.040476708   -7.7286676    3639.0648          935 
  538000  0.039193566   -7.7268017    3638.1228          963 
  539000  0.039344562   -7.7243528    3636.0871          952 
  540000  0.040648891   -7.7244923    3634.2917          938 
  541000  0.040456078   -7.7273551    3638.6151          932 
  542000  0.039328104   -7.7284893    3638.8978          934 
  543000  0.040147419     -7.72562    3637.3852          945 
  544000  0.039354335   -7.7217544    3634.7256          951 
  545000  0.040719735   -7.7265497    3637.7611          951 
  546000  0.040530972   -7.7276118    3639.0002          946 
  547000  0.040367998   -7.7274784    3639.2411          952 
  548000  0.039444856   -7.7257994    3637.1677          956 
  549000  0.039494647    -7.726401    3636.7985          966 
  550000  0.039727587   -7.7300957    3639.0526          949 
  551000  0.040305808   -7.7283084    3638.6784          950 
  552000  0.040156999   -7.7262475    3637.5816          947 
  553000  0.039453643   -7.7234239     3635.747          938 
  554000  0.039718178   -7.7258973     3637.984          917 
  555000  0.041303599   -7.7299038    3639.3506          929 
  556000  0.040466612   -7.7280218    3638.3507          956 
  557000   0.04028312    -7.723287    3635.3036          961 
  558000  0.040267317   -7.7252937    3636.4098          933 
  559000  0.039985619   -7.7276982    3638.0306          929 
  560000  0.039925062   -7.7293155    3638.9837          968 
  561000  0.039949109   -7.7251486    3637.2574          939 
  562000  0.040676762   -7.7239069     3635.444          931 
  563000   0.04030235   -7.7257707    3637.6892          949 
  564000  0.040814455   -7.7277185    3638.8989          933 
  565000  0.039391289   -7.7279017    3639.4987          940 
  566000  0.040501294   -7.7242956    3635.3972          930 
  567000  0.039678544   -7.7250731    3636.6696          958 
  568000  0.039074585   -7.7266655     3638.386          949 
  569000  0.040437054   -7.7291171    3640.3385          949 
  570000   0.03910465   -7.7265721    3637.7236          936 
  571000  0.040165725    -7.725402    3636.4381          920 
  572000  0.039943092    -7.726131    3637.4949          919 
  573000  0.040541238    -7.730611    3639.9338          917 
  574000  0.039755311    -7.728266    3638.8468          950 
  575000  0.040187279   -7.7260472    3637.0721          960 
  576000  0.039535178   -7.7232848    3634.8637          930 
  577000  0.040924222   -7.7264909    3638.5924          950 
  578000  0.039798475   -7.7275772     3638.647          942 
  579000  0.040431615   -7.7268634    3638.0834          936 
  580000  0.039632611   -7.7237741    3635.7813          947 
  581000  0.039649334    -7.726376    3637.1868          947 
  582000  0.039003213   -7.7280787    3637.8948          954 
  583000  0.040280157   -7.7286107    3638.5972          971 
  584000  0.039390059    -7.725518    3636.9887          941 
  585000  0.039822534   -7.7255073    3636.4064          953 
  586000  0.039945231   -7.7271199    3638.1741          957 
  587000  0.040662226   -7.7287187     3638.711          931 
  588000  0.040104598   -7.7267083    3638.0118          956 
  589000  0.039217952   -7.7249918    3635.3088          935 
  590000  0.040522956   -7.7261476    3637.3358          950 
  591000  0.039894997   -7.7276982    3639.2318          930 
  592000  0.039082609   -7.7260557    3638.4835          952 
  593000  0.040365883   -7.7244522    3637.0022          960 
  594000  0.040187213   -7.7245283    3636.3171          930 
  595000  0.039255087   -7.7260715    3638.0269          963 
  596000  0.040034649   -7.7279552    3639.5593          938 
  597000  0.039114444   -7.7277256    3637.8185          950 
  598000  0.039410264   -7.7248419    3635.1129          938 
  599000  0.040531791   -7.7258941    3636.5505          958 
  600000  0.039377592   -7.7278442    3639.0077          956 
  601000  0.040629815   -7.7284808    3639.2752          928 
  602000  0.040473303   -7.7247707    3636.3778          914 
  603000  0.040380893   -7.7251159    3636.1602          954 
  604000  0.039524208   -7.7273538    3637.6469          959 
  605000  0.038852233   -7.7286863    3638.9654          936 
  606000  0.040992887   -7.7284529    3638.5088          934 
  607000  0.040156415   -7.7252762    3636.6481          940 
  608000  0.040269922   -7.7253427    3636.8446          958 
  609000  0.040399172   -7.7303071    3639.7091          925 
  610000  0.040021136   -7.7286149    3639.5977          938 
  611000  0.039334059   -7.7255545    3637.5698          982 
  612000  0.040366889   -7.7257104    3636.3811          967 
  613000   0.03990981   -7.7263065    3637.5201          941 
  614000  0.039350945   -7.7285492    3638.8776          948 
  615000   0.04022292   -7.7283756    3638.4907          978 
  616000  0.039438906   -7.7251982    3636.2968          933 
  617000  0.038881449   -7.7242626    3635.0602          925 
  618000   0.04076056   -7.7279128    3638.5996          936 
  619000  0.039687773   -7.7285199    3638.4389          943 
  620000  0.039722367   -7.7254457    3637.7262          910 
  621000  0.039993364   -7.7244143    3636.4394          937 
  622000  0.039820853   -7.7265295     3637.376          938 
  623000  0.040850947   -7.7302217    3640.0529          934 
  624000  0.040356234   -7.7293064      3639.07          938 
  625000  0.040021091   -7.7261529    3636.8422          934 
  626000  0.039413467   -7.7245393     3636.318          938 
  627000    0.0401318   -7.7278252    3638.7824          959 
  628000  0.041388912   -7.7278684     3638.576          939 
  629000  0.040042809   -7.7273197    3637.4485          961 
  630000  0.040121661    -7.725047    3636.6741          941 
  631000   0.03993738   -7.7266649    3637.1393          942 
  632000  0.039720787   -7.7276419    3637.8373          913 
  633000  0.040234101   -7.7295594    3638.8572          949 
  634000  0.039470471   -7.7271509    3637.1336          957 
  635000  0.040667469   -7.7256161    3636.6018          949 
  636000    0.0401643   -7.7280341    3638.6548          945 
  637000  0.040345395   -7.7294916    3638.9812          944 
  638000  0.040614917   -7.7263229    3637.8915          936 
  639000  0.040289641   -7.7224352    3634.3224          947 
  640000  0.040569653   -7.7258716    3637.4531          933 
  641000  0.039816984   -7.7292426    3639.6288          945 
  642000  0.039843477   -7.7263904    3638.3078          938 
  643000  0.040052054   -7.7251875    3637.7873          931 
  644000  0.040154887   -7.7241899     3635.889          972 
  645000  0.040091737   -7.7266298    3638.1095          933 
  646000  0.039926239   -7.7283283    3639.7301          944 
  647000  0.040180146   -7.7267761    3638.0935          945 
  648000  0.040240169   -7.7244446     3636.377          967 
  649000  0.039152676   -7.7263568    3637.2712          933 
  650000  0.039860763   -7.7281802     3638.119          960 
  651000  0.040158219   -7.7279279     3638.608          938 
  652000  0.040522016   -7.7249875     3637.008          972 
  653000  0.040666588   -7.7270206    3637.5994          942 
  654000  0.039377738   -7.7273397    3637.9084          948 
  655000  0.040256906   -7.7305425    3640.0555          959 
  656000  0.040046407   -7.7275323    3637.8949          960 
  657000  0.039580933    -7.722524    3635.3436          950 
  658000    0.0406022   -7.7256759    3637.0987          949 
  659000  0.040033181   -7.7285307    3638.7532          935 
  660000  0.040320758   -7.7284839    3639.3588          944 
  661000  0.040532395   -7.7271226    3637.1769          947 
  662000  0.040321293   -7.7247924    3636.1049          931 
  663000  0.039627433   -7.7266062    3638.0438          973 
  664000  0.040370435   -7.7286574    3639.0109          950 
  665000  0.039316378   -7.7272852    3638.1554          953 
  666000  0.039799217   -7.7232151    3634.6892          934 
  667000  0.039870589   -7.7239445    3636.3742          942 
  668000  0.040486503   -7.7272814    3638.3549          965 
  669000  0.040336533   -7.7283997    3639.3753          919 
  670000  0.040528075   -7.7273738    3637.2424          933 
  671000  0.040455499   -7.7229377    3635.5933          950 
  672000  0.040237461    -7.727596    3637.5427          949 
  673000  0.040147568   -7.7286128    3638.8589          945 
  674000  0.041084083   -7.7273532    3638.3588          937 
  675000  0.039255074   -7.7241244    3635.1395          921 
  676000  0.040233989   -7.7254058    3636.1994          912 
  677000  0.039526392   -7.7272362     3638.572          935 
  678000  0.040963412   -7.7282706    3639.3194          950 
  679000  0.040060565   -7.7259169    3637.1288          949 
  680000  0.040672724   -7.7245798    3636.2527          920 
  681000  0.039301516   -7.7272343    3637.0726          939 
  682000  0.039785806    -7.730371    3639.7237          946 
  683000  0.040136463   -7.7281704    3637.8318          917 
  684000  0.039527854   -7.7261393    3636.9629          956 
  685000  0.040309576   -7.7260423    3637.0483          942 
  686000   0.04030448   -7.7287558    3638.6928          958 
  687000  0.040181651   -7.7296196     3639.151          939 
  688000  0.040631838   -7.7267656    3637.6591          950 
  689000  0.039741094   -7.7264071    3637.4429          948 
  690000  0.039998938   -7.7253729     3637.331          965 
  691000  0.039950879   -7.7279704    3638.4097          935 
  692000  0.040162806   -7.7280053    3638.3887          923 
  693000  0.039687706   -7.7274937    3636.9822          949 
  694000  0.039714658   -7.7244087    3635.4403          941 
  695000  0.040240863    -7.726338    3638.3139          947 
  696000  0.039917561   -7.7296193    3639.0747          973 
  697000  0.040276593   -7.7274895    3637.6995          931 
  698000  0.040423938   -7.7247185    3636.1078          923 
  699000  0.040132213   -7.7271351    3637.2422          938 
  700000  0.039365497   -7.7289188     3639.108          951 
  701000  0.039698525   -7.7265331     3639.235          967 
  702000  0.039435421   -7.7252225    3637.1115          962 
  703000  0.040329688   -7.7260341    3636.7977          948 
  704000   0.03993485   -7.7265746    3638.1431          921 
  705000  0.040250344    -7.730969    3640.3728          949 
  706000  0.040246737   -7.7270902     3638.102          941 
  707000  0.040603469   -7.7244942    3636.8178          961 
  708000  0.040204493   -7.7254801    3636.1465          957 
  709000  0.040730265   -7.7287302    3638.9957          913 
  710000  0.039715695   -7.7274269     3638.412          945 
  711000  0.039989874   -7.7244601    3637.4295          936 
  712000  0.039805051   -7.7224236    3634.7922          957 
  713000  0.039904173   -7.7268926    3637.7679          961 
  714000  0.039965508   -7.7303711    3640.5261          933 
  715000  0.039472529   -7.7271677    3637.9164          951 
  716000  0.039833637   -7.7216665    3634.7921          940 
  717000  0.039828261   -7.7253199    3637.0797          936 
  718000  0.039523682   -7.7291153    3638.4315          927 
  719000  0.040604752   -7.7300916    3640.0375          942 
  720000  0.039944227   -7.7273763    3637.0906          952 
  721000  0.039119394   -7.7259674     3636.732          929 
  722000   0.04039034   -7.7271563    3637.4638          942 
  723000  0.039687289   -7.7283072    3638.2919          944 
  724000  0.040009982   -7.7269915    3638.3155          943 
  725000  0.040548501    -7.725687     3636.327          934 
  726000  0.040251895   -7.7253272    3637.3606          938 
  727000  0.040481301   -7.7275871    3638.8765          948 
  728000   0.04079047   -7.7281677    3638.2651          917 
  729000  0.040386131   -7.7257852     3637.141          951 
  730000  0.040393452   -7.7260134    3636.8166          948 
  731000  0.040373496   -7.7269917    3637.3509          948 
  732000   0.04052678    -7.729605    3640.0724          932 
  733000   0.04020783   -7.7281177    3638.6196          957 
  734000  0.040246887    -7.726184    3636.9692          954 
  735000  0.039772953   -7.7258108    3636.6279          962 
  736000  0.039476756   -7.7289363    3639.0873          941 
  737000  0.040054249   -7.7315419    3640.6906          945 
  738000    0.0402549   -7.7274674    3637.2923          964 
  739000  0.040496919   -7.7250309    3636.6715          952 
  740000  0.039949458   -7.7248962    3637.6646          925 
  741000  0.039618372   -7.7295211    3639.4864          971 
  742000  0.039580833   -7.7261845     3638.552          941 
  743000   0.04017208     -7.72508    3636.3476          934 
  744000  0.039488803   -7.7266234     3637.603          925 
  745000   0.03954036   -7.7281338    3638.5393          946 
  746000  0.039685677   -7.7271002    3638.3881          945 
  747000  0.039913966   -7.7266233    3637.7926          938 
  748000  0.039808261   -7.7265432    3636.7099          951 
  749000  0.040628083   -7.7257732     3637.653          943 
  750000   0.04003063   -7.7282352    3639.5806          926 
  751000  0.040308794   -7.7268003    3638.3626          944 
  752000  0.039952347   -7.7246708    3636.9684          944 
  753000  0.040909295   -7.7231203    3634.5978          941 
  754000  0.039738809   -7.7268691    3638.4802          959 
  755000   0.03954477   -7.7276919    3638.7284          947 
  756000  0.039864613   -7.7268127    3637.8151          928 
  757000  0.040352366   -7.7269306    3637.1313          956 
  758000  0.040598781   -7.7257916    3637.2252          952 
  759000  0.040212924   -7.7268399    3638.1085          946 
  760000  0.040257748   -7.7279684    3639.3247          939 
  761000  0.039888343    -7.726199    3637.2416          933 
  762000  0.039997193   -7.7250289    3636.9998          957 
  763000  0.039974964   -7.7267773    3638.0555          939 
  764000   0.03988995   -7.7296512    3640.1361          928 
  765000  0.040774315   -7.7270548    3637.7128          950 
  766000  0.040231145   -7.7250879    3636.5885          952 
  767000  0.040142367   -7.7255691     3636.736          965 
  768000  0.040226868   -7.7284185    3638.9108          937 
  769000  0.040836706    -7.728665    3638.5467          956 
  770000  0.040496728   -7.7252741    3636.5324          953 
  771000  0.040224445   -7.7218026    3634.7888          941 
  772000  0.039834348   -7.7264881    3638.4248          923 
  773000   0.03907086    -7.727779    3639.0073          944 
  774000  0.039708833   -7.7272385    3637.9052          936 
  775000  0.040483018   -7.7233884    3635.2191          950 
  776000  0.039710771   -7.7244636    3636.3604          961 
  777000  0.040181475   -7.7278252    3638.7529          949 
  778000  0.039651293   -7.7288433    3640.0141          941 
  779000   0.03972832   -7.7255831     3636.935          956 
  780000  0.040196256   -7.7254898    3636.9044          947 
  781000  0.039593827   -7.7272985    3638.2227          933 
  782000  0.039797502   -7.7295643    3638.6935          970 
  783000  0.040604984   -7.7268016    3638.0788          948 
  784000  0.039841151   -7.7220507    3635.3754          954 
  785000  0.039724041   -7.7255967    3637.0971          934 
  786000   0.03975909   -7.7273482    3638.7149          931 
  787000  0.039885339   -7.7280405     3638.966          948 
  788000  0.040108304   -7.7238947     3636.521          955 
  789000  0.040275625   -7.7251618    3636.0129          939 
  790000  0.040143228   -7.7271538    3637.8908          963 
  791000  0.039760698   -7.7294467     3639.758          956 
  792000   0.04080216   -7.7271943    3637.9399          945 
  793000  0.039927951   -7.7243062     3636.261          955 
  794000  0.039951878   -7.7265139    3637.3101          943 
  795000  0.039491048   -7.7297422     3638.467          949 
  796000  0.039806704   -7.7284464    3638.2977          948 
  797000  0.040110476   -7.7265799    3637.1226          934 
  798000  0.039171198    -7.726305    3637.5034          918 
  799000  0.040871183   -7.7274952    3637.7956          942 
  800000  0.039625743   -7.7284447    3638.2964          934 
  801000  0.039204297   -7.7272075    3638.1774          923 
  802000  0.039826458   -7.7255417    3637.0184          961 
  803000  0.039892059   -7.7267159    3637.0173          971 
  804000  0.039957439   -7.7287749    3639.1009          921 
  805000  0.039871235   -7.7273919    3638.3766          954 
  806000  0.039856437   -7.7270403    3637.1276          954 
  807000  0.039993673   -7.7247282    3635.6621          960 
  808000  0.039985345   -7.7269348    3637.3827          937 
  809000  0.040916508   -7.7286595    3638.4738          938 
  810000  0.040415219   -7.7281646    3638.8892          945 
  811000    0.0398361   -7.7241489    3636.5549          948 
  812000  0.039486278   -7.7249053    3636.8296          961 
  813000  0.039921468   -7.7291389    3639.3158          949 
  814000  0.040348551   -7.7303663      3640.42          946 
  815000    0.0408008   -7.7263002    3637.6842          955 
  816000  0.041014196   -7.7239514    3636.3349          939 
  817000   0.04039533   -7.7270304    3637.3916          951 
  818000  0.039925426   -7.7277535     3638.578          933 
  819000  0.039831878   -7.7275679    3638.5588          955 
  820000  0.039924288   -7.7232827    3635.0581          957 
  821000  0.040499393   -7.7249517     3636.058          931 
  822000  0.040494545   -7.7268997     3638.568          953 
  823000  0.040622816   -7.7283192    3638.8383          941 
  824000  0.039741656   -7.7264616    3637.4219          948 
  825000  0.040739025    -7.721759     3634.862          940 
  826000  0.039730821   -7.7261345    3637.4526          960 
  827000   0.04053135   -7.7279863     3639.249          938 
  828000  0.040491636   -7.7280559    3638.4509          926 
  829000  0.039315772   -7.7242308    3635.8925          946 
  830000  0.040738079   -7.7268161    3637.1265          946 
  831000  0.041464445   -7.7277634    3638.6154          937 
  832000  0.040302731    -7.726906    3638.4669          943 
  833000  0.040436134   -7.7261663    3637.7693          936 
  834000  0.039341415   -7.7251621    3637.1111          927 
  835000   0.03972197   -7.7272771    3637.2172          954 
  836000  0.040676519   -7.7314992    3640.0655          943 
  837000   0.04014598   -7.7277463    3638.6215          946 
  838000  0.040116441   -7.7259849     3636.373          962 
  839000  0.040955603    -7.722102    3634.8077          939 
  840000  0.039755216   -7.7278642    3638.0804          929 
  841000  0.040426885   -7.7287488    3638.8335          933 
  842000  0.040108668   -7.7266228    3637.7774          926 
  843000  0.039507331   -7.7241267    3635.4188          944 
  844000  0.039915962   -7.7261557    3637.3103          937 
  845000  0.039346155   -7.7298808    3639.9663          957 
  846000  0.039574132    -7.728355     3639.436          957 
  847000   0.04032821   -7.7264115     3636.957          957 
  848000   0.04074588   -7.7251929    3636.9044          946 
  849000  0.039123507   -7.7281825    3638.4171          966 
  850000  0.039593041   -7.7307056    3640.4584          935 
  851000  0.040302207   -7.7277516    3637.7635          951 
  852000  0.039678927   -7.7232474    3634.2073          976 
  853000  0.040651242   -7.7256975      3636.94          951 
  854000  0.039202505   -7.7276201    3638.2712          945 
  855000   0.03958262   -7.7290017    3638.7863          985 
  856000  0.040472592    -7.725603    3636.9215          965 
  857000  0.039365052   -7.7256208    3636.9068          925 
  858000  0.039821345   -7.7277638     3638.145          973 
  859000  0.040127736   -7.7274298     3638.055          919 
  860000  0.040669717   -7.7271429    3637.8602          955 
  861000  0.038894511   -7.7242757    3636.1924          954 
  862000  0.038930686   -7.7249646    3636.1211          943 
  863000  0.039397117   -7.7285809    3638.7116          971 
  864000  0.040027038   -7.7316472    3640.9314          957 
  865000  0.040521965   -7.7253227     3637.219          935 
  866000  0.040280681   -7.7258109    3636.9735          958 
  867000  0.039838769    -7.726324    3637.9523          951 
  868000  0.041064597    -7.727574    3639.0881          918 
  869000  0.040505655    -7.726895      3638.28          934 
  870000  0.040670163   -7.7244492    3636.6746          951 
  871000  0.039640809   -7.7256565    3637.6182          937 
  872000  0.039662181   -7.7280143    3638.7827          952 
  873000   0.03982426   -7.7280959    3638.1422          957 
  874000  0.039900421   -7.7264239    3637.2278          938 
  875000  0.039458848    -7.725995    3635.9246          924 
  876000  0.038794184   -7.7280008    3637.4739          929 
  877000  0.039491168   -7.7287302    3638.5641          933 
  878000  0.040489555   -7.7270476    3638.0566          944 
  879000  0.039377237   -7.7249573     3636.205          973 
  880000  0.039617099   -7.7262643     3636.665          924 
  881000  0.039267948   -7.7281382    3638.3316          967 
  882000  0.039511561   -7.7289314     3638.806          950 
  883000  0.039399654   -7.7269906    3637.4297          944 
  884000  0.038808867   -7.7239362    3635.5591          931 
  885000  0.040062769   -7.7274998    3637.5403          970 
  886000  0.039532702   -7.7270581    3638.2138          942 
  887000  0.039449356   -7.7272823    3638.7104          932 
  888000  0.040691853   -7.7258037     3636.525          946 
  889000  0.040200662   -7.7258358    3637.1669          949 
  890000  0.039725488   -7.7276739    3638.0696          950 
  891000  0.040486257   -7.7295366    3640.0961          923 
  892000  0.039747552   -7.7264593    3637.6025          953 
  893000  0.040072196   -7.7250406    3636.3408          946 
  894000  0.039484823   -7.7276033    3637.3069          973 
  895000  0.039883622   -7.7299105    3639.8856          934 
  896000   0.03937715   -7.7269805    3638.1887          945 
  897000  0.040083816   -7.7252286    3636.3762          954 
  898000  0.040615965   -7.7259574     3637.262          958 
  899000  0.039423109   -7.7279052    3638.1759          951 
  900000   0.04006457   -7.7280553    3638.3553          934 
  901000  0.040074646   -7.7254651    3637.8849          946 
  902000   0.03970393   -7.7246637    3637.2537          952 
  903000  0.039429542   -7.7254475    3637.4513          941 
  904000  0.040444268   -7.7305098    3640.0876          938 
  905000  0.040874667   -7.7276858    3638.4202          932 
  906000  0.040194528   -7.7249151    3636.6746          955 
  907000  0.039322345    -7.722277    3634.7939          952 
  908000  0.040555818    -7.726922    3638.2728          970 
  909000  0.039880488   -7.7279959    3638.7989          949 
  910000  0.039977055   -7.7275697    3637.7638          927 
  911000  0.040219572   -7.7263497    3637.2754          954 
  912000   0.03928526   -7.7260403    3637.5011          942 
  913000  0.038997422   -7.7288796    3638.5758          944 
  914000   0.04030547   -7.7288828    3639.5929          947 
  915000  0.040638921   -7.7259997    3637.5542          947 
  916000  0.039981624   -7.7260835    3637.2942          971 
  917000  0.038958424   -7.7283222    3638.2126          939 
  918000  0.039800482   -7.7295407     3639.184          957 
  919000  0.040373881   -7.7276757    3637.8534          949 
  920000  0.039596717    -7.725368    3637.3254          962 
  921000  0.040672669   -7.7258489    3636.7921          928 
  922000  0.040373152   -7.7274381     3637.993          933 
  923000  0.040460792   -7.7289146     3639.374          962 
  924000   0.04003093   -7.7259999    3637.3595          929 
  925000  0.039903234   -7.7245835    3636.4802          947 
  926000  0.039112072   -7.7271884    3638.3526          967 
  927000  0.040169085   -7.7287924    3639.6276          960 
  928000  0.039353828   -7.7272868    3637.7889          926 
  929000  0.040069849   -7.7238954    3636.3484          948 
  930000  0.040030263   -7.7244923    3635.7476          973 
  931000  0.039427854   -7.7285339    3638.5731          934 
  932000  0.040728899   -7.7285996    3638.5924          956 
  933000  0.039883808   -7.7244718    3637.1531          918 
  934000  0.040206119   -7.7232707     3635.516          948 
  935000  0.040220632   -7.7266034    3638.0158          938 
  936000  0.040002353   -7.7270887    3638.9455          962 
  937000  0.040177236   -7.7269584    3638.5619          928 
  938000  0.039771001   -7.7251747     3636.328          947 
  939000  0.039303344   -7.7260911     3637.003          957 
  940000  0.040624952   -7.7291043    3639.1692          928 
  941000  0.040678602   -7.7305758    3640.1511          937 
  942000  0.039734904   -7.7248018    3637.4551          927 
  943000  0.040436599   -7.7241236    3636.1381          947 
  944000  0.039705602   -7.7270091    3637.8432          940 
  945000  0.039680848   -7.7290347    3639.6921          944 
  946000  0.039969028   -7.7266823    3638.0072          938 
  947000  0.039157619   -7.7247481    3635.6286          929 
  948000  0.040179402   -7.7262419    3637.4149          968 
  949000  0.040689785    -7.728617    3638.6877          942 
  950000  0.039683174   -7.7286957    3638.7369          933 
  951000  0.039676809   -7.7264472    3636.7927          956 
  952000  0.039189109   -7.7259853    3636.8439          946 
  953000  0.040035888   -7.7272873    3637.5296          939 
  954000  0.040174108   -7.7302887    3641.0828          945 
  955000  0.039135288     -7.72688    3638.4037          948 
  956000   0.03947274     -7.72441    3637.2846          940 
  957000  0.039920015   -7.7249118    3636.6293          932 
  958000  0.040093424   -7.7298751    3640.0323          952 
  959000  0.040041754   -7.7280129     3639.427          929 
  960000  0.040866683     -7.72661    3637.5242          929 
  961000  0.040120883   -7.7245172    3636.1391          939 
  962000   0.04033361   -7.7261159    3637.2672          945 
  963000  0.039330439   -7.7292038    3639.2657          922 
  964000  0.040598883    -7.727814    3638.0184          940 
  965000  0.039974555   -7.7238993    3636.4766          954 
  966000  0.039666864   -7.7263151    3637.4529          934 
  967000  0.039747851    -7.727554    3638.0764          947 
  968000  0.040140328    -7.729147    3639.5585          963 
  969000  0.040245612   -7.7263179    3637.7579          939 
  970000  0.039434063   -7.7262218    3636.3973          941 
  971000  0.040402599   -7.7271616    3637.3987          956 
  972000  0.039987367   -7.7290059    3639.5412          938 
  973000   0.03984674    -7.727334    3638.0171          946 
  974000  0.040111765   -7.7252928    3636.3707          932 
  975000   0.03927076   -7.7265709    3637.4979          967 
  976000  0.040576272    -7.727061    3638.5615          947 
  977000  0.040419036   -7.7301791    3639.5291          932 
  978000  0.039970158   -7.7255309    3637.9984          943 
  979000  0.039859206   -7.7263204    3636.9922          926 
  980000  0.039657027   -7.7259001    3637.2683          925 
  981000  0.039627744   -7.7282689    3639.4285          947 
  982000  0.039817307   -7.7277843    3638.7963          940 
  983000  0.039826826   -7.7263919    3636.4285          946 
  984000  0.040137293   -7.7224853    3634.1857          959 
  985000  0.040188571   -7.7280205    3637.9139          950 
  986000  0.041319314   -7.7285388    3638.8306          947 
  987000  0.039781212   -7.7272349     3637.712          946 
  988000  0.040009273   -7.7245814    3637.0487          941 
  989000  0.040614097   -7.7253747    3637.0391          933 
  990000  0.039864826   -7.7276263    3638.3855          959 
  991000  0.040860438   -7.7277608    3638.6934          936 
  992000   0.03982429   -7.7252425    3636.0746          941 
  993000  0.040164815   -7.7244945    3636.1522          943 
  994000  0.039697499   -7.7272506    3638.0216          957 
  995000  0.039129267   -7.7290767    3638.6173          964 
  996000  0.038833404   -7.7272864    3638.0507          938 
  997000  0.039752692   -7.7243967    3635.4101          935 
  998000  0.040652941   -7.7256207    3637.1108          937 
  999000  0.039612212    -7.727546    3638.6976          949 
 1000000  0.039391399    -7.728651    3638.7815          953 
 1001000  0.039781733   -7.7252564    3636.2492          952 
 1002000  0.039926575   -7.7249096    3636.3501          924 
 1003000  0.040061589   -7.7276969    3637.7908          953 
 1004000  0.040010244   -7.7268611    3638.1756          946 
Loop time of 2124.78 on 48 procs for 1000000 steps with 4000 atoms

Performance: 81326.128 tau/day, 470.637 timesteps/s
99.4% CPU use with 48 MPI tasks x no OpenMP threads

MPI task timing breakdown:
Section |  min time  |  avg time  |  max time  |%varavg| %total
---------------------------------------------------------------
Pair    | 140.99     | 152.9      | 177.69     |  76.8 |  7.20
Neigh   | 0.95171    | 1.0346     | 1.0873     |   2.9 |  0.05
Comm    | 86.539     | 108.08     | 122.03     |  91.1 |  5.09
Output  | 2.4554     | 2.4564     | 2.4751     |   0.2 |  0.12
Modify  | 1804.6     | 1815.3     | 1826.6     |  11.1 | 85.43
Other   |            | 45.03      |            |       |  2.12

Nlocal:        83.3333 ave          88 max          76 min
Histogram: 1 0 2 4 1 20 7 3 3 7
Nghost:        1751.04 ave        1765 max        1737 min
Histogram: 1 3 5 10 5 6 7 5 4 2
Neighs:        10625.0 ave       11329 max        9746 min
Histogram: 1 0 3 9 9 7 6 6 3 4
FullNghs:      21249.8 ave       22527 max       19387 min
Histogram: 1 0 2 4 9 12 7 4 3 6

Total # of neighbors = 1019988
Ave neighs/atom = 254.99700
Neighbor list builds = 4154
Dangerous builds = 0

#clear
#
#next RN
#
#jump SELF
Total wall time: 0:35:25
