
units lj                  # Use reduced LJ style units
atom_style atomic         # Uncharged point particles
atom_modify map hash      # Needed for indexing of clusters etc
                          # Used to be able to find where atoms are in relation to each other.

# Define a lattice with which to populate the simulation cell. With units
# set to 'lj' the second argument to the lattice command is the reduced
# density rho* and the spacings are multiples of that required to acheive
# that density. Also define a simulation cell called 'box' in lattice units
# and fill it with atoms. Here we're creating a box which is ten lattice
# constants in each direction.
lattice fcc 1.0 spacing 1 1 1                 # All equal sizes - gives the right reduced density.
Lattice spacing in x,y,z = 1.5874011 1.5874011 1.5874011

region box block 0 10 0 10 0 10 units lattice # Defines a region, "box", in lattice units
create_box 1 box                              # Creates a simulation box as specified above,
Created orthogonal box = (0.0000000 0.0000000 0.0000000) to (15.874011 15.874011 15.874011)
  2 by 3 by 4 MPI processor grid
                                              # with one type of atom
create_atoms 1 box                            # Creates particles on lattice points
Created 4000 atoms
  using lattice units in orthogonal box = (0.0000000 0.0000000 0.0000000) to (15.874011 15.874011 15.874011)
  create_atoms CPU = 0.001 seconds


# Set the mass of the first (and only) atom type.
mass 1 1.0

# Lennard-Jones interactions between particles, 3.5 sigma cut-off. Apply
# long range tail corrections to energy and pressure and set all coefficients
# to unity since we work in reduced units here. Note that this doesn't shift
# the potential such that it goes to zero at the cutoff. That would require
# pair_modify('shift', 'yes').
pair_style lj/cut  3.5      # non-GPU version
pair_modify tail  yes
pair_coeff 1  1  1.0  1.0   # Intearaction between 1 and 1 set with epsilon = 1 and sigma = 1

write_data data.*
System init for write_data ...
Neighbor list info ...
  update every 1 steps, delay 10 steps, check yes
  max neighbors/atom: 2000, page size: 100000
  master list distance cutoff = 3.8
  ghost atom cutoff = 3.8
  binsize = 1.9, bins = 9 9 9
  1 neighbor lists, perpetual/occasional/extra = 1 0 0
  (1) pair lj/cut, perpetual
      attributes: half, newton on
      pair build: half/bin/atomonly/newton
      stencil: half/bin/3d
      bin: standard

#############################
#   M E L T   S Y S T E M   #
#############################

velocity all create 2.4 1741580 mom yes dist gaussian # Assign velocities
                                                    # Temperature 2.4, random number seed, zero linear momentum
						                                                        # Gaussian distribution

timestep 0.002   # simulation timestep
thermo 100       # output thermodynamic data every 100 steps

# Define a fix  in this case with index 1 applied to all
# particles in the simulation. This fix is for simulations
# in the anisotropic NPT ensemble. Note that we use the MTK
# correction.
fix 1 all npt temp 2.4 2.4 0.1 iso 5.68 5.68 0.5 mtk yes tchain 5 pchain 5 # Use NPT ensemble
                                                                         # Set temperature and pressure and damping
                                                                         # Numbers of thermostats in chain and in barostat
run 1000         # run for 10000 steps
Per MPI rank memory allocation (min/avg/max) = 3.676 | 3.679 | 3.684 Mbytes
Step Temp E_pair E_mol TotEng Press Volume 
       0          2.4   -8.3859253            0   -4.7868253   -2.2405722         4000 
     100    1.2552531   -6.5115672            0   -4.6291582     5.497081    4088.0579 
     200    1.4628633    -6.289567            0   -4.0958206    6.0903972    4138.0466 
     300    1.5904925   -6.0345783            0   -3.6494359    5.7376042    4272.4771 
     400    1.6850752   -5.7072351            0   -3.1802542    5.9705826    4399.2373 
     500    1.7895599   -5.4225046            0   -2.7388358     5.865757    4546.8704 
     600    1.8965854   -5.1442855            0   -2.3001186     5.865539    4691.2751 
     700    2.0304439     -4.92263            0   -1.8777256    5.8141752    4830.4151 
     800    2.1710171   -4.7567122            0   -1.5010006    5.6106115    4968.6247 
     900    2.2247838   -4.5230698            0   -1.1867284    5.8051376    5086.8715 
    1000     2.364264   -4.4348938            0  -0.88938446    5.9115751    5144.0032 
Loop time of 0.321359 on 24 procs for 1000 steps with 4000 atoms

Performance: 537716.128 tau/day, 3111.783 timesteps/s
99.4% CPU use with 24 MPI tasks x no OpenMP threads

MPI task timing breakdown:
Section |  min time  |  avg time  |  max time  |%varavg| %total
---------------------------------------------------------------
Pair    | 0.17516    | 0.18599    | 0.20046    |   1.2 | 57.88
Neigh   | 0.033665   | 0.035318   | 0.037301   |   0.5 | 10.99
Comm    | 0.062232   | 0.074956   | 0.085985   |   2.1 | 23.32
Output  | 0.00020419 | 0.00021068 | 0.00028225 |   0.0 |  0.07
Modify  | 0.018439   | 0.022696   | 0.026717   |   1.9 |  7.06
Other   |            | 0.002185   |            |       |  0.68

Nlocal:        166.667 ave         176 max         152 min
Histogram: 1 0 2 0 3 4 6 4 3 1
Nghost:        1840.88 ave        1857 max        1826 min
Histogram: 3 1 3 4 1 2 4 4 0 2
Neighs:        14784.9 ave       15702 max       13755 min
Histogram: 2 1 1 5 1 3 5 0 4 2

Total # of neighbors = 354837
Ave neighs/atom = 88.709250
Neighbor list builds = 86
Dangerous builds = 16

# Equilibrate just above the melting temperature to avoid step fn in T

fix 1 all npt temp 1.25 1.25 0.1 iso 5.68 5.68 0.5 mtk yes tchain 5 pchain 5
run 1000
Per MPI rank memory allocation (min/avg/max) = 3.677 | 3.680 | 3.685 Mbytes
Step Temp E_pair E_mol TotEng Press Volume 
    1000     2.364264   -4.4348938            0  -0.88938446    5.9115751    5144.0032 
    1100    1.9499649   -4.6617779            0   -1.7375618    5.8205171    4978.7844 
    1200    1.7213197   -4.9482774            0   -2.3669434    5.7402188    4808.4294 
    1300    1.5721809   -5.1954201            0   -2.8377383    5.7003773    4667.9329 
    1400    1.4692769   -5.4052033            0   -3.2018389    5.6740098     4560.708 
    1500    1.3897296   -5.5637068            0   -3.4796336    5.6667574    4476.2103 
    1600    1.2963572   -5.6470084            0   -3.7029588    5.6441736    4434.9383 
    1700    1.2716936   -5.7363737            0   -3.8293102    5.7159049    4387.6158 
    1800    1.2561313   -5.8008832            0   -3.9171572    5.6027564    4366.0004 
    1900     1.242552   -5.8327759            0   -3.9694139    5.6800198    4347.3872 
    2000    1.2686809   -5.8614487            0   -3.9589031    5.5394068    4347.1855 
Loop time of 0.311047 on 24 procs for 1000 steps with 4000 atoms

Performance: 555543.326 tau/day, 3214.950 timesteps/s
99.7% CPU use with 24 MPI tasks x no OpenMP threads

MPI task timing breakdown:
Section |  min time  |  avg time  |  max time  |%varavg| %total
---------------------------------------------------------------
Pair    | 0.18101    | 0.18484    | 0.1918     |   0.6 | 59.42
Neigh   | 0.030599   | 0.031256   | 0.032113   |   0.2 | 10.05
Comm    | 0.064242   | 0.071008   | 0.074906   |   1.0 | 22.83
Output  | 0.00020585 | 0.00021125 | 0.00028166 |   0.0 |  0.07
Modify  | 0.018958   | 0.021268   | 0.022927   |   0.9 |  6.84
Other   |            | 0.002465   |            |       |  0.79

Nlocal:        166.667 ave         176 max         159 min
Histogram: 1 1 7 1 4 5 1 3 0 1
Nghost:        2035.25 ave        2048 max        2013 min
Histogram: 1 0 2 0 4 2 5 1 6 3
Neighs:        17526.7 ave       18387 max       16728 min
Histogram: 3 2 3 3 2 3 1 2 2 3

Total # of neighbors = 420641
Ave neighs/atom = 105.16025
Neighbor list builds = 76
Dangerous builds = 5


# Small amount of linear quench

fix 1 all npt temp 1.25 ${temp} 0.1 iso 5.68 5.68 0.5 mtk yes tchain 5 pchain 5
fix 1 all npt temp 1.25 1 0.1 iso 5.68 5.68 0.5 mtk yes tchain 5 pchain 5
run 2000
Per MPI rank memory allocation (min/avg/max) = 3.677 | 3.680 | 3.685 Mbytes
Step Temp E_pair E_mol TotEng Press Volume 
    2000    1.2686809   -5.8614487            0   -3.9589031    5.5394068    4347.1855 
    2100    1.2434064   -5.8350169            0   -3.9703736    5.6825536    4343.5639 
    2200    1.2204668   -5.8721805            0    -4.041938    5.6466268    4332.6737 
    2300    1.2237097   -5.8841731            0   -4.0490674    5.5178884     4339.013 
    2400    1.2307356   -5.8737001            0   -4.0280582    5.6194982    4332.3261 
    2500    1.2141725   -5.9112023            0   -4.0903988    5.6704984     4311.881 
    2600    1.1733977   -5.9237002            0   -4.1640437    5.7323171    4298.8477 
    2700    1.1565868   -5.9309245            0    -4.196478    5.6146067    4300.7244 
    2800    1.1633092    -5.994807            0   -4.2502794    5.6669588    4272.9369 
    2900    1.1368851   -6.0050716            0   -4.3001704    5.6254406    4272.1937 
    3000     1.126422   -6.0489698            0   -4.3597591    5.5306849     4261.206 
    3100    1.1188254   -6.0673109            0   -4.3894923    5.6155548    4243.3091 
    3200    1.1147387   -6.0910006            0   -4.4193105    5.6800745    4230.8907 
    3300    1.1025777   -6.1298296            0   -4.4763765    5.6381308    4217.4543 
    3400    1.0862376   -6.1405129            0   -4.5115638    5.6562923    4212.0808 
    3500    1.0535247    -6.150606            0    -4.570714    5.6429084    4205.3139 
    3600    1.0484874   -6.1657147            0   -4.5933769    5.3940138    4218.9282 
    3700    1.0186204   -6.1725714            0   -4.6450227    5.4258383    4211.5653 
    3800    1.0529304    -6.211704            0   -4.6327033    5.6133493    4184.9839 
    3900    1.0402321   -6.2459758            0   -4.6860178    5.5456663    4174.3687 
    4000    1.0068256   -6.2598463            0   -4.7499854    5.5865584    4163.1334 
Loop time of 0.64598 on 24 procs for 2000 steps with 4000 atoms

Performance: 535001.115 tau/day, 3096.071 timesteps/s
99.8% CPU use with 24 MPI tasks x no OpenMP threads

MPI task timing breakdown:
Section |  min time  |  avg time  |  max time  |%varavg| %total
---------------------------------------------------------------
Pair    | 0.38509    | 0.39621    | 0.40984    |   1.1 | 61.33
Neigh   | 0.051942   | 0.053177   | 0.054839   |   0.3 |  8.23
Comm    | 0.13436    | 0.14742    | 0.16163    |   1.9 | 22.82
Output  | 0.00041266 | 0.00042566 | 0.00056991 |   0.0 |  0.07
Modify  | 0.039863   | 0.042881   | 0.045582   |   0.9 |  6.64
Other   |            | 0.005865   |            |       |  0.91

Nlocal:        166.667 ave         174 max         160 min
Histogram: 1 1 5 3 2 6 1 4 0 1
Nghost:        2093.54 ave        2113 max        2083 min
Histogram: 5 1 5 4 2 2 3 1 0 1
Neighs:        18311.7 ave       19108 max       17368 min
Histogram: 1 0 3 1 5 5 3 3 1 2

Total # of neighbors = 439480
Ave neighs/atom = 109.87000
Neighbor list builds = 125
Dangerous builds = 0

#############################
# F R E E Z E  S Y S T E M  #
#############################

# Define solid atoms. This closely follows ten Wolde  Ruiz-Montero and Frenkel  Faraday Discuss  1996  104  93-110
# Compute components of the per-atom q6 vector
compute q6 all orientorder/atom degrees 1 6 components 6 nnn NULL cutoff 1.3 # compute the Q6 parameter.
                                                                             # Use all neighbours within 1.3 unit cell.

# get number of connections
compute coord_number all coord/atom orientorder q6 0.5

# An atom is solid if it has 8 or more connections (of a possible 14)
variable is_solid atom c_coord_number>=8
group solid dynamic all var is_solid    # Must be dynamic to update
dynamic group solid defined

# do clustering
compute cluster solid cluster/atom 1.3 # Create a cluster where all atoms within are solid and max 1.3 units from another member

# define chunks one chunk per cluster
compute clus_chunks solid chunk/atom c_cluster nchunk every compress yes  # Says which atoms are in which chunk

# count the size of each chunk
compute size_chunks solid property/chunk clus_chunks count


# Find the maximum entry in the vector of chunk sizes
variable max_n equal max(c_size_chunks)


# Thermo style which includes this variable
thermo_style custom step temp pe vol v_max_n

thermo ${N}  # Print the thermo information every 100 steps
thermo 100  

# Reset the npt fix at a lower temperature (below freezing)
fix 1  all npt temp  ${temp} ${temp}  0.1  iso  5.68  5.68  0.5  mtk yes tchain  5  pchain  5
fix 1  all npt temp  1 ${temp}  0.1  iso  5.68  5.68  0.5  mtk yes tchain  5  pchain  5
fix 1  all npt temp  1 1  0.1  iso  5.68  5.68  0.5  mtk yes tchain  5  pchain  5

dump dmp2 all dcd ${N} traj_${rand}.dcd
dump dmp2 all dcd 100 traj_${rand}.dcd
dump dmp2 all dcd 100 traj_462431.dcd


# fix rnuntil all halt ${N} v_max_n >= 3980 error soft message no   # Stop when solidified


run 100000 # 5000000  # Run for this many steps
Neighbor list info ...
  update every 1 steps, delay 10 steps, check yes
  max neighbors/atom: 2000, page size: 100000
  master list distance cutoff = 3.8
  ghost atom cutoff = 3.8
  binsize = 1.9, bins = 9 9 9
  4 neighbor lists, perpetual/occasional/extra = 1 3 0
  (1) pair lj/cut, perpetual
      attributes: half, newton on
      pair build: half/bin/atomonly/newton
      stencil: half/bin/3d
      bin: standard
  (2) compute orientorder/atom, occasional
      attributes: full, newton on
      pair build: full/bin/atomonly
      stencil: full/bin/3d
      bin: standard
  (3) compute coord/atom, occasional
      attributes: full, newton on
      pair build: full/bin/atomonly
      stencil: full/bin/3d
      bin: standard
  (4) compute cluster/atom, occasional
      attributes: full, newton on
      pair build: full/bin/atomonly
      stencil: full/bin/3d
      bin: standard
Per MPI rank memory allocation (min/avg/max) = 9.490 | 9.493 | 9.498 Mbytes
Step Temp PotEng Volume v_max_n 
    4000    1.0068256   -6.2598463    4163.1334            4 
    4100   0.99505598   -6.2913372     4153.093            7 
    4200   0.98387241    -6.257535    4157.2828           11 
    4300    1.0055942   -6.2655905    4163.2098            3 
    4400     1.001323   -6.2525169    4156.6917            6 
    4500    1.0092015   -6.2343883    4147.2143            6 
    4600    1.0175394   -6.2330971    4135.2585            4 
    4700    1.0116863   -6.2545945     4141.944           10 
    4800    1.0301956    -6.308311    4152.1101            5 
    4900   0.97996723   -6.2771904    4147.8136            5 
    5000   0.98863443   -6.2597147      4154.25            3 
    5100    1.0029888   -6.2850835    4158.4678            6 
    5200   0.98954206   -6.2730616    4151.6161            5 
    5300   0.98714257   -6.2740266    4148.7413            4 
    5400    1.0069397   -6.2748831     4161.463            4 
    5500   0.98973535   -6.2973958    4153.6731           11 
    5600   0.98277252   -6.2979508    4167.0683            6 
    5700    1.0187848   -6.3060736    4164.5367            9 
    5800   0.98254217   -6.2993385    4154.9031            6 
    5900    1.0011063   -6.2920001     4163.639            7 
    6000    1.0017569   -6.2709537     4160.588            8 
    6100    1.0047898   -6.2929433    4147.4757            5 
    6200    1.0008733   -6.2907678    4162.2345            6 
    6300    1.0072898   -6.2840409    4164.4898            5 
    6400    1.0106781   -6.2847692    4157.7381            8 
    6500   0.98955391    -6.248442    4158.1266            4 
    6600    1.0062138   -6.2622326     4161.304            3 
    6700   0.99740224   -6.2659571    4159.2478            9 
    6800    1.0278897   -6.2522464     4168.148            4 
    6900    1.0082992   -6.2502074    4162.6919           11 
    7000   0.97945182   -6.2372049    4153.3362            7 
    7100   0.99002216   -6.2629712    4159.2819            4 
    7200    1.0020416   -6.2358998    4162.6007            8 
    7300   0.98832842   -6.2712266    4151.2924           10 
    7400   0.99861193    -6.278176    4160.8375           11 
    7500    0.9962524   -6.2453104    4155.3723            7 
    7600    1.0241236   -6.2578217    4164.5645            9 
    7700    0.9986232   -6.2372446    4173.6867            9 
    7800    1.0003932    -6.290109    4164.8606            6 
    7900   0.99113624   -6.2832948    4162.9238            5 
    8000    1.0065851    -6.281466    4165.0029            6 
    8100   0.95955675   -6.2594927    4157.8455            6 
    8200   0.99190317   -6.2711652     4156.253            9 
    8300    1.0225228   -6.2614492    4147.0493            7 
    8400    1.0201223   -6.2647221    4143.8172            7 
    8500    1.0036235   -6.2716239    4140.8676           12 
    8600    1.0135386   -6.2607946    4140.1426           10 
    8700   0.99868732   -6.2717735    4145.0008           13 
    8800   0.99746336   -6.2964454    4131.2877           12 
    8900    1.0008285   -6.2731997    4138.1338            9 
    9000    1.0258867   -6.2863555    4150.0736           21 
    9100   0.98857338   -6.2774627    4137.7804            7 
    9200    1.0016348   -6.2858096    4138.3193           11 
    9300     1.002716    -6.293449     4144.129            6 
    9400   0.99246099   -6.2501455    4156.4646           12 
    9500    1.0031705   -6.2213242    4169.0479            9 
    9600    1.0138053   -6.2863976    4166.9744            9 
    9700   0.99376535   -6.2914587    4163.5337            8 
    9800    1.0069471   -6.2860109    4161.0504            8 
    9900    1.0171371   -6.2492204    4161.2126            6 
   10000    1.0155452   -6.2759034    4172.9961            8 
   10100   0.99448173   -6.2823612    4166.7233            8 
   10200   0.98209881   -6.2546077    4160.5571            5 
   10300   0.99900235   -6.2606864    4162.6043            6 
   10400     1.007739   -6.2757801    4171.7262            2 
   10500   0.99958533   -6.2907991    4150.8469            5 
   10600   0.99898908   -6.2781813    4138.3428            6 
   10700    1.0066625   -6.2357674    4147.9178            4 
   10800    1.0330847   -6.2679803    4151.6876            7 
   10900   0.96463761   -6.2383873    4152.2491            4 
   11000    1.0021577   -6.2647283    4161.4284            6 
   11100    0.9960871   -6.2937006    4150.0038            6 
   11200   0.98458687   -6.2895713    4149.1674            9 
   11300    1.0000733   -6.2735302    4151.7104            5 
   11400      1.00248   -6.2998982    4150.0774            7 
   11500   0.98987043   -6.3193878    4136.9939            8 
   11600   0.99648662   -6.3021423    4152.0844            7 
   11700   0.98590968   -6.2827545    4170.1707            7 
   11800   0.98767753   -6.2590035    4168.1089            6 
   11900   0.99874769   -6.3030892    4149.7043            5 
   12000    1.0143662   -6.3098879    4141.6046            4 
   12100   0.99278068    -6.314154    4136.5054            5 
   12200    1.0019582   -6.3011266    4137.9176            4 
   12300    1.0001379   -6.2857752    4145.5124            8 
   12400   0.99478208   -6.2852355    4141.6684            7 
   12500   0.97225626    -6.247491     4129.107            9 
   12600     1.019568   -6.2829272    4140.2996            6 
   12700   0.97493014   -6.2762044    4146.3849            4 
   12800    1.0092439   -6.3200604    4146.2156            6 
   12900    1.0003763   -6.2745205    4149.7646            4 
   13000      1.00993   -6.2584679     4150.311            5 
   13100    1.0042836   -6.2871964    4138.2223           11 
   13200    1.0258891   -6.2991593    4142.2951           11 
   13300    1.0008678   -6.2922601    4136.7493            4 
   13400   0.99161972   -6.2811029    4139.8722            6 
   13500    1.0000107   -6.2577143    4142.3947            5 
   13600   0.98544989   -6.2890323    4142.1156            9 
   13700    1.0099553   -6.2733494    4142.0202            6 
   13800   0.98952427   -6.2636523    4140.9479            8 
   13900   0.99515785   -6.3056982    4127.6023            4 
   14000   0.99587509   -6.2505844    4146.5515            3 
   14100    1.0145701   -6.2690713    4149.0135            2 
   14200   0.99772346   -6.2890435    4136.1051            6 
   14300    1.0062615   -6.2713795    4136.4497            3 
   14400    1.0198079   -6.2507232    4147.5312            3 
   14500    1.0166166   -6.2907415    4142.2675            7 
   14600    1.0057008   -6.2911339     4137.937            7 
   14700    1.0154312   -6.2707013    4154.3453           10 
   14800    1.0061287   -6.2658884    4164.1675            4 
   14900   0.99610863   -6.2881012    4155.5859            8 
   15000   0.96708176   -6.3057889    4144.5645           13 
   15100   0.99059754   -6.2880379    4153.6317           23 
   15200   0.99527625   -6.2830124    4158.3994            9 
   15300   0.97817022   -6.3085262    4144.7088            6 
   15400   0.98598352   -6.2702535    4151.1332            4 
   15500    0.9857493    -6.230174    4149.3818            4 
   15600    1.0447489   -6.2777402    4151.7953           11 
   15700   0.99186629   -6.2496543     4143.121           22 
   15800    1.0006668   -6.2626423    4135.1725            7 
   15900   0.99769595   -6.2586259    4136.1221            5 
   16000     1.021544   -6.2702314    4159.6599            5 
   16100   0.98762121   -6.2555188    4169.4607            5 
   16200     1.013037   -6.2379511    4175.1033            4 
   16300    1.0017625   -6.2373139    4166.2656            4 
   16400   0.98572259    -6.253593    4152.1287            6 
   16500    1.0175541   -6.2780758    4166.8992            4 
   16600    0.9931669   -6.2564584    4163.6647            3 
   16700     1.002396   -6.2834712    4153.0831            4 
   16800   0.98880146   -6.3066725    4140.7029            5 
   16900    1.0090488   -6.2856818     4143.497            8 
   17000    1.0020007   -6.2703787      4154.58            4 
   17100    1.0073577   -6.2629141    4147.6771            3 
   17200   0.99546316   -6.2658404    4155.9142            6 
   17300   0.98735746   -6.2593663    4153.2772            8 
   17400   0.98426024   -6.3008846    4153.2405            5 
   17500    0.9855261   -6.2788441    4156.4111            3 
   17600    1.0185673   -6.2795274    4148.2613            5 
   17700   0.99864724   -6.2676605    4137.2814            4 
   17800    1.0051213   -6.2752834    4140.1006            3 
   17900   0.98461143   -6.2908802    4136.7467            4 
   18000   0.99576847   -6.2680113    4144.2092            5 
   18100     1.022016   -6.2448254    4142.0033            6 
   18200    1.0049318   -6.2587471     4137.664            3 
   18300    1.0046022   -6.2618454    4139.9145            6 
   18400    1.0140642   -6.2659825    4143.6261            4 
   18500   0.99651564   -6.2722085    4145.9371            5 
   18600   0.99935814   -6.3036227    4135.5978            6 
   18700   0.99284582   -6.2845435    4132.3038            6 
   18800    1.0061072    -6.268439    4144.3983            6 
   18900    1.0443197      -6.2933    4146.7698            6 
   19000   0.98980695   -6.2627359    4149.1288            9 
   19100    1.0121553   -6.2636919    4160.7545            7 
   19200   0.97740974   -6.2555977     4159.439            4 
   19300    1.0015694   -6.2879349    4153.1797           12 
   19400   0.97523733   -6.2884814    4140.3684            3 
   19500   0.98745923   -6.2625242    4149.8548            6 
   19600    1.0064602   -6.2471893     4169.043            7 
   19700   0.97862585   -6.2356305    4169.9264            5 
   19800    1.0023708   -6.2575181    4164.1275            4 
   19900   0.97833031    -6.272804    4156.8386            7 
   20000   0.99490783   -6.2780428     4159.334            6 
   20100    1.0219303   -6.2897393    4156.7027            5 
   20200    1.0199803   -6.2923839    4151.5623            7 
   20300    0.9829237   -6.2771351    4151.5858            6 
   20400   0.98852008   -6.2970027    4152.6264            2 
   20500    1.0012535   -6.3017769    4157.7294            5 
   20600   0.98394223   -6.2555455    4160.6791            5 
   20700    1.0031912   -6.2502609    4169.4373            5 
   20800   0.99851838   -6.2738372    4162.5819            6 
   20900   0.99087869   -6.2757573    4145.2469            8 
   21000   0.99104169   -6.2644289    4162.3077            5 
   21100   0.99958082   -6.2817689    4155.5825            5 
   21200   0.99224652    -6.287582    4149.7436            4 
   21300    1.0004531   -6.2860119    4144.1564            4 
   21400     1.008721   -6.2533292    4141.8261            2 
   21500    1.0312407   -6.2573166    4155.2356            3 
   21600    1.0064081   -6.2776902     4150.261            3 
   21700    1.0208859   -6.2954281    4141.1734           11 
   21800   0.99319455    -6.268811    4139.9409            5 
   21900    1.0152499   -6.2699488    4150.5653            3 
   22000   0.97722159   -6.2538923     4150.481            5 
   22100    1.0282974   -6.2933028    4140.0839            6 
   22200   0.97586219   -6.2744375    4150.9559            6 
   22300   0.98174065   -6.2657463    4157.7172            4 
   22400    1.0042739   -6.2773301    4158.9548            8 
   22500   0.98911423   -6.2683526    4155.1196            7 
   22600   0.98927747   -6.2832388    4162.4515           10 
   22700    1.0019382   -6.2778411    4165.1563            5 
   22800   0.98255444    -6.276033    4159.0127            7 
   22900   0.99175884   -6.2705613    4169.3451            5 
   23000   0.99886382   -6.2687677    4171.2312            7 
   23100   0.99480573   -6.2696402    4161.7565            3 
   23200   0.99829039   -6.2904763     4154.481            9 
   23300    1.0069801   -6.2825393    4158.3087           10 
   23400   0.97316747   -6.2523782    4161.5911            6 
   23500   0.99920743   -6.2928057    4153.5065            4 
   23600    1.0192547   -6.2730415      4158.89            8 
   23700   0.99000294   -6.2706658    4163.5121           11 
   23800   0.95686299   -6.2521732    4163.3764           19 
   23900    1.0068454   -6.2803762    4159.9664           10 
   24000    1.0020227   -6.2466052     4170.805           10 
   24100   0.99682713   -6.2850001    4143.7652            8 
   24200    1.0132604   -6.3006854    4155.4791           10 
   24300    1.0048229   -6.2809694    4154.3103           13 
   24400   0.99670013   -6.2660942     4155.374            6 
   24500    1.0053528   -6.2563731    4156.2131            9 
   24600    0.9974699   -6.2776546    4145.1573            8 
   24700   0.98132982   -6.2916087    4137.5978            8 
   24800    1.0059136   -6.2888488    4142.2782            8 
   24900   0.99334039   -6.3010737     4164.506            5 
   25000    1.0012014   -6.2658947    4160.9664            5 
   25100   0.98565707   -6.2611867     4168.044            6 
   25200    0.9975672   -6.2523113    4171.2489            5 
   25300   0.98833232   -6.2591788    4157.7541            4 
   25400   0.99566782   -6.2809956    4154.9557            4 
   25500    1.0165336   -6.2640171    4155.1752           11 
   25600    0.9931716   -6.2576463    4159.7282           17 
   25700   0.99598753   -6.2305167     4163.785            7 
   25800    1.0143324   -6.2640421    4156.4458            7 
   25900   0.98539288   -6.2773218    4149.4391            6 
   26000    1.0020846   -6.2816191    4148.6841            7 
   26100   0.97892184   -6.2979847    4144.5119            9 
   26200    1.0013143   -6.2995249    4152.1211            7 
   26300    1.0100758   -6.2932228     4154.858            8 
   26400    1.0286866   -6.2824111    4156.8853            7 
   26500   0.98495541   -6.2488606     4158.399            4 
   26600   0.99215992   -6.2730671    4145.8951            8 
   26700   0.99557423   -6.2280371    4169.4675            4 
   26800    1.0009761   -6.2517063    4157.1899            5 
   26900   0.99160931   -6.2612137    4153.4972            9 
   27000    1.0271895   -6.2859176    4165.5648            9 
   27100   0.98670542   -6.2565876    4152.5085            6 
   27200   0.98917319   -6.3020708     4147.779            7 
   27300    1.0041849   -6.2811786     4146.236            4 
   27400   0.99583272   -6.2609497    4160.1291            4 
   27500    1.0028542   -6.2482667    4162.2774            5 
   27600    1.0021322   -6.2702903    4162.0846            4 
   27700   0.96446807   -6.2489704    4147.0386            5 
   27800    1.0103204    -6.266147    4150.7752            3 
   27900    1.0061444   -6.2820331    4147.7799            6 
   28000   0.99413306   -6.2731441    4156.1855            5 
   28100   0.98398155   -6.2371844    4151.3427           13 
   28200    1.0193896   -6.2154872    4156.2878            6 
   28300   0.99734008   -6.2216365    4162.9472            4 
   28400    1.0088968   -6.2777992    4154.2324            6 
   28500   0.99120579   -6.2654837    4147.3397            5 
   28600     1.018791   -6.2714981    4159.6627            5 
   28700    1.0061278   -6.2373039    4150.7503           11 
   28800    1.0184486   -6.2461241    4149.9775           10 
   28900    1.0047511   -6.2790184     4147.455            9 
   29000   0.99888582    -6.274432     4149.401            5 
   29100   0.97304173   -6.2701073    4151.0135            5 
   29200    1.0111467   -6.2797304    4156.9318            5 
   29300   0.97874851   -6.2303089    4160.7416            5 
   29400   0.99582256   -6.2587875    4151.4778            4 
   29500    1.0048146   -6.2622596    4140.4633            9 
   29600    1.0445111   -6.2732534    4140.5932            7 
   29700    1.0023204   -6.2300248    4134.9203           10 
   29800    1.0132687   -6.2591102    4130.1092            7 
   29900    1.0376781   -6.2790765    4143.0521            4 
   30000   0.99826119   -6.2538465    4151.9965            9 
   30100    1.0249933   -6.2590212    4168.8757           11 
   30200   0.99599053   -6.2698762     4155.971            4 
   30300    1.0093597   -6.2686431    4158.5719            9 
   30400    1.0220786   -6.2506298    4165.3981            2 
   30500    1.0017462   -6.2280876    4172.6834            4 
   30600   0.99361689   -6.2606111    4152.6586            4 
   30700   0.99325683   -6.2877732    4148.6646            6 
   30800    1.0017404   -6.2586779    4147.7795            5 
   30900    1.0023504    -6.226735    4159.1429            3 
   31000   0.97971406    -6.240919    4161.5464            8 
   31100   0.98552575   -6.2433951    4147.5866            5 
   31200    1.0067496   -6.2654575    4150.5593            3 
   31300     1.013171   -6.2464709    4152.1521            6 
   31400    1.0132006   -6.2670595    4146.4575            5 
   31500   0.98608251   -6.2719115    4141.5948            5 
   31600    1.0151102   -6.2673959    4157.5215            7 
   31700   0.99042896   -6.2544473    4155.4107            4 
   31800    1.0101674    -6.276418    4143.7329            4 
   31900    1.0012088   -6.2858334    4149.5073            5 
   32000   0.99011078   -6.3156526    4142.1034            4 
   32100   0.99908075   -6.2842503    4158.3134            5 
   32200    1.0012172   -6.2649911    4155.9062            6 
   32300    1.0006775   -6.2875636    4145.2736            3 
   32400   0.99780207   -6.2720902    4146.7073           12 
   32500    1.0070426   -6.2768034    4148.7231            9 
   32600   0.97208087   -6.2538558    4145.4416           12 
   32700    1.0133379    -6.264066    4159.4104            8 
   32800    1.0043653   -6.2724546    4157.5503            6 
   32900   0.99201362   -6.2947705    4150.8246            7 
   33000    1.0086236   -6.2701991    4148.7069           10 
   33100   0.99098935   -6.2753044    4140.8611            6 
   33200   0.99142295   -6.2995568    4144.7575            4 
   33300    1.0045665   -6.2902309    4149.8719            9 
   33400    1.0072693   -6.2750942    4163.7955            5 
   33500   0.99831585   -6.2743517    4166.7061           11 
   33600   0.99965222   -6.2806765     4159.327            6 
   33700   0.97571696    -6.275414    4138.9265           10 
   33800    1.0173514   -6.2848035     4151.814            7 
   33900    0.9896366   -6.2857062    4150.9693            3 
   34000    1.0032796   -6.2608073    4152.9224            4 
   34100    1.0062395   -6.2543379     4152.399            8 
   34200    1.0002605   -6.2707345    4146.6897           10 
   34300    0.9864519   -6.3031497    4143.5849            6 
   34400   0.99912612   -6.2873309    4154.6172           11 
   34500    0.9849285   -6.2448001    4160.9435            6 
   34600   0.99175629   -6.2489518    4169.5616            3 
   34700    1.0021485   -6.2817458    4170.5213            4 
   34800   0.99168664   -6.2820354    4168.2151            4 
   34900   0.99062584    -6.281742    4162.3937            3 
   35000   0.99158589    -6.277903     4152.413            3 
   35100    1.0045827   -6.2831137    4150.6138            3 
   35200    1.0047531   -6.2951802    4145.4023            3 
   35300   0.99695602    -6.250017    4145.5956            4 
   35400     1.016823   -6.2581546    4143.3861            9 
   35500   0.98787301   -6.2694565    4139.9937           10 
   35600       1.0036    -6.259641    4151.3282            7 
   35700    1.0281854   -6.2816829    4153.7369            5 
   35800   0.97123664   -6.2500232    4154.5576            6 
   35900    1.0066498   -6.2554387    4159.6062            4 
   36000   0.98583781    -6.280308    4158.9478            4 
   36100   0.96952457   -6.2686988    4149.5106           11 
   36200   0.99769609   -6.2730531    4151.5221           15 
   36300    1.0201776   -6.2811344    4152.9159            7 
   36400    1.0039987   -6.2614498    4152.7624            5 
   36500    0.9991458   -6.2868281    4146.3412           10 
   36600   0.99550029   -6.3077679    4140.2247           16 
   36700   0.99403463   -6.2465192    4162.2872           12 
   36800   0.97968143    -6.255092      4175.51           10 
   36900    1.0036836   -6.2412211    4171.4461           13 
   37000   0.99679971   -6.2794225     4149.906            5 
   37100    1.0076525   -6.2841449    4148.7176            5 
   37200   0.99752616   -6.2659616    4145.5417           13 
   37300    1.0073349   -6.2592757    4145.0712           10 
   37400     1.003647   -6.3123919    4141.5319            8 
   37500   0.97658887   -6.2634023    4149.2566            8 
   37600    1.0120629   -6.2808728    4158.5971            5 
   37700   0.97429536   -6.2826279    4154.7722            5 
   37800   0.97066082   -6.3117489    4147.0154            3 
   37900    0.9829513   -6.2944672    4154.1241           10 
   38000    0.9980194   -6.2728352    4152.1138            6 
   38100    1.0128788   -6.2599413    4163.2181            6 
   38200   0.98588451   -6.2331169    4158.7063            5 
   38300    1.0049584   -6.2876163    4150.5946            6 
   38400   0.99087346   -6.2767046    4150.6469            7 
   38500   0.97504986   -6.2576846    4144.9591            5 
   38600    1.0124905   -6.2438567    4148.8656           11 
   38700    1.0170746   -6.2973654    4153.3307            8 
   38800   0.98914334   -6.2996312     4152.942            6 
   38900    1.0037449   -6.2674878    4157.6323            6 
   39000   0.97907918   -6.2660819    4158.0572           14 
   39100   0.98993069   -6.2622509    4161.1096            5 
   39200   0.99822284     -6.24432    4162.4762            4 
   39300   0.99614751   -6.2958715    4147.2897            6 
   39400    1.0187248   -6.2918951    4148.0893            3 
   39500    1.0039006    -6.239105    4149.5931           17 
   39600    1.0163751   -6.2200134    4167.1005            5 
   39700     1.006949    -6.238258    4154.0938            9 
   39800    1.0036907   -6.2731108    4150.3717            7 
   39900   0.99492109   -6.2909716    4160.6982            8 
   40000   0.99033212    -6.240272    4162.8346            4 
   40100   0.99377266   -6.2814338    4165.9421            4 
   40200   0.97453808   -6.2902583    4151.6997            5 
   40300   0.98212653   -6.2872456    4156.9374           11 
   40400    1.0091543   -6.2743703    4159.1461            8 
   40500    0.9983953   -6.2846428    4147.7235            9 
   40600    0.9849564   -6.3123254    4141.4878            4 
   40700     1.004426   -6.3121803    4148.1267            6 
   40800   0.99554628   -6.2778982    4147.4879           11 
   40900    1.0223773   -6.2639912    4153.9447            4 
   41000   0.99240872   -6.2512529    4149.1943            7 
   41100   0.98773541   -6.2732883    4128.9657            6 
   41200    1.0149595   -6.2648982    4151.5811            5 
   41300   0.98570418    -6.252611    4151.2495            6 
   41400   0.96873293   -6.2774608    4155.2524            7 
   41500    1.0024805    -6.267452    4160.9072            8 
   41600   0.99507908     -6.28205    4154.2226            7 
   41700   0.98233126   -6.2986458    4149.5697            5 
   41800   0.98706456   -6.2500085     4160.825            7 
   41900   0.99166039   -6.2711116    4158.6616            7 
   42000   0.99261586   -6.3130789    4134.9474            8 
   42100    1.0079056   -6.3068639    4148.3487            6 
   42200   0.99845815   -6.2765154     4151.108            3 
   42300   0.99483656   -6.2751358    4145.9215            9 
   42400   0.99979433   -6.2492032    4159.1835            4 
   42500   0.99858054   -6.2797162    4158.2759            7 
   42600    1.0057661   -6.3171334    4148.0138            5 
   42700   0.99204001   -6.2733854    4156.8507            3 
   42800   0.99661883   -6.2627095    4162.3864            5 
   42900   0.97522802   -6.2864659    4157.2387           11 
   43000   0.98203072    -6.271301     4154.019            5 
   43100   0.99913386   -6.2571465    4156.5335            5 
   43200    1.0040259   -6.2589423    4160.1594            5 
   43300    1.0267279   -6.2708924    4151.2277           12 
   43400    1.0056062   -6.2914642    4153.7048            6 
   43500    1.0069551   -6.2465945    4156.3356            9 
   43600   0.99931703   -6.2308634    4159.0973            6 
   43700    1.0023845   -6.2474178     4154.843            5 
   43800   0.99560825   -6.2547724    4148.5464            5 
   43900    1.0126499    -6.270932    4153.4602            3 
   44000    1.0069653   -6.2788459    4149.2257            5 
   44100   0.97562128   -6.2833529    4141.8314            5 
   44200   0.98108088   -6.2682346     4150.457            6 
   44300   0.99663129   -6.2437946    4154.6819            4 
   44400    1.0181532   -6.2691108    4146.0077            3 
   44500    1.0071577   -6.2849902    4156.7669            4 
   44600   0.99479758   -6.2549328    4161.4612            4 
   44700    0.9926875   -6.2489356    4157.1275            7 
   44800   0.98628682   -6.2830045    4159.0378           12 
   44900    1.0109989    -6.277705    4172.8879            4 
   45000   0.98497545   -6.2609242    4178.9558            5 
   45100   0.98523413   -6.2914338    4157.4384            3 
   45200   0.99376765   -6.2612072     4164.285            3 
   45300    1.0085968   -6.2625552    4159.2536            5 
   45400   0.98185684    -6.243139    4154.2105            6 
   45500   0.99937145   -6.3106812     4139.385           10 
   45600    0.9839848   -6.2877074    4143.7041            7 
   45700   0.99676428   -6.2701412    4149.2205            6 
   45800   0.98507804    -6.279595    4157.1066            4 
   45900    1.0015157   -6.2629958      4166.56            7 
   46000    1.0145834   -6.2519863    4166.9172            5 
   46100   0.98952778   -6.2596806    4168.3109            4 
   46200   0.99633191   -6.2824779    4180.9923            8 
   46300   0.98936621   -6.2739677     4179.645            4 
   46400   0.97151751   -6.2795604    4162.7613            4 
   46500   0.99562247    -6.279796    4160.8736            6 
   46600    1.0112346   -6.2579406    4170.0253           11 
   46700    1.0118559   -6.2646088    4162.6621           11 
   46800   0.99012419   -6.2445175    4153.6893            7 
   46900     1.016799   -6.2295642    4159.3959            6 
   47000    1.0017823   -6.2643463    4150.3863            6 
   47100   0.99539118   -6.2776197    4150.5694           13 
   47200    1.0000978   -6.2341849    4159.2073            8 
   47300   0.99419851   -6.2502244    4157.0579            6 
   47400    1.0060226   -6.2690853    4153.3269           10 
   47500      0.99596   -6.2710541    4155.3595            6 
   47600    1.0037664   -6.2506477    4158.0299            6 
   47700   0.99944107   -6.2696818    4155.7226            3 
   47800    1.0060501    -6.275994    4151.2924            9 
   47900     1.019914   -6.2708947    4158.2069            7 
   48000   0.98544886   -6.2587873    4161.1739           11 
   48100     0.998291   -6.2689954    4154.5331            8 
   48200   0.96979443   -6.2610706    4138.5885            6 
   48300    1.0179061   -6.2906493     4150.495            8 
   48400   0.99155387   -6.2683741    4146.6851            7 
   48500    1.0212504   -6.2766318    4144.9554            5 
   48600    1.0044175   -6.2688337    4152.3102            4 
   48700    1.0020503   -6.2468915    4152.9279            7 
   48800    1.0118116   -6.2300328    4161.3004            9 
   48900   0.99518523   -6.2511351    4140.3622            6 
   49000    1.0082684   -6.2482134    4142.0884            3 
   49100    1.0131568   -6.2463002    4150.0842            3 
   49200    1.0063817    -6.267728    4143.0483            5 
   49300    1.0141533   -6.2519787    4149.3346            4 
   49400   0.99255468   -6.2499947    4168.1133           12 
   49500    0.9897049   -6.2599466    4156.0238            9 
   49600   0.98521074    -6.285598    4146.1824           14 
   49700    1.0051075   -6.2825127    4140.6771           12 
   49800   0.99764785   -6.2633237    4143.7167            6 
   49900   0.99900624   -6.2769277    4158.5414            7 
   50000   0.99889625   -6.2907058    4145.2951            5 
   50100    1.0086144   -6.2933603    4144.3607            8 
   50200    1.0138296   -6.2991743    4144.2732            9 
   50300    1.0150571   -6.2666111    4141.6371            4 
   50400    0.9794603   -6.2642767    4147.8257            5 
   50500    0.9834062   -6.2592883    4146.1954            8 
   50600   0.99965296   -6.2400341    4162.8463            4 
   50700    1.0081755   -6.2691253    4157.2707            8 
   50800    0.9995691   -6.2722445    4155.2964            8 
   50900   0.99588828    -6.250859    4158.2112            4 
   51000    1.0111429   -6.2374984    4162.6067            3 
   51100   0.99113436   -6.2542179    4153.7262            5 
   51200    1.0017678   -6.2663755    4159.6112            3 
   51300    1.0037959   -6.2417204    4167.8588            4 
   51400    1.0207941   -6.2521749    4160.0577            6 
   51500    1.0007992   -6.2762502    4142.9526            4 
   51600   0.99734551   -6.2968425    4144.7035           12 
   51700    1.0106124   -6.2835528    4148.2504            5 
   51800    1.0249899   -6.2655289     4150.842           13 
   51900   0.99271178   -6.2635418    4144.9822           15 
   52000    1.0027962   -6.2482315    4145.5817            7 
   52100   0.99231119   -6.2483585     4144.757            5 
   52200   0.99360029   -6.2606152    4138.9698            3 
   52300    1.0063782   -6.2886904     4144.768            9 
   52400    1.0151356   -6.2822451    4145.3333           15 
   52500   0.97516919   -6.2601733    4137.6406           15 
   52600    1.0159646   -6.2736554    4134.7597           14 
   52700     0.997364   -6.2466464     4133.495            4 
   52800    1.0120436   -6.2638765     4141.593            7 
   52900   0.99863467   -6.2774195    4154.9901            6 
   53000   0.98193411   -6.2768156    4140.5778            6 
   53100    1.0207634   -6.2948635    4151.8956            3 
   53200   0.99456059   -6.2663191     4153.945            3 
   53300   0.99085092   -6.2635079    4156.8545            6 
   53400    1.0038235   -6.2921642     4154.293            4 
   53500   0.97796132   -6.2846254    4146.9352           10 
   53600    1.0073601   -6.2825889    4151.6149            5 
   53700   0.99142714   -6.2726812    4158.5122            3 
   53800    1.0037367   -6.2815922    4156.7389            5 
   53900     0.978616   -6.2684349    4153.7282            4 
   54000    1.0133395   -6.2809722    4156.9876            8 
   54100   0.99705601   -6.2794172    4150.5523            3 
   54200   0.99638814   -6.2532845    4146.1514           10 
   54300    1.0065431   -6.2561877    4135.5231            7 
   54400   0.99490311   -6.2595674    4139.1019            8 
   54500   0.98918263   -6.2401502    4156.3545           13 
   54600   0.97908998   -6.2519527    4150.5752            6 
   54700   0.99377323   -6.2642591    4150.0154            5 
   54800    1.0121091   -6.2334421     4146.913            7 
   54900    1.0084937   -6.2727098    4146.7604            7 
   55000    1.0061635   -6.2762876    4138.0074            4 
   55100    1.0007063   -6.2522528    4141.4925            9 
   55200   0.99858529   -6.2418843    4151.8079            7 
   55300   0.99471138   -6.2461676    4156.0402           11 
   55400   0.98917192   -6.2978091    4146.4177            7 
   55500    1.0114199   -6.2981087    4160.3527            7 
   55600   0.99091077   -6.2575556    4160.5003           10 
   55700    1.0021675   -6.2551279     4175.066           10 
   55800    1.0064187   -6.2557752    4173.4894            6 
   55900   0.99379279   -6.2630408    4159.5127            3 
   56000   0.99653733   -6.2747581    4145.2469            6 
   56100   0.99905998   -6.2584554     4151.044            7 
   56200    1.0133346   -6.2476043    4152.4832            8 
   56300    1.0185876   -6.2790292    4143.0775            8 
   56400   0.99522551   -6.2764159    4133.2913            7 
   56500    1.0233709   -6.2710805    4141.7511            7 
   56600    1.0079687   -6.2365632    4140.4656            6 
   56700    1.0040527   -6.2791888    4137.0348            4 
   56800   0.99712881   -6.2903031    4138.5974            9 
   56900    1.0090607   -6.2786033    4154.2046            7 
   57000    1.0031497   -6.2411418    4144.2829           17 
   57100    0.9917227   -6.2727988    4136.9206           13 
   57200    1.0178638   -6.2789379    4149.1051            5 
   57300    1.0172705   -6.2671077    4150.2955            7 
   57400    0.9964417   -6.2845845    4149.4077            8 
   57500    1.0125726   -6.2835646    4147.4642           10 
   57600    0.9782496   -6.2684508    4138.7628            8 
   57700    1.0079405   -6.2975646    4146.1733            6 
   57800    0.9940258   -6.2937291    4141.7436            5 
   57900    1.0078853    -6.283939    4141.2298            7 
   58000    1.0123618   -6.2908583    4145.3901            3 
   58100   0.99077067   -6.2964341    4141.0169            6 
   58200    1.0097136   -6.2842668    4160.1452            7 
   58300   0.98152978   -6.2835419    4164.9839           10 
   58400    1.0093517   -6.2847688    4164.0384            7 
   58500   0.99009895   -6.2849647    4160.2197            5 
   58600   0.99880438   -6.2956774     4153.839            4 
   58700    1.0104069   -6.2790626    4157.3267            6 
   58800   0.99387123    -6.299101    4152.5874            8 
   58900   0.99798807   -6.2920921    4147.5539            7 
   59000   0.99996008   -6.2546245     4156.546           13 
   59100   0.98487085   -6.2644334    4153.8119            6 
   59200   0.98954757   -6.2870618    4151.5478            8 
   59300   0.99841429   -6.2522252    4149.7843            8 
   59400   0.99807399   -6.2851852    4154.9764            5 
   59500    1.0160524   -6.2475394    4149.7723            7 
   59600   0.99969967   -6.2580781     4155.389            4 
   59700   0.98511492   -6.2484133    4160.0874            4 
   59800    1.0084706   -6.2925377    4151.4837            5 
   59900    1.0032404   -6.2717546    4172.9051            7 
   60000    1.0227031   -6.2603329    4177.8144           10 
   60100    0.9889796   -6.2465362    4159.5658            6 
   60200    1.0014139   -6.2772162    4151.1332            6 
   60300   0.99153862   -6.2995847    4146.6129            4 
   60400   0.99716767   -6.2626991    4153.1407           11 
   60500   0.99077479   -6.2373562    4168.1221           13 
   60600    1.0085462   -6.2424917    4172.8642           14 
   60700   0.98103044   -6.2378969    4170.2045            7 
   60800    1.0129212   -6.2622671     4167.218            7 
   60900   0.98515524    -6.269662    4157.6821            7 
   61000     1.009254   -6.2932683    4146.8844            9 
   61100    1.0006801    -6.297565    4129.3561            5 
   61200    1.0196928   -6.2806141    4143.1296           11 
   61300    1.0117479   -6.2780929    4145.5934            5 
   61400    1.0020335   -6.2639524    4140.4547            8 
   61500   0.99899956   -6.2750423    4140.2302            5 
   61600   0.99090963   -6.2708774     4137.678            9 
   61700   0.99851087   -6.2455095    4156.9393           11 
   61800    1.0143618    -6.275569    4146.4655            6 
   61900   0.99492279   -6.2664421    4145.5807            7 
   62000   0.99818668   -6.2576837    4141.7611            8 
   62100   0.99282636   -6.2639285    4141.9772           17 
   62200   0.99143645   -6.2894467    4137.5814            5 
   62300    1.0071119   -6.2673109    4165.9787            6 
   62400   0.98670418   -6.2542574    4162.1159            5 
   62500   0.99278382   -6.2859353    4154.3981            9 
   62600   0.99381997   -6.2953243    4139.9688           13 
   62700   0.99839308   -6.2571952    4154.9148            8 
   62800    1.0037984   -6.2497743    4150.0125            7 
   62900    0.9838661   -6.2567585    4142.5453            5 
   63000    1.0189555    -6.289264    4148.7053            3 
   63100   0.97613519   -6.2663751    4149.0149            7 
   63200    1.0195205   -6.3136032    4144.7811            5 
   63300   0.98558838    -6.300122    4134.9638            5 
   63400     1.004743   -6.2787009    4137.6285            5 
   63500    1.0006904   -6.2855422    4140.2248            4 
   63600     1.021067   -6.3054606    4140.4137            5 
   63700    1.0020172   -6.2594294    4154.1437            6 
   63800   0.99127234   -6.2738515    4150.7609            4 
   63900   0.99531897   -6.2555391    4154.3754            6 
   64000    1.0165576   -6.2890067    4149.6974           10 
   64100    1.0100791   -6.2820535    4143.2874           12 
   64200    1.0185747   -6.2477204    4156.2719            6 
   64300    1.0019383   -6.2479357    4162.0792           10 
   64400   0.98968799    -6.284819    4165.1185           12 
   64500   0.98209549   -6.2817958    4174.4337            5 
   64600   0.98227897   -6.2652266    4164.4217            8 
   64700    1.0002366   -6.2894053    4151.0582            4 
   64800    1.0023758   -6.2997729    4146.4674           10 
   64900    1.0321909    -6.305381    4147.2847            8 
   65000   0.98713709   -6.2798574    4139.6563           19 
   65100    1.0076906   -6.3010204    4141.6314            5 
   65200    1.0210669   -6.2778936    4159.1757            7 
   65300   0.99454623   -6.2710282    4154.1246            8 
   65400   0.99299461   -6.2439783    4137.7021            8 
   65500   0.99517282   -6.2928413    4134.0674           11 
   65600    1.0003366   -6.2761864    4155.1043            4 
   65700    1.0027497   -6.3047666    4163.6811            6 
   65800   0.99572661   -6.2964357    4157.6027            5 
   65900    0.9817964   -6.2859448    4143.9833            5 
   66000   0.99778834   -6.2594314    4152.3745            4 
   66100    1.0013393   -6.2408163    4147.1366            6 
   66200    1.0023692   -6.2406577    4131.6789            6 
   66300      1.01252   -6.2335692    4145.3505           10 
   66400    1.0159413   -6.2765401    4145.5762            4 
   66500   0.99018739   -6.2797433    4149.2677            6 
   66600   0.99929454    -6.252353    4165.0615            7 
   66700    1.0040098   -6.2254738    4170.4777            4 
   66800    1.0074538   -6.2741733    4150.6249            5 
   66900    1.0094389   -6.2857258    4154.8188            7 
   67000   0.99635584   -6.2471723     4169.639            9 
   67100    1.0004424   -6.2476457     4177.624            5 
   67200   0.98851201   -6.2584023    4154.1249            8 
   67300    0.9994843   -6.2688259    4152.6402            6 
   67400    1.0307098   -6.2671861    4156.3017           12 
   67500    1.0101042   -6.2882138    4151.2805            6 
   67600    1.0038245   -6.2788523    4146.4221            5 
   67700    0.9953285   -6.2870621    4147.9906            8 
   67800    1.0027129   -6.2647421    4164.4199           10 
   67900    1.0126763   -6.2522057     4161.577            9 
   68000   0.98559435   -6.2546286    4158.1606            9 
   68100   0.98898241   -6.2883563    4144.1267           11 
   68200    1.0100582   -6.2677391    4143.8368           18 
   68300   0.98794751   -6.2511121    4157.6644            9 
   68400    1.0060813   -6.2225169    4157.8812           12 
   68500    1.0000988   -6.2593271    4156.0603            9 
   68600    1.0076062   -6.2635151    4150.8905           10 
   68700    1.0076995   -6.2575023    4147.9422           13 
   68800   0.97822343   -6.2676871    4147.1874            6 
   68900     1.010175   -6.2864869    4155.1394            6 
   69000     1.000813   -6.2697062    4152.8234            9 
   69100    1.0139386   -6.2755871    4147.5014            5 
   69200   0.99030691    -6.261747    4141.3672            9 
   69300    1.0082778   -6.2528097     4154.746            5 
   69400     1.000971   -6.2724483    4155.8445            2 
   69500    1.0029029   -6.2669441    4148.7838            6 
   69600   0.98430607   -6.2741522    4145.5136            5 
   69700    1.0280401   -6.3071695    4151.0095            7 
   69800   0.99407964   -6.2989209     4153.499            5 
   69900    1.0068353   -6.2973441    4153.3522            6 
   70000    1.0034046   -6.2527424     4156.678            6 
   70100     1.016129   -6.3048363    4155.3134            5 
   70200   0.97674781   -6.2963595    4156.6236            5 
   70300    1.0019873   -6.2817005    4153.7392            4 
   70400    1.0130688   -6.2852207    4144.9762            5 
   70500   0.98855744   -6.2647603    4143.1013            8 
   70600    1.0100757   -6.2760393    4153.1849            4 
   70700    1.0064943   -6.2434451    4162.5455            5 
   70800    1.0061523   -6.2721093    4152.6854            5 
   70900    1.0245368   -6.2831869    4146.6714            6 
   71000     1.006094   -6.2929811    4126.2967           10 
   71100    1.0105892   -6.2919783    4136.3585            9 
   71200    1.0269284   -6.2751637    4137.4475            5 
   71300   0.99535702   -6.2608217    4137.8459            4 
   71400   0.99003746   -6.2632257    4148.4256            6 
   71500    1.0062402   -6.2627058    4150.3911            4 
   71600   0.99436654   -6.2741006    4151.6238            7 
   71700    1.0090343   -6.2818149    4154.1114            7 
   71800   0.99741064   -6.2970637    4146.6572           18 
   71900   0.98918478   -6.2962335    4141.6605            9 
   72000    1.0044007    -6.274348    4157.7037            6 
   72100   0.98306495   -6.2651491    4164.6203            7 
   72200    1.0331094   -6.2843691    4167.2708           10 
   72300    1.0000086   -6.2828809     4158.665            7 
   72400    1.0004178   -6.3085878    4157.4624            4 
   72500    0.9850859    -6.259112    4168.5942            7 
   72600   0.97381412   -6.2411844    4179.9125            4 
   72700    1.0066154   -6.2633975    4176.8584           10 
   72800    1.0022831   -6.2936961    4157.1929            9 
   72900   0.99609188   -6.2912068    4141.0858           14 
   73000   0.99303701   -6.2975042    4133.6151            9 
   73100   0.99438204   -6.2674438    4144.0219           11 
   73200    1.0139503   -6.2848967    4147.9903            6 
   73300   0.97709535   -6.2807936     4147.378            8 
   73400    1.0064857   -6.2753589    4147.4217           10 
   73500   0.99783704   -6.2480183    4143.9091            7 
   73600     1.000281   -6.3038336    4140.0944            6 
   73700   0.99744769   -6.3171658    4155.1742            7 
   73800    0.9949895   -6.2710222    4154.0581            3 
   73900   0.98390831    -6.294937    4138.2217            3 
   74000     1.007701   -6.3145122    4139.4222            7 
   74100    1.0134514   -6.2795656    4147.9022            7 
   74200    1.0294494   -6.2528049     4149.765            5 
   74300    1.0190574   -6.2675978    4146.3087            6 
   74400   0.99074399   -6.2617777    4145.8901            4 
   74500    1.0053965   -6.2812147    4157.3106            5 
   74600    1.0055612   -6.2921615    4160.7146            6 
   74700   0.99057683   -6.2868092    4148.7373            3 
   74800    1.0072852   -6.2908394    4143.8727            8 
   74900    1.0071888   -6.2413146    4165.3554            7 
   75000     1.012381   -6.2700754    4147.9729            4 
   75100   0.99917284   -6.2774845    4143.3846           13 
   75200    1.0008212    -6.270603    4154.3711            5 
   75300    1.0049663    -6.279405    4170.6063            5 
   75400   0.98837074   -6.2899069    4165.4214            4 
   75500   0.99415031   -6.2673761    4165.6981           10 
   75600    1.0016162   -6.2917573    4171.9844            4 
   75700   0.98094891   -6.2881499    4167.1048           11 
   75800   0.99872906   -6.2583086    4170.4539            5 
   75900    1.0108671   -6.2765896    4157.0457            7 
   76000    1.0121204    -6.272203    4154.1474           12 
   76100    0.9886197   -6.2917279    4148.0887           12 
   76200   0.98742619   -6.2617702    4149.2837            8 
   76300    1.0044979   -6.2846323    4149.4417            5 
   76400   0.99729911   -6.3007694    4141.4884            7 
   76500    1.0150581   -6.3056582    4145.4785            5 
   76600   0.99909106   -6.2602283    4149.2435            5 
   76700    1.0092986   -6.2687708    4169.4092            6 
   76800    1.0158834   -6.2913267    4172.9637            6 
   76900    1.0070077   -6.3021836    4162.7752            4 
   77000   0.98920564   -6.2937414    4165.8597           10 
   77100   0.99094704   -6.2660868    4181.2802            5 
   77200   0.99671225   -6.2645349    4170.9538            4 
   77300   0.99489441   -6.3013603    4153.4812           10 
   77400    1.0092194   -6.2904153    4157.8843            4 
   77500    1.0101614   -6.2710198    4169.5913            7 
   77600    1.0048013   -6.2956823    4168.4702            7 
   77700   0.99431807   -6.2864009    4151.9187            5 
   77800   0.96393309   -6.2987005    4138.7897            7 
   77900    0.9858426   -6.2790464    4149.1484            9 
   78000    1.0048918   -6.2996691    4160.0385           13 
   78100    1.0176299   -6.2914187    4160.4535            6 
   78200    0.9852895     -6.27292    4141.6378            5 
   78300    1.0146851   -6.2761316    4145.3035            9 
   78400   0.99235108   -6.2693137     4161.131            4 
   78500     1.010899   -6.2791146    4161.4366            4 
   78600   0.99074662   -6.2710223    4156.8153            5 
   78700    1.0007534   -6.2352784    4160.4126            4 
   78800    1.0073937   -6.2690031    4149.2743            4 
   78900    1.0077026   -6.2683757    4136.8926            2 
   79000   0.98402794   -6.2717183    4142.8162           10 
   79100   0.99912776   -6.2505137    4146.6577            4 
   79200    1.0117832   -6.2872185    4150.4875            5 
   79300    0.9914517   -6.2973525    4135.2367            4 
   79400    1.0062853   -6.2734018    4139.8218            4 
   79500    1.0029763   -6.2460939    4149.3874            5 
   79600   0.99491766   -6.2508106    4153.5466           12 
   79700   0.98032029   -6.2420121    4156.6363            9 
   79800    1.0169176   -6.2451674     4154.253            8 
   79900   0.99680538   -6.2742949    4147.0082            6 
   80000     1.009286   -6.2650117    4152.0211            8 
   80100    1.0031532   -6.2986857    4163.2509           16 
   80200   0.99103327   -6.3333547    4151.7463            7 
   80300   0.96959455   -6.2638859     4161.503            8 
   80400    0.9888406   -6.2725474     4158.514            8 
   80500   0.98529231   -6.2883839    4155.4085            8 
   80600   0.99726939   -6.2786822    4154.3152            6 
   80700   0.99812954   -6.2507002    4168.9425            5 
   80800   0.97844775    -6.228136    4171.6623            5 
   80900    1.0112435   -6.2444039    4157.9686            5 
   81000    1.0052671   -6.2602621    4152.0571           21 
   81100   0.98566088   -6.2620491    4145.9726           15 
   81200   0.99133918   -6.3002882     4142.115           15 
   81300    1.0016634   -6.2867909    4139.5264            8 
   81400    1.0060972   -6.2361543    4147.5157            5 
   81500    1.0029329   -6.2705447    4143.1555            9 
   81600   0.98829085   -6.2416308    4145.1556            6 
   81700    1.0125639    -6.260006    4154.7101            4 
   81800    1.0107909   -6.2563257    4145.4411            8 
   81900    1.0110681   -6.2789048    4146.7669           18 
   82000   0.99542753   -6.2963123     4143.014            9 
   82100    1.0221547   -6.2997801     4144.317           13 
   82200    1.0122764    -6.267351    4158.8148           10 
   82300    1.0095839    -6.249303    4181.1395            7 
   82400   0.97869856   -6.2600934    4162.4287            9 
   82500    1.0209694   -6.2711415    4158.0912           10 
   82600    1.0090009   -6.2770689    4145.2729            7 
   82700   0.99475192   -6.2708522    4141.8945            5 
   82800    1.0137212   -6.2431319    4160.6736            6 
   82900    1.0048977   -6.2589829    4154.9567            3 
   83000   0.99797556   -6.2718879    4146.6281            7 
   83100   0.99909933    -6.272436    4147.3942            7 
   83200   0.99479539     -6.25699    4158.3686           13 
   83300   0.99877679   -6.2737958    4160.0677            6 
   83400   0.98667862   -6.2857058    4157.7436           11 
   83500   0.99286167   -6.2439094    4162.0174            9 
   83600   0.99458928    -6.231145    4163.2697            5 
   83700    1.0004122   -6.2698541    4162.2636            5 
   83800    1.0049882    -6.260151    4151.9851            7 
   83900    1.0207965   -6.2353765    4147.6798            8 
   84000    1.0218369   -6.2250874    4147.0561            5 
   84100   0.99859329   -6.2548347    4154.3902            4 
   84200    1.0177469   -6.2631934    4154.7762            6 
   84300   0.99573004   -6.2684804    4138.0029            6 
   84400    1.0046784   -6.2613355    4141.8442            8 
   84500    1.0187169   -6.2556601    4149.9897            4 
   84600   0.99118154   -6.2579316    4142.5945            5 
   84700   0.98006383   -6.2851045    4114.0284            4 
   84800   0.99753439   -6.2800795    4123.8048            7 
   84900    1.0108557   -6.2849285    4134.4891            8 
   85000    1.0069421   -6.2638548     4142.262            7 
   85100    1.0073022   -6.2524299    4146.9986            8 
   85200    1.0021454   -6.2777264    4144.7584            7 
   85300    1.0015206   -6.2667965    4142.1145            9 
   85400    1.0189818   -6.2679632    4147.2632            9 
   85500   0.99638731   -6.2696051    4152.5367            5 
   85600   0.98498685   -6.2776066    4147.0354            6 
   85700   0.99227021   -6.2405088    4158.3304            4 
   85800   0.99162378   -6.2357261    4154.2286           11 
   85900    0.9947628   -6.2759945    4147.6097            6 
   86000    1.0119254   -6.2521055    4155.1157            6 
   86100   0.99465148   -6.2606151    4160.3475            9 
   86200   0.97766814   -6.2658859    4160.7828            9 
   86300    1.0178307   -6.2826843    4159.8362           21 
   86400   0.99564362    -6.258872     4153.178            8 
   86500    1.0130462   -6.2516672    4161.1113            7 
   86600   0.99210084   -6.2774403     4152.243            7 
   86700   0.98969264   -6.2543225    4155.1964            4 
   86800    1.0004381   -6.2329769    4160.1505            3 
   86900    1.0047996    -6.270404    4155.2839            4 
   87000    1.0114709   -6.2773517    4159.4646            4 
   87100    1.0142315   -6.2595835    4160.4703            4 
   87200    1.0002107   -6.2933446    4164.6478            6 
   87300    1.0127211   -6.2898811    4164.9159            6 
   87400   0.97744622    -6.243965    4172.3116            4 
   87500   0.98861664    -6.306573     4165.032            4 
   87600    1.0059079   -6.3126252    4155.6335            3 
   87700    1.0062098   -6.2923021    4159.7091            6 
   87800    1.0227737   -6.2536957    4163.5804            5 
   87900   0.99878361   -6.2685533    4160.3917            4 
   88000   0.99067995   -6.2778622    4158.4223            5 
   88100    1.0017919   -6.2726715    4167.1357            6 
   88200   0.99788085   -6.2332233    4165.4906            8 
   88300    1.0018019   -6.2522342    4156.9967            7 
   88400    1.0055625   -6.2930773    4148.3958            3 
   88500   0.98764723    -6.279999    4157.8065            5 
   88600    1.0054291   -6.2658897    4159.8749            3 
   88700   0.97886905   -6.2763162    4157.7033            7 
   88800    1.0036679   -6.2883215    4158.3013            5 
   88900    1.0174096   -6.2529638    4161.0086            3 
   89000    0.9958141   -6.2447189    4158.4612            7 
   89100    1.0061616   -6.2734236    4149.5596            5 
   89200   0.98794571   -6.2636606    4144.1432            5 
   89300    1.0021518   -6.2502328    4153.7578            5 
   89400    1.0122787    -6.277989    4154.9795            5 
   89500   0.98802927   -6.2956211    4148.1504            4 
   89600    1.0025105   -6.2692812    4152.1163            5 
   89700    1.0090804   -6.2590161    4144.6287            5 
   89800    1.0225613   -6.2895718    4140.8419            4 
   89900   0.98450853   -6.2792753    4137.4442            7 
   90000    1.0075676   -6.2848848    4149.6393            7 
   90100   0.98167159   -6.2773299    4153.6343            7 
   90200    1.0014356   -6.3055282     4134.835            7 
   90300   0.97791117   -6.2914766     4132.545            6 
   90400   0.98494155   -6.2876565    4151.5254            7 
   90500   0.98898069   -6.2809049     4158.544            6 
   90600   0.97880234   -6.2677469      4164.14            6 
   90700    1.0038208   -6.2522462    4146.4473            6 
   90800   0.98693168    -6.287682    4130.9884            5 
   90900   0.99950046   -6.3001729    4131.4424            7 
   91000    1.0080016   -6.2789172    4141.9667            5 
   91100    1.0032042   -6.2937415     4145.662            9 
   91200    1.0157877   -6.2763457     4140.401            3 
   91300     1.027498   -6.2611777    4150.1867            7 
   91400    1.0104438   -6.2697027    4134.4619            7 
   91500    1.0126418   -6.2732469    4129.9672            6 
   91600      1.01259   -6.2597942    4139.1168           11 
   91700    1.0068359   -6.2740626    4157.1657            9 
   91800    1.0112833    -6.250043      4165.21           14 
   91900    1.0013964   -6.2847299    4148.9872            8 
   92000   0.99169517   -6.2804785    4147.0472           12 
   92100     1.023082    -6.270139    4155.7736           12 
   92200    1.0056855   -6.2880586    4147.0485           11 
   92300   0.98752279   -6.2819077    4144.6293           13 
   92400    1.0056444   -6.2629172    4157.4107            7 
   92500   0.98826577   -6.2218254    4152.5275            6 
   92600    1.0039441   -6.2433638    4148.8975            6 
   92700    1.0100492   -6.2196957     4145.669            9 
   92800    1.0176198   -6.2234721    4150.7061           10 
   92900     1.005467   -6.2608813    4146.7579            9 
   93000   0.97288592   -6.2533231    4144.1337            4 
   93100    1.0008691   -6.2428158    4151.1717            3 
   93200   0.99482403   -6.2547843    4151.0388           10 
   93300   0.98478577   -6.2707135    4137.0377            7 
   93400    1.0190147   -6.2953335    4146.2256            5 
   93500   0.99036418   -6.2529099    4148.9051            8 
   93600    1.0041939   -6.2633636    4155.6316            5 
   93700    1.0215099   -6.2702108    4155.6222           10 
   93800   0.98945791   -6.2779271    4148.2008            5 
   93900   0.98540311   -6.3077909    4144.8392            8 
   94000    1.0095999   -6.2984884    4137.4713            7 
   94100     1.027393   -6.3112943    4145.3579            5 
   94200   0.99875408    -6.301191    4135.2301            5 
   94300    1.0091228   -6.2730513    4147.3292            3 
   94400    1.0016104   -6.2863447     4148.052            8 
   94500   0.98148952   -6.2775236    4138.0264            6 
   94600    1.0011156   -6.2592912    4152.8288            8 
   94700     1.008921   -6.2772419    4146.5895           10 
   94800    0.9914347   -6.2887025    4143.7883            6 
   94900    1.0032044   -6.3018473    4159.1101            5 
   95000    1.0069279   -6.2657973    4175.8362            6 
   95100    1.0041075   -6.2691693    4167.4752            3 
   95200    0.9925749   -6.2718516      4161.38            5 
   95300   0.96742528   -6.2927767    4156.7043            8 
   95400   0.97696028   -6.2711874    4162.2502           15 
   95500   0.98677497   -6.2488644    4166.3425            9 
   95600   0.97662004   -6.2797166    4159.0224            6 
   95700   0.98844187   -6.2553341    4144.9568           11 
   95800    1.0099362   -6.2723214    4149.6808            5 
   95900    1.0130031   -6.2450796    4153.3836            6 
   96000   0.99724127   -6.2511947    4136.5196            3 
   96100   0.99689588   -6.2444021    4136.0789            6 
   96200    1.0000939   -6.2418935    4142.3795            9 
   96300   0.99113116   -6.2943397    4146.6914           13 
   96400    1.0018757   -6.2834151      4161.95            7 
   96500   0.98865108   -6.2726825    4157.7098            7 
   96600    1.0031563    -6.249656    4155.8472            8 
   96700    1.0045769   -6.2618405    4154.4184            5 
   96800    1.0070127   -6.2514681    4145.7794            4 
   96900    1.0280269   -6.2365254    4164.6569            9 
   97000    1.0270349   -6.2651557    4163.6716            9 
   97100    1.0042245   -6.2643178    4164.1059            6 
   97200   0.98783076   -6.2542586    4157.7744            4 
   97300   0.97968388   -6.2868609     4144.918            5 
   97400   0.99262332   -6.2662353    4146.0335           14 
   97500     1.010409   -6.2609387    4166.8815            6 
   97600   0.99849132   -6.2703956    4161.4714            6 
   97700   0.99315058   -6.2895958    4155.8906            7 
   97800    1.0170775   -6.2919796    4160.3638            5 
   97900    1.0206328   -6.2660352    4162.5594            5 
   98000    0.9871802   -6.2610047    4165.6263            4 
   98100    1.0083467   -6.2627854    4168.0023            4 
   98200   0.99543057    -6.293891    4150.0971            8 
   98300    1.0082649   -6.2723764    4149.2072            5 
   98400    1.0047481   -6.2963692    4147.7279            5 
   98500    1.0031094   -6.2850253    4139.2132            5 
   98600    1.0028294   -6.2740534    4131.2377            4 
   98700   0.98202562   -6.2827279    4132.4471            5 
   98800    1.0161729   -6.2793125    4144.6361            3 
   98900    1.0151718   -6.2578017    4149.4878            9 
   99000     1.004925   -6.2696795    4151.4516            5 
   99100    1.0048893   -6.2674642    4155.1904            8 
   99200    0.9855373   -6.2788859    4158.0417            5 
   99300    0.9919875   -6.3172492    4149.7468            8 
   99400   0.99744815   -6.2681027    4160.0003            9 
   99500   0.99841313   -6.2693808    4161.6556            8 
   99600    1.0129907   -6.2743148    4152.8269            5 
   99700   0.98414453    -6.280695    4149.4299            7 
   99800    1.0000605   -6.2650826    4160.9143            5 
   99900    1.0075153   -6.2609376    4161.6195            8 
  100000   0.98935299   -6.2848391    4155.6822            7 
  100100    1.0255148   -6.2959152    4157.5885            4 
  100200    1.0203854   -6.2442231    4174.4024            8 
  100300   0.99842196   -6.2693122    4162.0358            5 
  100400    1.0031046    -6.295523    4148.9235            5 
  100500    1.0068808   -6.2721508    4149.1664           12 
  100600    1.0166231   -6.2867629      4163.67            7 
  100700   0.96438144   -6.2650623    4160.8184            6 
  100800    1.0043679   -6.2769771     4157.964            5 
  100900   0.99795013   -6.2809211    4156.3849            3 
  101000    0.9840598   -6.2825446    4150.5332            5 
  101100    1.0083669   -6.2895768    4148.1769            4 
  101200   0.99842028   -6.2648783    4160.9732            7 
  101300   0.99901975   -6.2441172    4168.5071            5 
  101400   0.99452996    -6.261477    4152.2655            6 
  101500    1.0112468   -6.2866659     4145.651            5 
  101600     1.006428   -6.2406428    4148.8964           16 
  101700    1.0004884   -6.2773014    4149.7647            5 
  101800   0.98484358   -6.2732376    4150.0425            9 
  101900    1.0058787   -6.2650997    4144.7153           12 
  102000   0.98056634   -6.2678689    4130.7784            8 
  102100   0.99852437   -6.2454107     4137.096            4 
  102200    1.0179113   -6.2390487    4146.7069            7 
  102300    1.0364059   -6.2354214    4145.2848            7 
  102400    1.0184454   -6.2681832    4137.8035            7 
  102500     1.003524   -6.2684412    4143.3752            7 
  102600   0.99241164    -6.269494    4152.8238            6 
  102700   0.99711428   -6.2554447    4160.4688           12 
  102800    1.0041581   -6.2690636    4158.9079            7 
  102900    1.0031308   -6.2914357     4149.576            7 
  103000   0.97496975   -6.2777533    4145.5121            4 
  103100    1.0050376   -6.2801603     4152.865            7 
  103200    1.0155174   -6.2731053    4148.8761            7 
  103300    1.0000366   -6.2978468    4138.4592            6 
  103400    1.0095461   -6.2624858    4142.7051            5 
  103500    1.0212959   -6.2740954    4146.6142            3 
  103600   0.99016736   -6.2840382     4152.123            9 
  103700   0.99831815      -6.2435     4150.562            5 
  103800    1.0128836    -6.244152    4149.4752            6 
  103900    1.0205891   -6.2942035     4138.999            6 
  104000   0.99550203    -6.265862    4143.6295            5 
Loop time of 172.743 on 24 procs for 100000 steps with 4000 atoms

Performance: 100032.846 tau/day, 578.894 timesteps/s
99.6% CPU use with 24 MPI tasks x no OpenMP threads

MPI task timing breakdown:
Section |  min time  |  avg time  |  max time  |%varavg| %total
---------------------------------------------------------------
Pair    | 20.297     | 20.681     | 21.16      |   4.0 | 11.97
Neigh   | 2.5523     | 2.5717     | 2.613      |   0.8 |  1.49
Comm    | 8.6995     | 9.5334     | 10.207     |  12.0 |  5.52
Output  | 4.8493     | 4.8507     | 4.8634     |   0.1 |  2.81
Modify  | 132.26     | 133        | 133.65     |   4.0 | 76.99
Other   |            | 2.103      |            |       |  1.22

Nlocal:        166.667 ave         174 max         159 min
Histogram: 1 2 2 0 9 1 2 3 3 1
Nghost:        2095.25 ave        2117 max        2075 min
Histogram: 2 0 2 5 5 2 4 1 1 2
Neighs:        18368.3 ave       19268 max       17594 min
Histogram: 4 1 3 1 3 3 4 1 3 1
FullNghs:      36735.7 ave       38458 max       35033 min
Histogram: 2 1 3 3 5 1 3 3 0 3

Total # of neighbors = 881657
Ave neighs/atom = 220.41425
Neighbor list builds = 5970
Dangerous builds = 0

#clear
#
#next RN
#
#jump SELF
Total wall time: 0:02:54
