
units lj                  # Use reduced LJ style units
atom_style atomic         # Uncharged point particles
atom_modify map hash      # Needed for indexing of clusters etc
                          # Used to be able to find where atoms are in relation to each other.

# Define a lattice with which to populate the simulation cell. With units
# set to 'lj' the second argument to the lattice command is the reduced
# density rho* and the spacings are multiples of that required to acheive
# that density. Also define a simulation cell called 'box' in lattice units
# and fill it with atoms. Here we're creating a box which is ten lattice
# constants in each direction.
lattice fcc 1.0 spacing 1 1 1                 # All equal sizes - gives the right reduced density.
Lattice spacing in x,y,z = 1.5874011 1.5874011 1.5874011

region box block 0 10 0 10 0 10 units lattice # Defines a region, "box", in lattice units
create_box 1 box                              # Creates a simulation box as specified above,
Created orthogonal box = (0.0000000 0.0000000 0.0000000) to (15.874011 15.874011 15.874011)
  4 by 4 by 4 MPI processor grid
                                              # with one type of atom
create_atoms 1 box                            # Creates particles on lattice points
Created 4000 atoms
  using lattice units in orthogonal box = (0.0000000 0.0000000 0.0000000) to (15.874011 15.874011 15.874011)
  create_atoms CPU = 0.002 seconds


# Set the mass of the first (and only) atom type.
mass 1 1.0

# Lennard-Jones interactions between particles, 3.5 sigma cut-off. Apply
# long range tail corrections to energy and pressure and set all coefficients
# to unity since we work in reduced units here. Note that this doesn't shift
# the potential such that it goes to zero at the cutoff. That would require
# pair_modify('shift', 'yes').
pair_style lj/cut  3.5      # non-GPU version
pair_modify tail  yes
pair_coeff 1  1  1.0  1.0   # Intearaction between 1 and 1 set with epsilon = 1 and sigma = 1

write_data data.*
System init for write_data ...
Neighbor list info ...
  update every 1 steps, delay 10 steps, check yes
  max neighbors/atom: 2000, page size: 100000
  master list distance cutoff = 3.8
  ghost atom cutoff = 3.8
  binsize = 1.9, bins = 9 9 9
  1 neighbor lists, perpetual/occasional/extra = 1 0 0
  (1) pair lj/cut, perpetual
      attributes: half, newton on
      pair build: half/bin/atomonly/newton
      stencil: half/bin/3d
      bin: standard

#############################
#   M E L T   S Y S T E M   #
#############################

velocity all create 2.4 5300450 mom yes dist gaussian # Assign velocities
                                                    # Temperature 2.4, random number seed, zero linear momentum
						                                                        # Gaussian distribution

timestep 0.002   # simulation timestep
thermo 100       # output thermodynamic data every 100 steps

# Define a fix  in this case with index 1 applied to all
# particles in the simulation. This fix is for simulations
# in the anisotropic NPT ensemble. Note that we use the MTK
# correction.
fix 1 all npt temp 2.4 2.4 0.1 iso 5.68 5.68 0.5 mtk yes tchain 5 pchain 5 # Use NPT ensemble
                                                                         # Set temperature and pressure and damping
                                                                         # Numbers of thermostats in chain and in barostat
run 1000         # run for 10000 steps
Per MPI rank memory allocation (min/avg/max) = 3.630 | 3.630 | 3.630 Mbytes
Step Temp E_pair E_mol TotEng Press Volume 
       0          2.4   -8.3859253            0   -4.7868253   -2.2405722         4000 
     100    1.2568457    -6.520638            0   -4.6358408    5.4054415    4090.5418 
     200    1.4749962   -6.3123998            0   -4.1004586    5.9706789    4139.2832 
     300    1.6124068   -6.0569481            0   -3.6389426    5.7397492    4264.5301 
     400    1.7168752   -5.7431758            0   -3.1685069    5.9205944    4390.8204 
     500    1.7900089   -5.4300953            0   -2.7457532    5.8244207    4548.9907 
     600    1.8749878   -5.1356604            0   -2.3238818    5.7834378    4705.6354 
     700    1.9882515   -4.8678934            0   -1.8862617    5.9915018     4837.506 
     800    2.1327811   -4.6988753            0   -1.5005035    5.7798366    4974.3967 
     900    2.2952123   -4.5871705            0   -1.1452128    5.7568633    5062.5276 
    1000    2.3419515   -4.4435081            0  -0.93145903    5.7034406     5160.776 
Loop time of 0.199288 on 64 procs for 1000 steps with 4000 atoms

Performance: 867085.231 tau/day, 5017.854 timesteps/s
99.0% CPU use with 64 MPI tasks x no OpenMP threads

MPI task timing breakdown:
Section |  min time  |  avg time  |  max time  |%varavg| %total
---------------------------------------------------------------
Pair    | 0.058852   | 0.06273    | 0.066998   |   0.7 | 31.48
Neigh   | 0.014012   | 0.014746   | 0.015818   |   0.3 |  7.40
Comm    | 0.088493   | 0.092574   | 0.096303   |   0.6 | 46.45
Output  | 0.00024848 | 0.00025273 | 0.00031414 |   0.0 |  0.13
Modify  | 0.025125   | 0.027129   | 0.028569   |   0.6 | 13.61
Other   |            | 0.001857   |            |       |  0.93

Nlocal:        62.5000 ave          69 max          56 min
Histogram: 7 2 3 12 7 7 13 5 2 6
Nghost:        1253.14 ave        1273 max        1234 min
Histogram: 2 7 6 8 11 5 9 8 7 1
Neighs:        5540.11 ave        6253 max        4768 min
Histogram: 2 5 5 12 10 8 5 5 7 5

Total # of neighbors = 354567
Ave neighs/atom = 88.641750
Neighbor list builds = 87
Dangerous builds = 24

# Equilibrate just above the melting temperature to avoid step fn in T

fix 1 all npt temp 1.25 1.25 0.1 iso 5.68 5.68 0.5 mtk yes tchain 5 pchain 5
run 1000
Per MPI rank memory allocation (min/avg/max) = 3.631 | 3.631 | 3.631 Mbytes
Step Temp E_pair E_mol TotEng Press Volume 
    1000    2.3419515   -4.4435081            0  -0.93145903    5.7034406     5160.776 
    1100    1.9505664   -4.6860744            0   -1.7609562    5.6875043    4990.5455 
    1200    1.7145364   -4.9478458            0   -2.3766842    5.6803952    4813.9806 
    1300    1.5789627   -5.2178493            0   -2.8499973     5.626771    4671.2595 
    1400     1.466042   -5.4083802            0    -3.209867    5.7430009    4553.7478 
    1500    1.3483489   -5.5238765            0   -3.5018588    5.7608991    4484.5069 
    1600    1.3065005   -5.6674797            0   -3.7082189    5.6719356    4427.5375 
    1700    1.2613667   -5.7293973            0   -3.8378202     5.676448    4393.2208 
    1800    1.2706154   -5.8058844            0   -3.9004378    5.6537836    4362.5534 
    1900    1.2416506   -5.8085169            0   -3.9465067    5.6540218    4357.9646 
    2000    1.2530204     -5.85012            0   -3.9710592    5.4158949    4363.6997 
Loop time of 0.191439 on 64 procs for 1000 steps with 4000 atoms

Performance: 902638.173 tau/day, 5223.601 timesteps/s
99.8% CPU use with 64 MPI tasks x no OpenMP threads

MPI task timing breakdown:
Section |  min time  |  avg time  |  max time  |%varavg| %total
---------------------------------------------------------------
Pair    | 0.05816    | 0.061772   | 0.065673   |   0.7 | 32.27
Neigh   | 0.011937   | 0.012637   | 0.013422   |   0.3 |  6.60
Comm    | 0.084932   | 0.090065   | 0.094016   |   0.7 | 47.05
Output  | 0.00024421 | 0.00024796 | 0.00029667 |   0.0 |  0.13
Modify  | 0.022521   | 0.024351   | 0.026064   |   0.4 | 12.72
Other   |            | 0.002366   |            |       |  1.24

Nlocal:        62.5000 ave          68 max          53 min
Histogram: 1 1 3 0 5 10 20 8 12 4
Nghost:        1399.92 ave        1420 max        1382 min
Histogram: 6 4 6 9 5 11 12 6 2 3
Neighs:        6535.45 ave        7153 max        5253 min
Histogram: 1 0 2 4 2 9 13 19 7 7

Total # of neighbors = 418269
Ave neighs/atom = 104.56725
Neighbor list builds = 74
Dangerous builds = 4


# Small amount of linear quench

fix 1 all npt temp 1.25 ${temp} 0.1 iso 5.68 5.68 0.5 mtk yes tchain 5 pchain 5
fix 1 all npt temp 1.25 1.25 0.1 iso 5.68 5.68 0.5 mtk yes tchain 5 pchain 5
run 2000
Per MPI rank memory allocation (min/avg/max) = 3.631 | 3.631 | 3.631 Mbytes
Step Temp E_pair E_mol TotEng Press Volume 
    2000    1.2530204     -5.85012            0   -3.9710592    5.4158949    4363.6997 
    2100    1.2157368   -5.8503052            0   -4.0271558    5.4498152    4356.0492 
    2200    1.2603618   -5.8695824            0   -3.9795125    5.6146938    4336.4293 
    2300    1.2570734   -5.8535031            0   -3.9683644    5.6418015     4339.108 
    2400    1.2257134   -5.8585159            0   -4.0204055    5.6392342    4337.8965 
    2500    1.2644496    -5.873809            0   -3.9776088    5.5148423     4346.702 
    2600    1.2496968   -5.8376926            0   -3.9636161    5.7283495    4340.5862 
    2700    1.2423105   -5.8146561            0   -3.9516562    5.6086161    4362.1793 
    2800    1.2269011   -5.8395802            0   -3.9996887     5.814292    4332.0801 
    2900    1.2603458   -5.8454404            0   -3.9553943    5.8607769    4326.7323 
    3000    1.2282642   -5.8606186            0   -4.0186829    5.7454548    4330.1124 
    3100     1.252338   -5.8512141            0   -3.9731767    5.8447544    4327.0741 
    3200     1.278771   -5.8655304            0   -3.9478534    5.6831214    4336.8572 
    3300    1.2460071    -5.886616            0   -4.0180726    5.5549056    4335.0024 
    3400    1.2404646   -5.8556238            0   -3.9953921    5.4691739    4355.7211 
    3500    1.2671469    -5.844947            0   -3.9447019    5.5188963    4356.7683 
    3600    1.2384851   -5.8396185            0   -3.9823552    5.6139283    4348.0735 
    3700    1.2310819   -5.8687496            0   -4.0225884    5.6715567    4331.1139 
    3800    1.2779039   -5.8771307            0   -3.9607541    5.6075526    4337.0859 
    3900    1.2677666   -5.8589318            0   -3.9577574    5.6864898    4338.3992 
    4000    1.2286553   -5.8347984            0   -3.9922762    5.6292307    4348.3136 
Loop time of 0.399707 on 64 procs for 2000 steps with 4000 atoms

Performance: 864633.054 tau/day, 5003.664 timesteps/s
99.9% CPU use with 64 MPI tasks x no OpenMP threads

MPI task timing breakdown:
Section |  min time  |  avg time  |  max time  |%varavg| %total
---------------------------------------------------------------
Pair    | 0.12553    | 0.13027    | 0.13537    |   0.7 | 32.59
Neigh   | 0.022756   | 0.023471   | 0.024289   |   0.3 |  5.87
Comm    | 0.18085    | 0.18674    | 0.19427    |   0.7 | 46.72
Output  | 0.00057611 | 0.00058572 | 0.00068631 |   0.0 |  0.15
Modify  | 0.051069   | 0.053251   | 0.05562    |   0.5 | 13.32
Other   |            | 0.005385   |            |       |  1.35

Nlocal:        62.5000 ave          69 max          53 min
Histogram: 1 0 1 3 6 26 11 4 10 2
Nghost:        1404.70 ave        1427 max        1382 min
Histogram: 1 4 6 10 13 7 10 6 5 2
Neighs:        6563.19 ave        7303 max        5210 min
Histogram: 1 0 1 0 7 19 12 12 8 4

Total # of neighbors = 420044
Ave neighs/atom = 105.01100
Neighbor list builds = 132
Dangerous builds = 0

#############################
# F R E E Z E  S Y S T E M  #
#############################

# Define solid atoms. This closely follows ten Wolde  Ruiz-Montero and Frenkel  Faraday Discuss  1996  104  93-110
# Compute components of the per-atom q6 vector
compute q6 all orientorder/atom degrees 1 6 components 6 nnn NULL cutoff 1.3 # compute the Q6 parameter.
                                                                             # Use all neighbours within 1.3 unit cell.

# get number of connections
compute coord_number all coord/atom orientorder q6 0.5

# An atom is solid if it has 8 or more connections (of a possible 14)
variable is_solid atom c_coord_number>=8
group solid dynamic all var is_solid    # Must be dynamic to update
dynamic group solid defined

# do clustering
compute cluster solid cluster/atom 1.3 # Create a cluster where all atoms within are solid and max 1.3 units from another member

# define chunks one chunk per cluster
compute clus_chunks solid chunk/atom c_cluster nchunk every compress yes  # Says which atoms are in which chunk

# count the size of each chunk
compute size_chunks solid property/chunk clus_chunks count


# Find the maximum entry in the vector of chunk sizes
variable max_n equal max(c_size_chunks)


# Thermo style which includes this variable
thermo_style custom step temp pe vol v_max_n

thermo ${N}  # Print the thermo information every 100 steps
thermo 100  

# Reset the npt fix at a lower temperature (below freezing)
fix 1  all npt temp  ${temp} ${temp}  0.1  iso  5.68  5.68  0.5  mtk yes tchain  5  pchain  5
fix 1  all npt temp  1.25 ${temp}  0.1  iso  5.68  5.68  0.5  mtk yes tchain  5  pchain  5
fix 1  all npt temp  1.25 1.25  0.1  iso  5.68  5.68  0.5  mtk yes tchain  5  pchain  5

dump dmp2 all dcd ${N} traj_${rand}.dcd
dump dmp2 all dcd 100 traj_${rand}.dcd
dump dmp2 all dcd 100 traj_462431.dcd


# fix rnuntil all halt ${N} v_max_n >= 3980 error soft message no   # Stop when solidified


run 100000 # 5000000  # Run for this many steps
Neighbor list info ...
  update every 1 steps, delay 10 steps, check yes
  max neighbors/atom: 2000, page size: 100000
  master list distance cutoff = 3.8
  ghost atom cutoff = 3.8
  binsize = 1.9, bins = 9 9 9
  4 neighbor lists, perpetual/occasional/extra = 1 3 0
  (1) pair lj/cut, perpetual
      attributes: half, newton on
      pair build: half/bin/atomonly/newton
      stencil: half/bin/3d
      bin: standard
  (2) compute orientorder/atom, occasional
      attributes: full, newton on
      pair build: full/bin/atomonly
      stencil: full/bin/3d
      bin: standard
  (3) compute coord/atom, occasional
      attributes: full, newton on
      pair build: full/bin/atomonly
      stencil: full/bin/3d
      bin: standard
  (4) compute cluster/atom, occasional
      attributes: full, newton on
      pair build: full/bin/atomonly
      stencil: full/bin/3d
      bin: standard
Per MPI rank memory allocation (min/avg/max) = 9.315 | 9.320 | 9.323 Mbytes
Step Temp PotEng Volume v_max_n 
    4000    1.2286553   -5.8347984    4348.3136            7 
    4100    1.2555337   -5.8302341    4335.9557            3 
    4200    1.2513425   -5.8305217    4306.5174            5 
    4300    1.2791268   -5.8365795    4345.9738            3 
    4400    1.2275722   -5.8228705    4351.7637            3 
    4500    1.2423761   -5.8443594    4345.8376            2 
    4600    1.2768732   -5.8263421    4348.2684            5 
    4700    1.2364098    -5.806125    4342.0537            6 
    4800    1.2165838   -5.8168027    4340.2605            2 
    4900     1.246431   -5.8134169    4371.9434            4 
    5000    1.2548503   -5.8100329    4351.5833            5 
    5100    1.2541763   -5.8175379    4343.0779            4 
    5200    1.2333305   -5.8158285    4333.9598            4 
    5300    1.2464901   -5.8338968    4316.0655            3 
    5400    1.2505825   -5.8597138     4331.342            3 
    5500    1.2420507    -5.839355    4332.6061            5 
    5600    1.2472986   -5.8660885    4330.9126            7 
    5700    1.2415837   -5.8124279    4352.7759            2 
    5800    1.2328206   -5.8434088    4350.1244            2 
    5900    1.2581834    -5.865233    4348.1308            3 
    6000    1.2378074   -5.8482941    4337.9471            2 
    6100    1.2658942   -5.8362111    4316.1508            4 
    6200    1.2502678   -5.8401846    4325.8223            2 
    6300    1.2342102   -5.8314243     4353.837            2 
    6400    1.2547159   -5.8436773     4356.404            2 
    6500    1.2274816    -5.850068    4339.3595            3 
    6600    1.2732591   -5.8410298    4344.2511            7 
    6700    1.2775815   -5.8464551    4337.3227            7 
    6800    1.2492105   -5.8552646    4340.7172            5 
    6900    1.2234479   -5.8339439    4345.2121            6 
    7000    1.2303817    -5.870129    4317.9363            3 
    7100    1.2502138   -5.8690643    4318.4213            3 
    7200    1.2422201   -5.8403808    4345.9551            2 
    7300     1.247461   -5.8307356    4348.8909            2 
    7400    1.2475344   -5.8718473     4336.396            4 
    7500    1.2239229   -5.8629837    4324.8378            4 
    7600    1.2594275   -5.8217516    4319.5328            3 
    7700    1.2515449   -5.8150916    4336.2252            4 
    7800    1.2439776   -5.8011096    4356.3182            2 
    7900    1.2377775   -5.8455035    4347.1925            9 
    8000    1.2386582   -5.8508014    4344.9927            2 
    8100    1.2695111   -5.8406259    4345.0487            2 
    8200     1.258914    -5.843073    4338.4948            3 
    8300    1.2428426   -5.8731609    4337.9747            4 
    8400    1.2575868   -5.8530174    4347.1694            4 
    8500    1.2356025   -5.8148309    4357.5714            2 
    8600    1.2595122   -5.8565904    4359.4307            2 
    8700    1.2610861   -5.8544641    4351.6965            2 
    8800    1.2493551   -5.8167212    4334.1189            2 
    8900    1.2373497   -5.7973997    4338.4027            4 
    9000    1.2721359    -5.820066    4346.2501            3 
    9100    1.2552877   -5.8463648    4348.3916            6 
    9200    1.2228179   -5.8206535    4353.8221            2 
    9300     1.247352   -5.8351201    4347.0051            2 
    9400      1.25431    -5.833447    4338.8463            3 
    9500    1.2816781   -5.8443387    4336.0807            6 
    9600    1.2560254   -5.8818066    4334.7428            4 
    9700    1.2422394   -5.8754081    4351.0678            4 
    9800    1.2369438   -5.8477136    4348.2116            4 
    9900    1.2248627    -5.861177    4326.8501            4 
   10000    1.2592089   -5.8505487    4329.7237            1 
   10100    1.2470632   -5.8282659    4332.3153            4 
   10200    1.2463716   -5.8354233    4328.9802            4 
   10300    1.2378271   -5.8532205    4337.8198            2 
   10400    1.2380708   -5.8243671    4370.0186            2 
   10500    1.2523498   -5.8057778    4361.2026            3 
   10600    1.2491429   -5.8395747    4342.3217            4 
   10700    1.2487114   -5.8538175    4339.8905            3 
   10800    1.2490728   -5.8133442    4355.0811            4 
   10900    1.2634775   -5.7906509    4362.4288            6 
   11000    1.2570421    -5.845095    4334.0893            4 
   11100    1.2402197   -5.8660859    4337.0824            3 
   11200    1.2761959   -5.8692086    4339.3396            7 
   11300    1.2155871   -5.8463347    4336.7794            4 
   11400    1.2568561   -5.8399532    4343.9369            3 
   11500    1.2933669   -5.8471689     4341.478            4 
   11600    1.2471816   -5.8401035     4343.239            5 
   11700    1.2349615   -5.8387299    4350.1262            2 
   11800    1.2632646   -5.8198845    4348.6874            3 
   11900    1.2461376    -5.837653    4335.3903            4 
   12000    1.2288741   -5.8289734    4335.2429            5 
   12100    1.2705488   -5.8549025    4338.0065            5 
   12200    1.2592278   -5.8538234    4337.1482            2 
   12300    1.2482685   -5.8207356    4356.1074            3 
   12400    1.2511575   -5.8277262    4362.1738            6 
   12500    1.2645739   -5.8808124    4329.2355            2 
   12600    1.2218358   -5.8385002    4337.2601            4 
   12700    1.2340726   -5.8253886    4349.7772            3 
   12800    1.2425817   -5.8403418    4345.0081            7 
   12900    1.2451364   -5.8806341    4332.4013            3 
   13000    1.2706774    -5.849089    4335.8422            5 
   13100     1.251683   -5.8203926    4322.9995            2 
   13200    1.2578514   -5.8424897    4335.4786            6 
   13300    1.2347775   -5.8332949    4360.3791            5 
   13400    1.2412547   -5.8115373     4372.475            2 
   13500    1.2371864   -5.8287122    4330.9213            2 
   13600    1.2537408   -5.8089426    4319.9396            2 
   13700    1.2427351   -5.8543199       4340.5            3 
   13800    1.2662753   -5.8544992    4351.8093            2 
   13900    1.2566849   -5.8230158    4374.6805            3 
   14000    1.2384085    -5.858895    4348.9956            4 
   14100    1.2458288   -5.8414427    4352.3628            3 
   14200    1.2467062   -5.7743274    4364.8703            3 
   14300    1.2519252   -5.7882797    4343.8707            3 
   14400    1.2725524   -5.8338623    4328.3025            2 
   14500    1.2294321   -5.8259738    4332.2906            5 
   14600     1.264193    -5.822619    4350.2027            5 
   14700    1.2389697   -5.8334404    4359.2096            7 
   14800    1.2455312   -5.8130917    4349.2933            3 
   14900     1.272086    -5.787154    4347.4109            4 
   15000    1.2810839   -5.8386891    4339.1836            2 
   15100    1.2289254   -5.8194373     4352.893           15 
   15200    1.2201087   -5.8422521    4366.0928            4 
   15300    1.2868278   -5.8569878    4352.8519            3 
   15400    1.2506446   -5.8457769    4351.4999            5 
   15500    1.2417409   -5.8611619    4342.0315            3 
   15600    1.2339359   -5.8735534    4337.3525            3 
   15700    1.2567315   -5.8476552    4342.3619            4 
   15800    1.2523949   -5.8370529    4336.0402            6 
   15900    1.2642972   -5.8308002    4359.6729            6 
   16000    1.2557422   -5.8086041    4354.3127            3 
   16100    1.2428223   -5.8528412    4335.7859            3 
   16200    1.2709286   -5.8416026    4316.0405            2 
   16300    1.2689301   -5.8678149    4309.5676            4 
   16400    1.2279035   -5.8509907    4329.1671            4 
   16500    1.2743612   -5.8877152    4343.6643            3 
   16600    1.2123219   -5.8595455    4334.7278            3 
   16700    1.2551018   -5.8558615    4340.9213            4 
   16800    1.2562993   -5.8074464    4338.4895            4 
   16900    1.2381897   -5.8455049     4318.578            5 
   17000    1.2422528   -5.8388702    4326.1523            4 
   17100    1.2582301   -5.8383651    4349.4072            3 
   17200    1.2466854   -5.8203031    4352.5467            2 
   17300    1.2482424    -5.845886    4329.1352            4 
   17400    1.2474332   -5.8381911    4355.6128            5 
   17500    1.2382655   -5.8234504    4357.2424            2 
   17600    1.2621921   -5.8172589    4352.2465            2 
   17700    1.2475714   -5.8419557    4352.5888            3 
   17800    1.2617016   -5.8340862    4339.2951            2 
   17900    1.2569862    -5.872288    4334.3266            5 
   18000    1.2491358   -5.8434792     4338.996            3 
   18100    1.2353424   -5.8281857    4343.0996            2 
   18200    1.2398982   -5.8443305     4359.628            5 
   18300     1.246546   -5.8163838    4365.5387            2 
   18400    1.2182652   -5.8266738    4355.1124            4 
   18500    1.2720296   -5.8677229    4327.9975            4 
   18600    1.2450287   -5.8289588    4327.6111            2 
   18700    1.2554173   -5.8207343    4351.9763           14 
   18800    1.2452358   -5.8295258    4363.8223            3 
   18900    1.2341861   -5.8840718    4350.3758            2 
   19000    1.2195895   -5.8820308    4340.7725            3 
   19100    1.2741853   -5.8679607     4332.802            4 
   19200     1.265845   -5.8140612    4338.7525            3 
   19300    1.2607527   -5.8313665    4356.7205            5 
   19400    1.2142964   -5.8236964    4343.1518            2 
   19500     1.261678   -5.8467377    4342.2154            4 
   19600    1.2300492   -5.8254699      4324.74            3 
   19700    1.2525504   -5.8555092    4322.3143            3 
   19800    1.2444316   -5.8260109    4340.6492            2 
   19900    1.2575784   -5.8208834     4350.581            4 
   20000    1.2354746   -5.8377834    4359.1937            2 
   20100    1.2846103   -5.8431247    4356.6958            5 
   20200    1.2352064   -5.8386829    4346.5026            1 
   20300    1.2350785   -5.7922429    4356.1648            2 
   20400    1.2710633   -5.8117351    4355.7072            3 
   20500    1.2415004    -5.794723    4340.0693            4 
   20600    1.2270263   -5.7788266    4347.1759            3 
   20700    1.2635253   -5.8297215    4340.2452            3 
   20800    1.2603255   -5.8331984    4334.3951            3 
   20900    1.2552223   -5.8876338    4341.7901            5 
   21000    1.2398573   -5.8566943    4353.8322            2 
   21100    1.2569341   -5.8551271    4361.1014            3 
   21200    1.2240104   -5.8452654    4353.3138            2 
   21300    1.2534996   -5.8351363    4351.2679            4 
   21400    1.2625101   -5.7998772    4338.7737            1 
   21500    1.2455653   -5.8157471     4329.983            3 
   21600    1.2653999   -5.8150993    4348.2002            5 
   21700     1.239229   -5.8191952    4363.6898            4 
   21800    1.2226266   -5.8631906    4336.9092            3 
   21900    1.2357381   -5.8348354    4350.1638            3 
   22000    1.2583161   -5.8321733    4342.2754            5 
   22100    1.2439927   -5.8469903    4348.8005            5 
   22200    1.2594423      -5.8483    4343.9387            6 
   22300    1.2329267   -5.8767781    4338.3903            4 
   22400    1.2528463   -5.8836288    4325.2107            3 
   22500    1.2453827   -5.8462785    4317.3683            2 
   22600    1.2772367    -5.852543    4342.6401            3 
   22700    1.2501854   -5.8890075    4348.0395            7 
   22800    1.2405012    -5.857167    4350.5185            3 
   22900    1.2515535   -5.8081643    4352.4183            3 
   23000    1.2379904   -5.8294375    4326.8393            2 
   23100    1.2670937   -5.8556253    4330.7618            1 
   23200    1.2555202   -5.8285877    4346.7169            4 
   23300     1.250016   -5.8420512    4365.4923            3 
   23400    1.2441582   -5.8777221     4347.484            3 
   23500    1.2538459   -5.8519587    4344.6771            3 
   23600    1.2570219   -5.8094566    4349.7779            3 
   23700    1.2425587   -5.8300441    4350.9198            6 
   23800    1.2345189   -5.8528028    4326.0955            3 
   23900    1.2517594   -5.8406198    4339.7088            2 
   24000    1.2504612    -5.828632    4348.0582            3 
   24100    1.2828044   -5.8363545    4350.8346            5 
   24200    1.2249617   -5.8010022    4342.2203            4 
   24300    1.2877503   -5.8545116    4331.4343            6 
   24400    1.2480045   -5.8640467    4335.1491            5 
   24500    1.2619919    -5.880815    4349.5562            2 
   24600    1.2464634   -5.8590747    4361.4358            3 
   24700     1.260302   -5.8370584    4354.3188            2 
   24800    1.2466169   -5.7741666     4354.081            2 
   24900    1.2682817   -5.8106864    4346.6094            3 
   25000      1.22196   -5.8109147    4350.1879            4 
   25100    1.2443036   -5.8435953    4353.4966            2 
   25200     1.230232   -5.8590662    4317.4532            1 
   25300    1.2763998   -5.8575985    4320.8163            5 
   25400    1.2672296   -5.8568349    4330.0698            3 
   25500    1.2476109   -5.8719826    4336.7609            4 
   25600     1.218857   -5.8779177    4330.5731            4 
   25700     1.250625   -5.8623573    4347.0049            5 
   25800    1.2546699   -5.8450215    4344.6934            4 
   25900    1.2606624   -5.8254157    4353.8199            4 
   26000    1.2827673    -5.797514    4359.7374            3 
   26100    1.2433595   -5.8117386    4354.5579            3 
   26200    1.2440122   -5.8095849    4351.8055            4 
   26300    1.2725798    -5.809727    4366.4854            3 
   26400    1.2594754   -5.8510269    4349.4303            2 
   26500    1.2285723   -5.8377262    4349.0306            2 
   26600    1.2638813   -5.8228258    4352.0355            3 
   26700    1.2434024     -5.83071    4327.5966            5 
   26800    1.2738734   -5.8581699    4333.6254            5 
   26900    1.2523263   -5.8445973    4348.9549            3 
   27000    1.2245064   -5.8178639    4368.9057            3 
   27100    1.2595263   -5.8255382     4361.802            2 
   27200    1.2573794    -5.843499    4347.3376            3 
   27300    1.2660278   -5.8321801    4341.0339            2 
   27400    1.2404937   -5.8167128    4337.2541            3 
   27500    1.2491771   -5.8209675    4347.2975            1 
   27600    1.2518526   -5.8105915    4358.8543            2 
   27700    1.2693548   -5.8827534    4331.2387            2 
   27800    1.2594806   -5.8472075     4337.053            3 
   27900    1.2427855   -5.8124521    4372.8653            4 
   28000    1.2511455    -5.826137    4375.1504            4 
   28100    1.2602497   -5.8236574    4350.2848            4 
   28200    1.2507588   -5.8390507    4339.2763            3 
   28300    1.2865418   -5.8313416    4353.1895            4 
   28400    1.2433969   -5.8078485    4341.2449            3 
   28500    1.2654194    -5.881927    4334.0008            3 
   28600    1.2414525   -5.8760538    4344.6142            3 
   28700    1.2243577   -5.8204654     4361.024            3 
   28800    1.2328746   -5.8695801    4352.3651            5 
   28900    1.2572289   -5.8272205    4335.0768            4 
   29000    1.2697463   -5.8159634    4347.9613            5 
   29100    1.2522415   -5.8091672    4360.4702            4 
   29200    1.2312446   -5.8342018    4346.7942            5 
   29300    1.2474616   -5.8350107    4343.9395            2 
   29400    1.2833524   -5.8378477    4351.2405            2 
   29500    1.2686219   -5.8635805    4328.0759            5 
   29600    1.2329176   -5.8353448    4337.6818            8 
   29700    1.2732031   -5.8664595    4349.3965            3 
   29800    1.2356216     -5.85497    4346.9287            4 
   29900    1.2008645   -5.8624695    4353.7449            4 
   30000    1.2608592   -5.8785403    4338.6261            6 
   30100    1.2426434   -5.8663911    4327.7402            3 
   30200    1.2406234   -5.7997623    4346.9612            2 
   30300    1.2505764   -5.8555748    4337.1055            4 
   30400    1.2452858   -5.8482676    4333.5765            4 
   30500    1.2451731   -5.7974306    4344.0656            2 
   30600    1.2399182   -5.8486798    4345.2159            2 
   30700    1.2396188   -5.8334234    4341.1177            2 
   30800    1.2396396   -5.8281405    4348.1007            2 
   30900    1.2682529   -5.8150859    4350.2844            3 
   31000    1.2696408   -5.8378313    4349.9188            2 
   31100    1.2339768   -5.8329501    4339.1504            3 
   31200    1.2324899   -5.8213774    4346.3108            4 
   31300    1.2690925   -5.8063726    4348.3545            3 
   31400    1.2621203   -5.8062966     4349.651            4 
   31500    1.2681201   -5.8341106    4347.8809            4 
   31600    1.2274781   -5.8465887    4352.7979            5 
   31700    1.2376118   -5.8374407    4356.7195            2 
   31800    1.2690878   -5.8177697    4360.7185            4 
   31900     1.261985   -5.8122584    4355.9904            5 
   32000    1.2542773   -5.8622036    4337.1954            4 
   32100     1.252149   -5.8015804    4337.3661            4 
   32200    1.2314938   -5.8197187    4352.1324            2 
   32300    1.2594011   -5.8144657     4346.033            2 
   32400    1.2589121   -5.8662998    4345.8274            3 
   32500    1.2495051   -5.8397765    4331.5572            4 
   32600    1.2642799   -5.8080569    4317.6763            2 
   32700      1.23559   -5.8363525    4314.6946            3 
   32800    1.2534618   -5.8451909    4328.6846            3 
   32900    1.2517537   -5.8457936    4354.3559            4 
   33000    1.2356499   -5.8126217    4353.2191            3 
   33100    1.2580087   -5.8228988    4345.2632            4 
   33200    1.2696978   -5.8488568    4328.0988            2 
   33300    1.2199304   -5.8272198     4332.392            3 
   33400    1.2585736   -5.8445627    4348.5092            2 
   33500    1.2463673   -5.8530769    4331.6507            3 
   33600    1.2558122    -5.880534    4328.6974            5 
   33700    1.2484595   -5.8657835     4352.291            6 
   33800    1.2613079   -5.8498799    4377.0596            1 
   33900    1.2225273   -5.8492455    4361.7852            2 
   34000    1.2776463   -5.8536029    4334.0579            2 
   34100    1.2438605   -5.8452949    4329.1701            2 
   34200    1.2580113    -5.870497    4339.5098            5 
   34300    1.2627495     -5.81504     4363.212            2 
   34400    1.2482768   -5.8386329    4361.3671            4 
   34500    1.2584229   -5.8733073    4350.4304            7 
   34600    1.2415421     -5.87164     4334.177            5 
   34700    1.2714853   -5.8662723    4325.0022            2 
   34800    1.2376931   -5.7767892    4349.5602            1 
   34900    1.2501253   -5.7980203    4366.1767            3 
   35000    1.2662095   -5.8201196    4361.8146            2 
   35100    1.2556297   -5.8449679    4330.3975            3 
   35200    1.2570423   -5.8384397    4329.8076            6 
   35300    1.2663946   -5.8531406    4339.7781            2 
   35400    1.2436323   -5.8177374    4353.0139            2 
   35500    1.2573625   -5.8506597    4363.2327            3 
   35600    1.2725413   -5.8688705    4356.0346            3 
   35700    1.2741318   -5.8475422    4370.6989            2 
   35800    1.2388879   -5.8403733    4343.9142            2 
   35900    1.2627476    -5.810107    4328.5619            2 
   36000    1.2312029   -5.8334721    4334.8573            3 
   36100    1.2306819   -5.8132369    4346.2773            2 
   36200    1.3001507   -5.8340023    4355.0577            3 
   36300    1.2464674   -5.8230283    4343.0997            2 
   36400    1.2232757   -5.8268694    4353.7158            2 
   36500    1.2519557   -5.8244558    4368.9483            4 
   36600    1.2313621   -5.8366706     4350.195            3 
   36700    1.2448478   -5.8381556    4338.8937            1 
   36800     1.279678   -5.8364625    4337.3776            1 
   36900    1.2329377   -5.8002552    4332.5033            2 
   37000    1.2449906   -5.8486933    4333.7758            3 
   37100    1.2757438   -5.8324327    4337.4236            1 
   37200    1.2224607   -5.8171427    4325.8344            2 
   37300    1.2380689   -5.8233126    4339.5519            3 
   37400    1.2715931   -5.8518642     4346.061            2 
   37500    1.2407682    -5.868681    4350.5259            4 
   37600    1.2480033   -5.8636933    4358.5162            2 
   37700    1.2468099   -5.8435531    4336.1041            2 
   37800    1.2473597   -5.8346627    4320.3542            2 
   37900    1.2589476   -5.8218539    4334.7229            4 
   38000    1.2447286   -5.8293618    4347.1932            2 
   38100      1.23584   -5.8905095    4336.8994            2 
   38200     1.241541   -5.8458927     4350.402            3 
   38300    1.2312896   -5.8473075     4347.959            3 
   38400    1.2853721   -5.8503261    4329.2142            2 
   38500    1.2460601   -5.8343992    4313.3456            2 
   38600    1.2437161   -5.8582968    4329.1634            3 
   38700    1.2320386   -5.8188777    4358.6332            3 
   38800    1.2612988   -5.8359274    4344.2129            2 
   38900    1.2262502   -5.8496746    4341.0957            2 
   39000    1.2764756   -5.8672971    4351.6154            2 
   39100     1.289004   -5.8611532     4342.917            2 
   39200    1.2332245   -5.8248099    4343.8619            3 
   39300    1.2305742   -5.7893781    4350.6121            2 
   39400    1.2738124   -5.8106665    4334.1436            2 
   39500    1.2401501   -5.8224464    4331.9596            3 
   39600    1.2707886   -5.8128837     4344.544            2 
   39700    1.2352204   -5.8199791     4359.568            2 
   39800    1.2359222   -5.8177476    4363.9874            1 
   39900    1.2506947    -5.821947    4356.5558            3 
   40000    1.2449429   -5.8437021     4331.769            8 
   40100    1.2511057   -5.8187559    4341.1254            5 
   40200    1.2706696   -5.8679257    4344.2691            3 
   40300    1.2382085   -5.8715624    4323.7526            3 
   40400    1.2477751   -5.8606516    4339.1221            3 
   40500    1.2685555   -5.8584154    4336.4004            7 
   40600    1.2531236   -5.8642906    4335.8373            7 
   40700    1.2484329   -5.8427842    4359.9432            1 
   40800    1.2622996   -5.8440665    4358.4485            2 
   40900    1.2317051     -5.83986    4338.3762            2 
   41000    1.2440536    -5.853347    4335.1558            3 
   41100    1.2565953   -5.8269892     4365.175            4 
   41200    1.2558037   -5.8356243    4351.5462            8 
   41300    1.2613135   -5.8762014    4351.2654            5 
   41400    1.2310415    -5.846181    4354.1753            3 
   41500    1.2643946   -5.8323534    4359.7015            1 
   41600    1.2653237   -5.8054825    4344.1591            4 
   41700    1.2480075   -5.8416775    4329.3712            2 
   41800    1.2282727   -5.8288558    4327.0877            4 
   41900    1.2666579   -5.8344661    4359.5683            4 
   42000    1.2456457   -5.8303737    4349.6363            1 
   42100    1.2323904   -5.8605269    4345.8657            3 
   42200    1.2522809   -5.8409289    4350.8356            4 
   42300    1.2405831   -5.8292045    4345.0655            6 
   42400    1.2362997   -5.8517025      4328.75            3 
   42500    1.2689288   -5.8473876    4326.7806            3 
   42600    1.2560036   -5.8181637    4350.4482            3 
   42700    1.2598189   -5.8323059    4365.1367           10 
   42800    1.2329797   -5.8506178    4351.0069            2 
   42900    1.2634048   -5.8562022    4342.8067            3 
   43000    1.2801651   -5.8105386     4343.355            4 
   43100     1.256682   -5.8093848    4336.8279            9 
   43200    1.2437617    -5.801465    4351.2674            3 
   43300    1.2568614   -5.8488592    4342.7111            4 
   43400    1.2378585   -5.8439175    4344.8432            3 
   43500     1.262478   -5.8471162    4345.6171            3 
   43600    1.2456924   -5.8659782    4335.4681            3 
   43700    1.2221111   -5.8643624    4322.3209            4 
   43800    1.2546068   -5.8503756    4317.2059            3 
   43900    1.2537603   -5.8252349    4333.5908            4 
   44000    1.2445026   -5.8135143    4338.5053            4 
   44100    1.2421991   -5.8445214     4346.663            4 
   44200    1.2446451   -5.8380128    4347.3909            3 
   44300    1.2411864   -5.8806071    4344.0643            4 
   44400    1.2672026   -5.8391999    4337.2994            3 
   44500    1.2829808    -5.818619    4339.8995            2 
   44600    1.2478199   -5.8405303    4341.1926            2 
   44700    1.2517562   -5.8442991     4351.146            2 
   44800    1.2327778   -5.8121972    4357.2293            2 
   44900    1.2629545   -5.8325219    4340.9201            2 
   45000    1.2534887   -5.8706434    4322.6944            5 
   45100    1.2513091   -5.8423245    4325.5445            4 
   45200    1.2147511   -5.8345616    4336.0801           11 
   45300    1.2751014   -5.8614512    4351.1827            4 
   45400     1.244771   -5.8316395    4339.4113            4 
   45500    1.2349814   -5.8309226    4325.6662            4 
   45600    1.2521079   -5.8081172    4331.4057            4 
   45700     1.252393   -5.8169769    4351.6799            3 
   45800    1.2545248   -5.8363253     4362.864            2 
   45900    1.2450563   -5.8543709    4349.3982            2 
   46000    1.2710514   -5.8297971    4330.7917            4 
   46100    1.2514301   -5.8655571    4323.1448            3 
   46200    1.2500903    -5.842296    4345.8746            2 
   46300    1.2517459   -5.8024545     4367.635            4 
   46400    1.2496624   -5.8313993    4357.3791            3 
   46500    1.2441377   -5.8387569    4352.7623            5 
   46600    1.2685206    -5.822802    4351.6469            3 
   46700    1.2228212    -5.816984    4328.5592            2 
   46800    1.2479886   -5.8140836     4335.539            2 
   46900    1.2508746   -5.8121073    4342.9298            3 
   47000     1.269467   -5.8583751    4346.8741            2 
   47100    1.2212464   -5.8386217    4344.7004            3 
   47200    1.2677489   -5.8645229    4338.9652            6 
   47300    1.2399769   -5.7924245    4368.9742            4 
   47400     1.251017   -5.8054905    4365.4295            6 
   47500    1.2826836   -5.8440005    4347.6492            2 
   47600    1.2480222   -5.8524623    4346.7292           13 
   47700    1.2723922   -5.8403806    4345.2634            8 
   47800    1.2427691   -5.8679346    4333.7711            5 
   47900    1.2360462   -5.8756237    4350.8505            6 
   48000    1.2400337   -5.8438044     4352.932            3 
   48100    1.2356767   -5.8575247    4332.7334            7 
   48200      1.25909   -5.8703047    4310.9031            4 
   48300    1.2866478   -5.8787858    4317.7669            4 
   48400    1.2358484   -5.8445262    4342.3788            4 
   48500    1.2541285   -5.8199044    4360.7244            3 
   48600    1.2511668   -5.8145986    4363.5237            4 
   48700    1.2637799   -5.7977174    4355.6257            4 
   48800    1.2589245   -5.8429654    4345.7951            4 
   48900     1.258745   -5.8538563    4351.2723            5 
   49000     1.282646   -5.8660925    4364.4497            4 
   49100    1.2281406   -5.8494249    4347.9127            3 
   49200    1.2430847   -5.8687656    4336.3857            2 
   49300    1.2493183   -5.8263534    4333.7992            2 
   49400    1.2753841   -5.8066667    4327.5944            4 
   49500    1.2235735   -5.8238386    4336.3333            7 
   49600    1.2716644   -5.8694203    4346.7175            3 
   49700      1.24861    -5.805026     4361.957            3 
   49800    1.2543719   -5.8313073    4343.8971            7 
   49900    1.2518246   -5.8519331    4330.1928            4 
   50000    1.2493813    -5.862187     4327.092            2 
   50100    1.2517673   -5.8328949    4347.0587            3 
   50200    1.2496478   -5.8071431    4352.0789            3 
   50300    1.2244483   -5.8164211    4348.2346            6 
   50400    1.2523067   -5.8360806    4339.2273            5 
   50500    1.2814564   -5.8243531    4335.8216            6 
   50600    1.2354657   -5.8186513    4329.7835            5 
   50700    1.2530898   -5.8611959    4335.5158            3 
   50800    1.2646011   -5.8328542    4349.2708            4 
   50900    1.2296329   -5.8256248    4354.3526            4 
   51000    1.2302928   -5.8594163    4341.0813            8 
   51100    1.2572633    -5.811806    4331.5938            5 
   51200    1.2644038   -5.8518915    4327.2502            5 
   51300    1.2429015   -5.8645662    4320.4948            3 
   51400    1.2528013   -5.8554293    4331.5559            2 
   51500    1.2507483   -5.8282213    4356.4459            5 
   51600    1.2543245   -5.7959476    4356.1515            3 
   51700    1.2445374   -5.8321768    4345.6789            2 
   51800    1.2422143   -5.8382053     4336.542            2 
   51900    1.2331194   -5.8322418    4330.8705            5 
   52000    1.2581647    -5.844604    4351.0037            5 
   52100    1.2679679   -5.8228917    4354.9702            5 
   52200    1.2732012   -5.8436858    4364.1014            5 
   52300    1.2491971   -5.8486091    4363.0615            3 
   52400    1.2267912   -5.8445786    4354.4293            4 
   52500    1.2584604   -5.8643956    4332.8203            2 
   52600    1.2181042   -5.8514974    4331.9987            3 
   52700    1.2575147   -5.8315507    4334.0753            3 
   52800    1.2520632   -5.8443442    4332.5976            3 
   52900    1.2512624   -5.8881457    4313.2864            5 
   53000    1.2550266   -5.8438117    4341.2619            2 
   53100    1.2379617   -5.8233699    4353.3693            2 
   53200    1.2338055   -5.8328894    4365.4622            2 
   53300    1.2299592   -5.8691757    4342.8512            3 
   53400    1.2465568   -5.8496411    4335.0695            4 
   53500    1.2499779   -5.7967055    4341.0679            4 
   53600    1.2475907   -5.8465331    4352.4433            5 
   53700    1.2178917    -5.866506    4341.6257            4 
   53800    1.2367012   -5.8567044    4350.4771            3 
   53900    1.2576026   -5.8421293    4345.3595            3 
   54000    1.3012503   -5.8662381    4329.9702            4 
   54100    1.2268657   -5.8162311    4336.9162            4 
   54200    1.2587619   -5.8388632    4348.5074            2 
   54300    1.2161612    -5.840428    4333.8175            3 
   54400    1.2633105   -5.8530671    4332.3104            3 
   54500    1.2775109   -5.8339721    4342.8963            3 
   54600    1.2417314   -5.8558637    4340.7099            4 
   54700    1.2300673   -5.8735214    4343.6044            3 
   54800    1.2574931   -5.8659903    4346.6237            5 
   54900    1.2974271   -5.8772136    4331.8898            1 
   55000     1.240833    -5.849208    4330.6222            4 
   55100    1.2702129    -5.841665    4352.5388            3 
   55200    1.2573806   -5.8625487    4345.6084            2 
   55300    1.2365214   -5.8535137    4333.4224            5 
   55400    1.2592599     -5.81514    4331.5338            2 
   55500    1.2503788   -5.8341613    4342.6214            3 
   55600    1.2165492   -5.8220059    4331.3461            3 
   55700    1.2767062   -5.8462548    4326.6154            4 
   55800    1.2490543   -5.8341325    4330.2453            9 
   55900    1.2306262    -5.880659    4346.5736            1 
   56000    1.2261044   -5.8249254    4352.4877            3 
   56100    1.2596892   -5.8276724    4346.7586            2 
   56200    1.2432153   -5.8074674    4343.0636            4 
   56300    1.2397163   -5.8265763    4344.2309            3 
   56400    1.2615328   -5.8571815    4335.2346            4 
   56500    1.2507496   -5.8799115     4339.643            3 
   56600    1.2375227   -5.8356499    4348.9862            4 
   56700    1.2723543   -5.8641805    4344.3173            3 
   56800    1.2706836   -5.8544477     4341.194            4 
   56900    1.2434714   -5.8737475    4351.9709            3 
   57000    1.2436191   -5.8396921     4363.105            5 
   57100    1.2562228   -5.8193166    4340.1621            6 
   57200    1.2809544   -5.8435332    4320.1415            5 
   57300    1.2560581   -5.8789352    4318.8838            2 
   57400    1.2576322   -5.8701289    4346.6167            4 
   57500     1.241817   -5.8303528    4362.7941            4 
   57600    1.2579476   -5.8640996    4346.5806            4 
   57700    1.2409544   -5.8718339    4320.5559            5 
   57800    1.2462492   -5.8716186    4331.4479            2 
   57900    1.2477113   -5.8352688    4343.0792            3 
   58000    1.2796348   -5.8695347    4340.0199            2 
   58100    1.2662022   -5.8679258    4336.4954            7 
   58200    1.2658618   -5.8595959    4361.9271            2 
   58300    1.2328163   -5.8350979    4372.5383            2 
   58400    1.2450476   -5.8467867    4350.9945            2 
   58500    1.2682669    -5.838389    4337.2779            2 
   58600     1.255558   -5.8925213    4335.5077            4 
   58700    1.2270576    -5.858829    4332.5019            6 
   58800    1.2345696   -5.8439125    4342.6532            3 
   58900    1.2568003   -5.8261467    4350.2024            3 
   59000    1.2374754    -5.843649    4335.0609            4 
   59100    1.2388528   -5.8509663    4335.2274            3 
   59200    1.2444562   -5.8329428    4343.6933            1 
   59300    1.2648141   -5.7990716    4352.5122            2 
   59400    1.2764805   -5.8295222    4332.5561            4 
   59500    1.2433874   -5.8329737    4340.9669            4 
   59600    1.2386948   -5.8182057    4351.5123            4 
   59700    1.2566672   -5.8077904    4369.4947            2 
   59800    1.2387282   -5.8287311    4343.3214            5 
   59900    1.2524819   -5.8050552    4336.1097            3 
   60000    1.2477861   -5.8422316    4331.2784            6 
   60100    1.2625489   -5.8596119    4328.4003            3 
   60200    1.2597322   -5.8131474    4359.5807            3 
   60300    1.2574523   -5.8390886    4354.6502            4 
   60400    1.2654688   -5.8736387    4335.7052            5 
   60500    1.2438546   -5.8711099    4334.6748            4 
   60600    1.2697779   -5.8521783    4341.9181            7 
   60700    1.2468741    -5.830742    4347.3842            7 
   60800    1.2494521   -5.8644368    4359.3753            3 
   60900    1.2116495   -5.8957461    4353.8445            3 
   61000    1.2377259   -5.8602647    4346.3866            3 
   61100    1.2748636   -5.8615967     4340.305            3 
   61200    1.2458303   -5.8402807    4337.9846            3 
   61300    1.2552062   -5.8474578    4327.6117            4 
   61400    1.2412488   -5.8386798    4328.3133            4 
   61500    1.2571911   -5.8404573    4350.7994            3 
   61600    1.2411009   -5.8378736    4352.7342            4 
   61700    1.2733544   -5.8528184    4343.5966            4 
   61800     1.250605   -5.8767336    4330.6762            5 
   61900    1.2417578   -5.8283204    4348.7731            4 
   62000    1.2450678   -5.8437466    4362.7052            3 
   62100    1.2545358   -5.8011785    4353.2785            5 
   62200    1.2664889   -5.8569366    4321.2136            4 
   62300    1.2412798   -5.8714549    4324.8183            3 
   62400    1.2096233   -5.8909634     4331.507            3 
   62500    1.2464946   -5.8679086    4338.9087            5 
   62600    1.2763625   -5.8754212    4352.5044            5 
   62700    1.2743813   -5.8265692     4350.571           11 
   62800    1.2551305   -5.8206166    4338.0589            9 
   62900    1.2391357   -5.8434095    4338.9771            8 
   63000    1.2453935   -5.8309978    4352.1982            5 
   63100    1.2525718   -5.8663233    4344.0371            4 
   63200    1.2502412   -5.8711327    4331.8312            9 
   63300    1.2717568   -5.8768157    4337.9168            4 
   63400    1.2131679   -5.8448589    4336.0979            3 
   63500     1.253218   -5.8481982    4329.3392            2 
   63600    1.2788136   -5.8495387    4335.0967            5 
   63700    1.2436394   -5.8416458    4353.3681            3 
   63800    1.2442804    -5.862428    4350.9855            2 
   63900    1.2503562   -5.8657003    4358.1779            3 
   64000    1.2620647    -5.866785    4320.5803            2 
   64100    1.2525173    -5.859634    4310.0283            3 
   64200    1.2721028   -5.8402874    4340.4919            3 
   64300    1.2335011   -5.8150994    4335.8385            3 
   64400    1.2702756   -5.8712743    4338.1406            2 
   64500    1.2740064   -5.8522793    4355.6002            5 
   64600    1.2394277   -5.8529395    4357.5591            5 
   64700    1.2441818   -5.8534929    4353.2648            4 
   64800    1.2749414   -5.8396795    4361.0758            2 
   64900     1.243087   -5.8402979    4349.2835            2 
   65000     1.255462   -5.8173545    4344.3546            4 
   65100    1.2151779    -5.816515    4335.1327            4 
   65200    1.2310952   -5.8281452    4328.4044            3 
   65300    1.2511446   -5.8324669    4322.1424            5 
   65400    1.2530971   -5.8352203    4333.3335            5 
   65500    1.2537984   -5.8592594    4341.3636            2 
   65600    1.2275143    -5.874922    4341.1707            3 
   65700    1.2386575   -5.8406637    4365.4518            4 
   65800    1.2473339   -5.8363348     4359.935            3 
   65900    1.2572887   -5.8206345    4343.1253            2 
   66000    1.2688289   -5.7911617     4366.529            3 
   66100    1.2595558   -5.8225911    4340.5077            1 
   66200     1.235606   -5.8420637     4348.803            2 
   66300     1.253429   -5.8211273    4359.8199            4 
   66400    1.2232078   -5.8180488    4349.8071            2 
   66500    1.2896868   -5.8342866    4345.3956            2 
   66600    1.2809209   -5.8373792    4336.2745            2 
   66700    1.2366645   -5.8195412    4334.0179            2 
   66800    1.2778028   -5.8414049    4337.8066            2 
   66900     1.241415   -5.8479113    4349.0315            1 
   67000    1.2481536   -5.8485421    4360.2447            6 
   67100    1.2384969   -5.8232958    4371.2043            3 
   67200    1.2307182    -5.856248    4333.6013            5 
   67300     1.240514   -5.8264158    4337.9832            5 
   67400    1.2747443   -5.8470077    4328.1904            3 
   67500     1.249688   -5.8423098    4336.5461            3 
   67600    1.2546282    -5.811749    4361.8597            3 
   67700    1.2620663   -5.8432853    4355.6064            2 
   67800    1.2245056   -5.8235612     4336.378            2 
   67900    1.2507424   -5.8160413    4327.5548            2 
   68000    1.2735481    -5.787767     4339.601            3 
   68100    1.2634045   -5.8336148    4346.8114            5 
   68200    1.2377155   -5.8183373      4350.08            4 
   68300    1.2344852   -5.7937981    4359.4943            3 
   68400    1.2190091   -5.8129799    4346.4856            2 
   68500    1.2706939   -5.8261712    4342.8628            2 
   68600    1.2562706   -5.7961228    4361.9415            4 
   68700    1.2544712   -5.7918422    4373.2002            2 
   68800    1.2475372   -5.7922845    4341.1621            3 
   68900    1.2608977   -5.7956661    4331.1376            3 
   69000    1.2598987   -5.8317909    4347.5788            3 
   69100    1.2485369   -5.8717523    4341.5233            4 
   69200    1.2422705   -5.8880756    4344.3343            2 
   69300    1.2457708    -5.823388    4358.4249            4 
   69400    1.2760948   -5.8381575    4339.5794            3 
   69500    1.2348952   -5.8048122     4335.187            4 
   69600    1.2565463   -5.8135716    4348.8525            3 
   69700    1.2506478   -5.8370252    4348.7229            2 
   69800    1.2614235   -5.8568428    4341.7427            3 
   69900    1.2701025    -5.815498    4350.8383            3 
   70000    1.2447443   -5.8245848    4343.2776            3 
   70100    1.2068316   -5.8246603    4346.4189            5 
   70200     1.265505   -5.8393961    4344.8568            2 
   70300    1.2261493    -5.805992    4358.9355            3 
   70400    1.2629136   -5.8521476    4375.3569            3 
   70500    1.2475353   -5.8664341    4354.9799            1 
   70600    1.2530875   -5.8683542    4323.5097            5 
   70700    1.2652654   -5.8566643    4327.8861            4 
   70800    1.2548331   -5.8314661    4348.9832            2 
   70900    1.2310159   -5.8435659     4353.814            4 
   71000    1.2588583   -5.8718542    4345.7421            5 
   71100    1.2590396   -5.8476736    4364.8014            5 
   71200    1.2400277   -5.8188449     4358.385            3 
   71300    1.2708651   -5.8006549    4369.6421            6 
   71400    1.2492329   -5.8217629    4354.9193            4 
   71500    1.2374645    -5.817504    4339.4492            2 
   71600    1.2806816    -5.837086    4350.6614            3 
   71700    1.2433845   -5.8260254    4346.4271            4 
   71800    1.2513742   -5.8552106    4339.5695            2 
   71900    1.2532554   -5.8263681    4336.9183            2 
   72000    1.2775603   -5.7983807    4352.9769            3 
   72100    1.2595073    -5.818413    4344.4398            5 
   72200    1.2414705   -5.8135547    4344.3158            2 
   72300    1.2369166   -5.8207795    4362.4767            2 
   72400    1.2381905   -5.8556826    4345.0553            4 
   72500    1.2507893   -5.8411923    4341.1189            4 
   72600    1.2769604    -5.838412    4347.3131            2 
   72700     1.246707   -5.8507515    4349.1796            3 
   72800    1.2381869   -5.8285049    4348.4752            4 
   72900    1.2652283   -5.8245597    4351.2507            2 
   73000    1.2471852   -5.8425454    4341.9046            4 
   73100    1.2879422   -5.8413226    4345.2551            4 
   73200    1.2371959   -5.8144515    4360.4322            4 
   73300     1.236879   -5.8402761    4345.8182            3 
   73400    1.2481383    -5.848722    4359.5457            3 
   73500    1.2467661   -5.8078246    4362.0618            3 
   73600    1.2634667   -5.8238671    4341.2338            3 
   73700    1.2539162   -5.8071147     4357.249            3 
   73800    1.2491772    -5.823121    4350.1512            3 
   73900    1.2518224   -5.8407991    4343.1299            3 
   74000    1.2413361   -5.7930743    4336.2561            3 
   74100    1.2734021   -5.8160452    4338.4053            3 
   74200    1.2408136   -5.8111108      4346.78            3 
   74300    1.2140938   -5.8392738    4351.9548            4 
   74400    1.2541848   -5.8456898    4363.7157            3 
   74500    1.2516927    -5.810574    4363.8648            5 
   74600    1.2463478   -5.8352714    4350.0002            4 
   74700     1.257933   -5.8109709    4330.0366            6 
   74800    1.2525437   -5.8122781    4339.7414            2 
   74900    1.2420148   -5.8335201    4359.4453            4 
   75000    1.2260148   -5.8686772    4369.0925            6 
   75100    1.2699135   -5.8824903    4346.0845           10 
   75200    1.2405143   -5.8606861    4327.5468            3 
   75300    1.2364032   -5.8285172    4324.1941            6 
   75400    1.2377002   -5.8337728    4342.1665            1 
   75500     1.262763   -5.8220515    4361.8795            3 
   75600    1.2262324   -5.8087997    4350.6368            5 
   75700    1.2816238   -5.8269682    4343.5913            3 
   75800     1.258672   -5.8098701      4361.21            1 
   75900     1.243211   -5.8591951    4345.1288            4 
   76000    1.2229919   -5.8541592     4334.275            4 
   76100    1.2412598   -5.8341834    4326.9646            3 
   76200    1.2849436   -5.8429354    4331.1885            3 
   76300    1.2647524   -5.8175136    4338.4742           10 
   76400    1.2237117   -5.8409668    4349.0201            2 
   76500    1.2373327    -5.836557    4357.4489            8 
   76600    1.2682778   -5.8270373     4355.096            6 
   76700    1.2521563   -5.8471553    4337.9139            4 
   76800    1.2643053   -5.8181227    4333.3267            4 
   76900    1.2519181   -5.8442572    4339.1629            5 
   77000    1.2372838   -5.8315242    4359.4091            7 
   77100    1.2391545   -5.8443965    4350.5537            3 
   77200    1.2574154   -5.8535104     4333.935            2 
   77300    1.2485415   -5.8730346    4325.0377            3 
   77400    1.2403491   -5.8368296    4339.9578            2 
   77500    1.2572732   -5.8293354    4346.9757            7 
   77600    1.2591939   -5.8382303    4350.0436            3 
   77700    1.2407883   -5.8532694    4341.1102            1 
   77800    1.2559774    -5.847451    4337.1104            2 
   77900    1.2687153   -5.8481476    4349.7348            2 
   78000    1.2501941   -5.8727716    4332.4368            4 
   78100    1.2428169   -5.8380297    4340.9764            4 
   78200    1.2585651   -5.8201813    4348.8006            4 
   78300    1.2359853   -5.8243646    4352.5325            3 
   78400    1.2423879   -5.8369295     4346.268            3 
   78500    1.2648639    -5.840675    4358.5027            1 
   78600    1.2128619   -5.8120144    4341.9826            2 
   78700    1.2530495   -5.7990068    4355.0983            4 
   78800    1.2624682   -5.8537881    4341.7951            2 
   78900    1.2383336   -5.8344117    4347.9728            2 
   79000    1.2769275   -5.8610432    4348.7192            4 
   79100    1.2440939   -5.8506544    4348.3833            2 
   79200    1.2689798    -5.860106    4337.5224            3 
   79300    1.2444494   -5.8650106    4337.7717            3 
   79400    1.2578395   -5.8481703    4352.7776            1 
   79500    1.2472012   -5.8252891    4336.8405            3 
   79600     1.224501   -5.8187368    4341.0429            3 
   79700    1.2430061   -5.8217391    4357.2209            2 
   79800    1.2606428   -5.8462796    4353.7136            3 
   79900    1.2631553    -5.844744    4344.5219            3 
   80000    1.2470248   -5.8469773    4333.3622            3 
   80100    1.2345317   -5.8655872       4338.5            2 
   80200    1.2288358   -5.8510189     4318.175            3 
   80300    1.2606943   -5.8354416    4323.0024            4 
   80400    1.2644502   -5.8198112    4321.4498            4 
   80500    1.2591473   -5.8806577    4326.0707            4 
   80600    1.2561544   -5.8703582    4345.3982            3 
   80700    1.2371847   -5.8225178    4360.4578            5 
   80800    1.2829118   -5.8141856    4359.7037            4 
   80900    1.2642279   -5.8352421    4340.2811            3 
   81000    1.2308958   -5.8361732    4326.1106            3 
   81100    1.2817854   -5.8801061    4345.8332            3 
   81200    1.2292081   -5.8351533     4365.586            2 
   81300    1.2349362   -5.8327633    4366.7449            1 
   81400    1.2310452   -5.8817459    4323.9965            3 
   81500    1.2440312   -5.8656873    4321.1188            3 
   81600    1.2458355    -5.833339     4341.953            3 
   81700    1.2511688   -5.8220834    4353.7964            5 
   81800    1.2696403   -5.7860935    4361.3502            3 
   81900    1.2451912   -5.7950733    4338.5991            4 
   82000    1.2678605   -5.8365598      4329.13            2 
   82100    1.2253083   -5.8424266    4341.0234            4 
   82200    1.2398018   -5.8270397     4341.593            4 
   82300    1.2276242   -5.8501912    4333.7973            4 
   82400      1.24846   -5.8498776    4332.6221            3 
   82500    1.2635806   -5.8507353    4319.6126            1 
   82600    1.2460022   -5.8402763    4319.3878            3 
   82700    1.2632638   -5.8153082    4336.9031            3 
   82800    1.2334827   -5.8338805    4343.6738            3 
   82900     1.253371   -5.8473627     4349.286            2 
   83000    1.2672736   -5.8319369    4360.0471            2 
   83100    1.2188692   -5.8246648    4353.7655            1 
   83200     1.232122   -5.8687989    4339.5314            2 
   83300    1.2465523   -5.8350371     4327.696            3 
   83400     1.280231   -5.8603414    4333.0721            4 
   83500    1.2552443    -5.853112    4331.9137            2 
   83600    1.2452447   -5.8337102    4335.7361            4 
   83700    1.2713855   -5.8457166    4352.1687            3 
   83800    1.2342652   -5.8353857    4338.7037            3 
   83900    1.2537926   -5.8398232    4338.9649            2 
   84000    1.2339468   -5.7940391    4370.2842            4 
   84100    1.2313202   -5.8334576    4356.8948            2 
   84200    1.2640014    -5.845803    4336.7347            3 
   84300    1.2631247   -5.8361269    4336.6499            3 
   84400    1.2607288    -5.817086    4359.8905            3 
   84500    1.2408482   -5.8293241    4361.4236            3 
   84600    1.2686615   -5.8578856    4339.3542            2 
   84700    1.2448515   -5.8649568    4334.8927            6 
   84800    1.2353898   -5.8773267    4321.8988            3 
   84900    1.2549214     -5.86428    4333.9564            6 
   85000    1.2524258   -5.8136635    4350.6778            2 
   85100    1.2443825   -5.8554115    4334.3148            5 
   85200    1.2530699   -5.8541719    4328.7983            3 
   85300    1.2627361   -5.8153093     4344.762            3 
   85400    1.2502796   -5.8353942       4345.9            3 
   85500    1.2510382   -5.8533893     4329.626            2 
   85600     1.263598   -5.8534573    4327.6074            3 
   85700    1.2386383    -5.786259    4344.0953            3 
   85800    1.2717306   -5.8186757    4361.5349            7 
   85900    1.2548849   -5.8594385    4336.8657            1 
   86000    1.2374923   -5.8501574    4351.1215            3 
   86100     1.223567   -5.8073355     4367.389            2 
   86200    1.2728326   -5.8444878    4356.6731            2 
   86300    1.2331471    -5.836135    4336.8024            3 
   86400    1.2785518   -5.8466144    4330.7184            2 
   86500    1.2439177   -5.8422911    4342.3703            2 
   86600    1.2325591   -5.8783845    4329.4396            3 
   86700    1.2361738   -5.8431226    4359.9929            2 
   86800    1.2438136    -5.843801    4354.8782            5 
   86900    1.2688956   -5.8545214    4345.0868            2 
   87000    1.2628443      -5.8275    4366.7483            2 
   87100    1.2326744   -5.8234321    4362.3129            2 
   87200    1.2465815   -5.8365809    4351.9487            2 
   87300     1.277483   -5.8695368    4326.0779            2 
   87400      1.25739    -5.872247    4318.6853           11 
   87500    1.2540008   -5.8361509    4340.0531            2 
   87600    1.2552519   -5.8305109    4347.0203            3 
   87700    1.2443833   -5.8714218    4332.7424            3 
   87800    1.2595927   -5.8636326    4337.5221            3 
   87900    1.2617003   -5.8253993    4344.2688            5 
   88000    1.2529698   -5.8164857    4361.7426            3 
   88100    1.2486909   -5.8363913    4339.9744            5 
   88200    1.2465317   -5.8569828    4337.7336            5 
   88300    1.2468041    -5.808517    4357.4729            3 
   88400    1.2541904   -5.8695203     4341.221            3 
   88500    1.2373846   -5.8363892       4334.1            1 
   88600    1.2707322   -5.8261832    4335.9856            4 
   88700    1.2360597   -5.8066454    4341.0994            4 
   88800    1.2281523   -5.8397205    4337.5425            1 
   88900    1.2674926   -5.8368767    4345.3295            3 
   89000    1.2417894   -5.8109806    4344.9219            2 
   89100    1.2577977   -5.8065189    4330.1012            4 
   89200    1.2761211   -5.7771876    4347.1102            2 
   89300     1.265345   -5.8302271    4348.4596            3 
   89400    1.2353163   -5.8270084     4362.408            3 
   89500    1.2273097    -5.788472    4359.4389            2 
   89600    1.2618576   -5.8369163    4337.0776            5 
   89700    1.2595181   -5.8403297    4330.4894            6 
   89800    1.2375418   -5.8439547    4352.4047            2 
   89900    1.2529392   -5.8510872    4357.7065            2 
   90000    1.2379516   -5.8753857    4336.6898            2 
   90100    1.2511179   -5.8474304    4336.2146            5 
   90200    1.2564847   -5.8412778    4346.6132            3 
   90300    1.2480275   -5.8483012    4355.8161            2 
   90400    1.2290722   -5.8610036     4329.668            2 
   90500    1.2414683   -5.8631063     4337.746            3 
   90600    1.2526671   -5.8837665     4341.765            6 
   90700    1.2552539    -5.886102    4348.4448            5 
   90800     1.256558    -5.825425    4348.2907            3 
   90900    1.2418242   -5.8517891    4334.7763            3 
   91000    1.2625547   -5.8465118    4336.1211            3 
   91100    1.2489647   -5.8287281    4345.7288            4 
   91200    1.2417596   -5.8295221    4355.0828            4 
   91300    1.2432637    -5.819089     4347.574            4 
   91400    1.2422885   -5.8517784    4348.7693            2 
   91500     1.273482   -5.8473775    4357.8654            2 
   91600    1.2442722   -5.8162099    4355.2686            2 
   91700    1.2370839   -5.8557923    4336.0624            4 
   91800    1.2529048   -5.8362027    4348.6631            6 
   91900    1.2212835    -5.852469    4350.2324            3 
   92000    1.2592922       -5.853    4341.5899            3 
   92100    1.2895829   -5.8174352    4345.0962            3 
   92200    1.2414958   -5.8116515    4348.4702            4 
   92300    1.2025298   -5.8200944    4344.5905            3 
   92400    1.2546505   -5.8321679    4338.8342            3 
   92500    1.2293485   -5.8354456    4329.3261            2 
   92600     1.249602    -5.863899    4332.6051            2 
   92700    1.2641044   -5.8306945    4328.8011            3 
   92800    1.2510399   -5.8257937    4339.7338            2 
   92900    1.2347418   -5.8530484    4339.1319            3 
   93000     1.241248   -5.8470553     4354.226            5 
   93100    1.2520724   -5.8314859     4348.294            5 
   93200    1.2531341   -5.8790065      4326.55            3 
   93300    1.2583412   -5.8895978    4339.6815            3 
   93400    1.2314159   -5.8540656    4340.1494            3 
   93500    1.2593369   -5.8383283     4339.073            2 
   93600    1.2531318   -5.8373155    4348.6839            2 
   93700    1.2466647   -5.8715215    4333.1721            6 
   93800    1.2582443   -5.8594474    4329.6771            2 
   93900    1.2524134   -5.8179125    4347.3886            2 
   94000    1.2519164   -5.8084305    4359.0431            4 
   94100    1.2434885   -5.8360535    4350.9489            3 
   94200    1.2303436   -5.8673016    4350.6052            6 
   94300    1.2738962   -5.8479582      4340.27            5 
   94400    1.2508416   -5.8242679    4337.3201            2 
   94500    1.2405116   -5.8518929    4335.2004            2 
   94600    1.2579272   -5.8740087    4332.7844            3 
   94700    1.2375218   -5.8419701      4342.54            5 
   94800    1.2494439    -5.827165    4332.3811            2 
   94900     1.277123   -5.8260787    4335.4662            6 
   95000    1.2417455   -5.8393525    4339.1932            2 
   95100      1.23502   -5.8668277    4351.1435            4 
   95200    1.2151258   -5.8777637     4332.647            6 
   95300    1.2648881   -5.8737405    4330.8302            4 
   95400    1.2634682   -5.8857704    4336.4176            2 
   95500    1.2644894   -5.8294734    4353.9979            3 
   95600    1.2284087   -5.8304531    4352.1711            3 
   95700    1.2729119    -5.871991    4345.2149            2 
   95800    1.2775334   -5.8636044    4337.2994            3 
   95900    1.2372037   -5.8511711    4336.1782            2 
   96000     1.200826    -5.864922    4344.7525            2 
   96100    1.2482079    -5.877545    4358.9645            3 
   96200     1.264712   -5.8785067    4347.4786            4 
   96300    1.2388463   -5.8295713    4342.4399            2 
   96400    1.2777166   -5.8216068    4348.2577            2 
   96500    1.2649939    -5.842074    4346.6618            2 
   96600    1.2365693    -5.842682    4354.5531            2 
   96700    1.2623301   -5.8412627    4355.0831            3 
   96800     1.248287   -5.8416492    4345.1334            4 
   96900    1.2546221     -5.86714    4334.6889            6 
   97000    1.2229766   -5.8897548    4336.7092            3 
   97100     1.226861   -5.8446869    4339.9357            3 
   97200    1.2456783   -5.8465508    4323.5604            3 
   97300    1.2728047   -5.8349052    4307.9637            2 
   97400     1.235353   -5.8216894    4332.8854            4 
   97500    1.2478985    -5.824328    4345.6451            5 
   97600     1.224464   -5.8306625    4348.4602            2 
   97700    1.2749585   -5.8820456    4337.9667            4 
   97800    1.2241197   -5.8395324    4324.8012            3 
   97900     1.244249   -5.8623351    4321.2061            3 
   98000    1.2414498   -5.8409107    4342.2763            3 
   98100     1.244271   -5.8569794     4350.098            5 
   98200    1.2568833   -5.8894528    4320.9811            4 
   98300    1.2667393   -5.8455316    4314.8629            3 
   98400     1.272956   -5.8405283    4326.1858            4 
   98500    1.2311719   -5.8543712    4332.8189            2 
   98600    1.2395772   -5.8532263    4342.2961            4 
   98700    1.2379246   -5.8162525    4364.3222            5 
   98800      1.26025   -5.8089024    4381.7103            4 
   98900    1.2484709   -5.8300242    4332.9698            3 
   99000    1.2639065   -5.8477919    4340.0017            2 
   99100    1.2382963    -5.844605    4348.7019            3 
   99200    1.2401769   -5.8736535    4327.5785            3 
   99300    1.2773072   -5.8797792    4334.1456            3 
   99400    1.2414161   -5.8366551    4339.9278            3 
   99500    1.2451384   -5.8709119    4326.2518            3 
   99600    1.2654163    -5.857432    4339.7001            2 
   99700    1.2633973   -5.7998762    4340.4217            3 
   99800    1.2516421   -5.8450368    4343.9576            1 
   99900    1.2223907   -5.8809915    4336.0122            3 
  100000    1.2228626   -5.8346282    4362.0675            2 
  100100     1.252634   -5.8347047     4359.771            5 
  100200    1.2316755   -5.8448105    4355.0599            4 
  100300    1.2559333   -5.8143902     4364.459            2 
  100400    1.2539595   -5.8211736    4352.6161            6 
  100500    1.2515122   -5.8110684    4335.6447            4 
  100600    1.2580893   -5.8308008    4341.4365            3 
  100700    1.2382138   -5.8530862      4339.78            2 
  100800    1.2481579   -5.8610458    4348.1143            5 
  100900    1.2503713   -5.8875766    4330.0763            3 
  101000    1.2513056    -5.862171    4317.4998            3 
  101100    1.2595291   -5.8439835     4350.502            6 
  101200    1.2248171   -5.8469064    4360.6218            3 
  101300    1.2633792   -5.8352181    4330.4319            5 
  101400    1.2586851   -5.8303582    4335.9269            5 
  101500    1.2659761   -5.8332998    4355.9289            5 
  101600    1.2409817   -5.8366164    4358.6452            2 
  101700    1.2289174   -5.8574781     4347.411            2 
  101800    1.2706549   -5.8477842    4349.4828            5 
  101900     1.259832   -5.8639651    4340.0029            3 
  102000    1.2479658    -5.882964    4329.5882            3 
  102100    1.2698501   -5.8742158    4338.1029            4 
  102200    1.2662585   -5.8670715    4340.2033            3 
  102300     1.247006    -5.892034    4324.4041            4 
  102400    1.2457896   -5.8468201    4344.1419            4 
  102500    1.2743753   -5.8573756    4353.6458            6 
  102600      1.24934   -5.8829398    4349.7854            3 
  102700    1.2451135   -5.8896459     4349.362            5 
  102800    1.2530602   -5.8228332    4353.1913            2 
  102900    1.2432889   -5.8342245    4338.3037            4 
  103000    1.2730667   -5.8604612    4309.6832            3 
  103100    1.2591402   -5.8177653    4337.6379            4 
  103200    1.2313623   -5.8193231     4343.093            2 
  103300    1.2626616   -5.8392089    4330.4165            3 
  103400    1.2593086   -5.9013845     4317.034            2 
  103500     1.232426   -5.8639532    4332.3085            4 
  103600     1.265154   -5.8625087     4354.078            3 
  103700    1.2399819   -5.8478968    4353.4785            4 
  103800    1.2450362   -5.8557826    4342.1994            2 
  103900    1.2734716   -5.8530698    4339.7672            4 
  104000    1.2404433   -5.8533316    4345.9054            4 
Loop time of 102.862 on 64 procs for 100000 steps with 4000 atoms

Performance: 167992.502 tau/day, 972.179 timesteps/s
99.9% CPU use with 64 MPI tasks x no OpenMP threads

MPI task timing breakdown:
Section |  min time  |  avg time  |  max time  |%varavg| %total
---------------------------------------------------------------
Pair    | 7.0234     | 7.1209     | 7.268      |   2.1 |  6.92
Neigh   | 1.1743     | 1.1888     | 1.2332     |   0.9 |  1.16
Comm    | 10.053     | 11.759     | 13.269     |  22.3 | 11.43
Output  | 5.7354     | 5.7368     | 5.7495     |   0.1 |  5.58
Modify  | 72.865     | 75.068     | 77.421     |  13.4 | 72.98
Other   |            | 1.988      |            |       |  1.93

Nlocal:        62.5000 ave          67 max          56 min
Histogram: 2 2 3 5 11 11 7 7 8 8
Nghost:        1403.61 ave        1422 max        1382 min
Histogram: 2 2 4 11 11 9 5 7 9 4
Neighs:        6562.08 ave        7139 max        6012 min
Histogram: 2 7 9 7 11 6 7 5 4 6
FullNghs:      13123.8 ave       14288 max       11612 min
Histogram: 1 1 5 5 16 9 6 10 7 4

Total # of neighbors = 839926
Ave neighs/atom = 209.98150
Neighbor list builds = 6654
Dangerous builds = 0

#clear
#
#next RN
#
#jump SELF
Total wall time: 0:01:43
