
units lj                  # Use reduced LJ style units
atom_style atomic         # Uncharged point particles
atom_modify map hash      # Needed for indexing of clusters etc
                          # Used to be able to find where atoms are in relation to each other.

# Define a lattice with which to populate the simulation cell. With units
# set to 'lj' the second argument to the lattice command is the reduced
# density rho* and the spacings are multiples of that required to acheive
# that density. Also define a simulation cell called 'box' in lattice units
# and fill it with atoms. Here we're creating a box which is ten lattice
# constants in each direction.
lattice fcc 1.0 spacing 1 1 1                 # All equal sizes - gives the right reduced density.
Lattice spacing in x,y,z = 1.5874011 1.5874011 1.5874011

region box block 0 10 0 10 0 10 units lattice # Defines a region, "box", in lattice units
create_box 1 box                              # Creates a simulation box as specified above,
Created orthogonal box = (0.0000000 0.0000000 0.0000000) to (15.874011 15.874011 15.874011)
  3 by 4 by 4 MPI processor grid
                                              # with one type of atom
create_atoms 1 box                            # Creates particles on lattice points
Created 4000 atoms
  using lattice units in orthogonal box = (0.0000000 0.0000000 0.0000000) to (15.874011 15.874011 15.874011)
  create_atoms CPU = 0.002 seconds


# Set the mass of the first (and only) atom type.
mass 1 1.0

# Lennard-Jones interactions between particles, 3.5 sigma cut-off. Apply
# long range tail corrections to energy and pressure and set all coefficients
# to unity since we work in reduced units here. Note that this doesn't shift
# the potential such that it goes to zero at the cutoff. That would require
# pair_modify('shift', 'yes').
pair_style lj/cut  3.5      # non-GPU version
pair_modify tail  yes
pair_coeff 1  1  1.0  1.0   # Intearaction between 1 and 1 set with epsilon = 1 and sigma = 1

write_data data.*
System init for write_data ...
Neighbor list info ...
  update every 1 steps, delay 10 steps, check yes
  max neighbors/atom: 2000, page size: 100000
  master list distance cutoff = 3.8
  ghost atom cutoff = 3.8
  binsize = 1.9, bins = 9 9 9
  1 neighbor lists, perpetual/occasional/extra = 1 0 0
  (1) pair lj/cut, perpetual
      attributes: half, newton on
      pair build: half/bin/atomonly/newton
      stencil: half/bin/3d
      bin: standard

#############################
#   M E L T   S Y S T E M   #
#############################

velocity all create 2.4 1741580 mom yes dist gaussian # Assign velocities
                                                    # Temperature 2.4, random number seed, zero linear momentum
						                                                        # Gaussian distribution

timestep 0.002   # simulation timestep
thermo 1000       # output thermodynamic data every 1000 steps

# Define a fix  in this case with index 1 applied to all
# particles in the simulation. This fix is for simulations
# in the anisotropic NPT ensemble. Note that we use the MTK
# correction.
fix 1 all npt temp 2.4 2.4 0.1 iso 5.68 5.68 0.5 mtk yes tchain 5 pchain 5 # Use NPT ensemble
                                                                         # Set temperature and pressure and damping
                                                                         # Numbers of thermostats in chain and in barostat
run 1000         # run for 10000 steps
Per MPI rank memory allocation (min/avg/max) = 3.642 | 3.644 | 3.648 Mbytes
Step Temp E_pair E_mol TotEng Press Volume 
       0          2.4   -8.3859253            0   -4.7868253   -2.2405722         4000 
    1000    2.3665579   -4.4849007            0  -0.93595129    5.3827989    5183.0868 
Loop time of 0.227501 on 48 procs for 1000 steps with 4000 atoms

Performance: 759557.079 tau/day, 4395.585 timesteps/s
99.1% CPU use with 48 MPI tasks x no OpenMP threads

MPI task timing breakdown:
Section |  min time  |  avg time  |  max time  |%varavg| %total
---------------------------------------------------------------
Pair    | 0.09099    | 0.099593   | 0.10713    |   1.2 | 43.78
Neigh   | 0.017896   | 0.018966   | 0.020132   |   0.4 |  8.34
Comm    | 0.065032   | 0.075296   | 0.084813   |   1.6 | 33.10
Output  | 2.5792e-05 | 2.6421e-05 | 3.4867e-05 |   0.0 |  0.01
Modify  | 0.029405   | 0.032074   | 0.034235   |   0.6 | 14.10
Other   |            | 0.001546   |            |       |  0.68

Nlocal:        83.3333 ave          91 max          76 min
Histogram: 3 1 5 5 12 3 10 3 4 2
Nghost:        1382.46 ave        1409 max        1358 min
Histogram: 1 2 4 9 12 9 4 3 2 2
Neighs:        7343.96 ave        8183 max        6423 min
Histogram: 2 0 5 9 7 7 5 7 4 2

Total # of neighbors = 352510
Ave neighs/atom = 88.127500
Neighbor list builds = 88
Dangerous builds = 18

# Equilibrate just above the melting temperature to avoid step fn in T

fix 1 all npt temp 1.25 1.25 0.1 iso 5.68 5.68 0.5 mtk yes tchain 5 pchain 5
run 1000
Per MPI rank memory allocation (min/avg/max) = 3.642 | 3.644 | 3.648 Mbytes
Step Temp E_pair E_mol TotEng Press Volume 
    1000    2.3665579   -4.4849007            0  -0.93595129    5.3827989    5183.0868 
    2000    1.2409378   -5.8351603            0   -3.9742191    5.6352422    4349.8189 
Loop time of 0.213796 on 48 procs for 1000 steps with 4000 atoms

Performance: 808247.962 tau/day, 4677.361 timesteps/s
99.6% CPU use with 48 MPI tasks x no OpenMP threads

MPI task timing breakdown:
Section |  min time  |  avg time  |  max time  |%varavg| %total
---------------------------------------------------------------
Pair    | 0.091207   | 0.099271   | 0.10663    |   1.0 | 46.43
Neigh   | 0.015654   | 0.016308   | 0.017351   |   0.3 |  7.63
Comm    | 0.062946   | 0.073214   | 0.081305   |   1.3 | 34.24
Output  | 2.3836e-05 | 2.4697e-05 | 3.0518e-05 |   0.0 |  0.01
Modify  | 0.020705   | 0.023028   | 0.026617   |   0.9 | 10.77
Other   |            | 0.00195    |            |       |  0.91

Nlocal:        83.3333 ave          92 max          76 min
Histogram: 3 4 3 11 3 10 8 2 3 1
Nghost:        1552.58 ave        1572 max        1532 min
Histogram: 3 2 3 5 7 13 5 4 0 6
Neighs:        8747.67 ave        9575 max        7948 min
Histogram: 5 1 3 11 5 4 9 4 4 2

Total # of neighbors = 419888
Ave neighs/atom = 104.97200
Neighbor list builds = 75
Dangerous builds = 9


# Small amount of linear quench

fix 1 all npt temp 1.25 ${temp} 0.1 iso 5.68 5.68 0.5 mtk yes tchain 5 pchain 5
fix 1 all npt temp 1.25 1 0.1 iso 5.68 5.68 0.5 mtk yes tchain 5 pchain 5
run 2000
Per MPI rank memory allocation (min/avg/max) = 3.643 | 3.645 | 3.648 Mbytes
Step Temp E_pair E_mol TotEng Press Volume 
    2000    1.2409378   -5.8351603            0   -3.9742191    5.6352422    4349.8189 
    3000     1.135173   -5.9987219            0    -4.296388    5.8123708    4258.2977 
    4000    1.0107397    -6.205419            0   -4.6896884    5.9540253    4159.2664 
Loop time of 0.442304 on 48 procs for 2000 steps with 4000 atoms

Performance: 781362.939 tau/day, 4521.776 timesteps/s
99.6% CPU use with 48 MPI tasks x no OpenMP threads

MPI task timing breakdown:
Section |  min time  |  avg time  |  max time  |%varavg| %total
---------------------------------------------------------------
Pair    | 0.19971    | 0.21161    | 0.222      |   0.9 | 47.84
Neigh   | 0.027726   | 0.028894   | 0.030036   |   0.2 |  6.53
Comm    | 0.13947    | 0.15045    | 0.16338    |   1.3 | 34.02
Output  | 4.8224e-05 | 4.9065e-05 | 6.1564e-05 |   0.0 |  0.01
Modify  | 0.041241   | 0.046608   | 0.051771   |   1.3 | 10.54
Other   |            | 0.004693   |            |       |  1.06

Nlocal:        83.3333 ave          89 max          75 min
Histogram: 1 1 4 3 5 10 9 5 3 7
Nghost:        1602.98 ave        1620 max        1588 min
Histogram: 4 2 8 6 7 7 4 3 4 3
Neighs:        9170.56 ave        9986 max        8103 min
Histogram: 1 2 1 3 11 10 8 5 2 5

Total # of neighbors = 440187
Ave neighs/atom = 110.04675
Neighbor list builds = 128
Dangerous builds = 0

#############################
# F R E E Z E  S Y S T E M  #
#############################

# Define solid atoms. This closely follows ten Wolde  Ruiz-Montero and Frenkel  Faraday Discuss  1996  104  93-110
# Compute components of the per-atom q6 vector
compute q6 all orientorder/atom degrees 1 6 components 6 nnn NULL cutoff 1.3 # compute the Q6 parameter.
                                                                             # Use all neighbours within 1.3 unit cell.

# get number of connections
compute coord_number all coord/atom orientorder q6 0.5

# An atom is solid if it has 8 or more connections (of a possible 14)
variable is_solid atom c_coord_number>=8
group solid dynamic all var is_solid    # Must be dynamic to update
dynamic group solid defined

# do clustering
compute cluster solid cluster/atom 1.3 # Create a cluster where all atoms within are solid and max 1.3 units from another member

# define chunks one chunk per cluster
compute clus_chunks solid chunk/atom c_cluster nchunk every compress yes  # Says which atoms are in which chunk

# count the size of each chunk
compute size_chunks solid property/chunk clus_chunks count


# Find the maximum entry in the vector of chunk sizes
variable max_n equal max(c_size_chunks)


# Thermo style which includes this variable
thermo_style custom step temp pe vol v_max_n

thermo ${N}  # Print the thermo information every 100 steps
thermo 1000  

# Reset the npt fix at a lower temperature (below freezing)
fix 1  all npt temp  ${temp} ${temp}  0.1  iso  5.68  5.68  0.5  mtk yes tchain  5  pchain  5
fix 1  all npt temp  1 ${temp}  0.1  iso  5.68  5.68  0.5  mtk yes tchain  5  pchain  5
fix 1  all npt temp  1 1  0.1  iso  5.68  5.68  0.5  mtk yes tchain  5  pchain  5

dump dmp2 all dcd ${N} traj_${rand}.dcd
dump dmp2 all dcd 1000 traj_${rand}.dcd
dump dmp2 all dcd 1000 traj_462431.dcd


# fix rnuntil all halt ${N} v_max_n >= 3980 error soft message no   # Stop when solidified


run 1000000 # 5000000  # Run for this many steps
Neighbor list info ...
  update every 1 steps, delay 10 steps, check yes
  max neighbors/atom: 2000, page size: 100000
  master list distance cutoff = 3.8
  ghost atom cutoff = 3.8
  binsize = 1.9, bins = 9 9 9
  4 neighbor lists, perpetual/occasional/extra = 1 3 0
  (1) pair lj/cut, perpetual
      attributes: half, newton on
      pair build: half/bin/atomonly/newton
      stencil: half/bin/3d
      bin: standard
  (2) compute orientorder/atom, occasional
      attributes: full, newton on
      pair build: full/bin/atomonly
      stencil: full/bin/3d
      bin: standard
  (3) compute coord/atom, occasional
      attributes: full, newton on
      pair build: full/bin/atomonly
      stencil: full/bin/3d
      bin: standard
  (4) compute cluster/atom, occasional
      attributes: full, newton on
      pair build: full/bin/atomonly
      stencil: full/bin/3d
      bin: standard
Per MPI rank memory allocation (min/avg/max) = 9.366 | 9.369 | 9.375 Mbytes
Step Temp PotEng Volume v_max_n 
    4000    1.0107397    -6.205419    4159.2664            8 
    5000    1.0063688   -6.2690183    4164.5359           10 
    6000   0.99199857    -6.261442     4163.365            4 
    7000    1.0094444   -6.2952248    4143.6031            3 
    8000   0.99423637   -6.2992263    4153.3208            8 
    9000   0.97043347   -6.2836824    4129.5433            6 
   10000    1.0114424   -6.2747163    4150.4073            5 
   11000   0.98393892   -6.2860895    4148.3189            6 
   12000    1.0123343   -6.2794617    4148.1811            8 
   13000   0.99809018   -6.2584953    4160.4695           12 
   14000   0.98445368   -6.2716422     4163.169            8 
   15000    1.0119805   -6.2737717    4159.9275            2 
   16000    1.0108252   -6.2755899    4156.2503            5 
   17000    1.0059152   -6.2436474    4182.6652            5 
   18000    1.0097533   -6.2930875    4145.0753            8 
   19000   0.97876387   -6.2855184    4154.4689           12 
   20000    1.0084037    -6.253769    4165.4714            5 
   21000    1.0139283   -6.2561813     4141.056            5 
   22000    1.0166686    -6.287765    4143.3884            7 
   23000   0.98226378   -6.2921087    4131.4339            5 
   24000   0.98940139   -6.2822707    4151.0776           10 
   25000   0.99305833   -6.2795609    4132.0153            5 
   26000    1.0055923   -6.2777999    4147.2439            7 
   27000    1.0021483   -6.2984342    4154.3247            5 
   28000   0.97979672   -6.2771241     4165.318            5 
   29000    1.0070013   -6.2971633    4153.7857            7 
   30000    1.0078189   -6.2515353     4139.492            4 
   31000    1.0016947   -6.2473102    4144.1477            3 
   32000    0.9876142   -6.2498352    4152.4381            4 
   33000   0.99412825   -6.2810183    4140.1212            5 
   34000    1.0107961   -6.2898082    4139.9604            6 
   35000    0.9894327   -6.2811308    4164.3828            6 
   36000    1.0049039   -6.2976711    4148.7653            4 
   37000    0.9805517   -6.2946011    4166.5288            5 
   38000    1.0101701   -6.2524523    4145.0937           10 
   39000    1.0122631   -6.2759211    4157.4132            3 
   40000    0.9949759   -6.2911022    4161.3244            7 
   41000    1.0120434   -6.2718908    4150.2605            6 
   42000    1.0302175   -6.2628306    4153.5543            9 
   43000   0.97363338   -6.2632582    4158.6647            5 
   44000    1.0116076   -6.3081431    4134.1641            4 
   45000   0.96811077   -6.2741722     4150.196            6 
   46000    1.0142037   -6.2995702    4148.0831           20 
   47000   0.99603072   -6.3019557    4143.5677            7 
   48000    0.9840439   -6.2694128    4155.3619            5 
   49000    1.0091035   -6.2954863    4149.9004            7 
   50000    1.0102897   -6.2608677    4163.2244            7 
   51000    1.0029509   -6.2512108    4164.1392            5 
   52000   0.99473761   -6.2528346    4161.7054            5 
   53000   0.98312109   -6.2833771    4162.6828            4 
   54000    1.0044321   -6.2703173    4143.3718            8 
   55000   0.98971336   -6.2270731    4172.8501            3 
   56000    1.0051092   -6.2823908    4149.7788            8 
   57000   0.99334556   -6.2677448    4129.1722            5 
   58000   0.98847776   -6.2667659    4139.4088            3 
   59000   0.99516732   -6.2593061    4152.8914            3 
   60000   0.97613103   -6.2665827    4174.6642            6 
   61000    1.0014244    -6.257817     4161.614            5 
   62000    1.0100135   -6.2657029    4138.5806           19 
   63000   0.98689261   -6.2983452    4155.4581            5 
   64000    1.0035382   -6.2876226    4144.2718           12 
   65000   0.99255801   -6.2664537    4154.4577            3 
   66000    1.0059937    -6.302611    4147.3097            7 
   67000    1.0250489   -6.2688646    4155.2787            8 
   68000    1.0134049   -6.2947993    4153.3618           10 
   69000    1.0072695   -6.2678004    4152.5112           11 
   70000   0.98893538   -6.2765586    4141.7444            8 
   71000   0.99963928   -6.2360208    4156.2189            7 
   72000   0.98046255   -6.2728547    4170.0969            7 
   73000    1.0081446   -6.2845638     4149.986            6 
   74000   0.98837369   -6.2865015    4154.4298           15 
   75000   0.98448846   -6.2954451    4145.5874            8 
   76000    1.0159338   -6.2760067    4158.9573            3 
   77000    1.0159919   -6.2772027    4150.7576            3 
   78000    1.0089503   -6.2568445    4151.6337            5 
   79000    1.0171734   -6.2512187    4149.9523            4 
   80000    1.0032973   -6.2578364     4151.086           13 
   81000   0.97756108   -6.2546434    4158.4349            7 
   82000   0.98121013   -6.2696121    4158.5156            5 
   83000    1.0018388   -6.2957126    4159.7901            7 
   84000    1.0024428   -6.2966754    4137.8432            7 
   85000   0.98083654   -6.2511091    4155.9767            7 
   86000    1.0077647   -6.2639366    4163.8337           13 
   87000   0.96561597   -6.2435269    4159.6911            6 
   88000   0.98989224   -6.2628331    4173.5052           11 
   89000    1.0006953   -6.2486518    4151.7776           19 
   90000   0.98547388   -6.3149368    4146.5098            5 
   91000    1.0026317    -6.257565    4164.6257            9 
   92000    1.0069365   -6.2861375     4140.384            4 
   93000    0.9918745   -6.2625638    4137.9766            4 
   94000    1.0180103    -6.274322    4169.4366           10 
   95000   0.98377297   -6.2941097    4139.2709           16 
   96000    1.0026732   -6.2719631    4155.3931            9 
   97000    1.0092998   -6.2644398    4158.4735            9 
   98000   0.99738139   -6.2698684    4146.5189            6 
   99000   0.97379364   -6.2610033    4168.0893            4 
  100000    1.0076583   -6.2590793    4163.7983            3 
  101000     1.013661   -6.2696884    4150.9106            5 
  102000    1.0055798   -6.2554446    4147.4633           10 
  103000    1.0345836   -6.2673859    4157.5603            4 
  104000   0.99773166   -6.2518931    4151.1092            6 
  105000    1.0075522    -6.308064    4155.1306            7 
  106000     1.017534   -6.2419332    4180.3852           16 
  107000    1.0117354   -6.2612738    4167.6669           19 
  108000      1.01595   -6.2587977    4163.7758            8 
  109000   0.99261316   -6.2888198    4145.8865           11 
  110000    1.0009642   -6.3112414    4155.6866           13 
  111000      1.00604   -6.2913473    4148.0748           12 
  112000    1.0164516   -6.2734162    4147.7821            6 
  113000   0.98452211   -6.3006844    4150.3023            5 
  114000   0.98132757   -6.2627146    4157.4601            6 
  115000   0.99449549    -6.258517    4146.0043            4 
  116000    1.0160614   -6.2577045    4142.2362            6 
  117000   0.99284419   -6.2722417    4145.9129           10 
  118000     1.012416   -6.3038409    4149.0037            8 
  119000    1.0186314   -6.2870934    4144.5056            8 
  120000   0.99123875   -6.2704514    4142.7804            5 
  121000   0.99587062   -6.2559373    4150.7798            8 
  122000   0.99147557   -6.2601824    4145.6132            6 
  123000    1.0080835   -6.2801911    4149.7031            6 
  124000    1.0078074   -6.2704919    4152.6296            5 
  125000    0.9943703   -6.2428248    4151.8263            4 
  126000    1.0114801   -6.2532909    4159.0778            7 
  127000    1.0098691   -6.2567065    4159.5775            6 
  128000    1.0141454     -6.28196    4154.9887            6 
  129000   0.98882645   -6.2752856    4155.2125            6 
  130000    1.0020493   -6.2656804    4154.3196            5 
  131000    1.0130111   -6.2581344    4168.9759            4 
  132000    1.0048321   -6.2738701    4150.3604            8 
  133000   0.98916727   -6.2959179    4141.8044           10 
  134000   0.99769716   -6.2806816    4145.7465           17 
  135000   0.98476636    -6.284482    4151.3136            6 
  136000    1.0095601   -6.2700903    4154.1497            9 
  137000    1.0016568   -6.2449665    4170.1746            8 
  138000   0.97175637   -6.2772209    4150.3445            4 
  139000   0.98002206   -6.2938803    4161.0092           18 
  140000    1.0150765   -6.2711798    4140.7841            7 
  141000   0.99150328   -6.2804531    4155.4611            8 
  142000   0.98252243   -6.3037959    4150.6932            4 
  143000   0.98770378   -6.2996433    4141.6187            7 
  144000    1.0023703   -6.2789605    4156.9736            5 
  145000    0.9858852   -6.2920175    4144.5621            4 
  146000   0.98997156    -6.270081    4164.3786            4 
  147000    0.9987631   -6.2860354    4144.4681           11 
  148000   0.99287031   -6.2887677    4146.5567            9 
  149000    0.9849214   -6.2865835    4149.3662            6 
  150000    1.0146272   -6.2680001     4154.819            5 
  151000    1.0166596   -6.2733128    4139.4974            6 
  152000    1.0044614   -6.2553771    4165.9696            8 
  153000    1.0065287   -6.2681949     4162.262            5 
  154000    1.0102345   -6.2743073    4144.9324           10 
  155000    0.9799227    -6.273496    4148.4774            7 
  156000   0.99948256   -6.3008004    4138.7241            7 
  157000    1.0109598   -6.2834437    4151.9827            4 
  158000    1.0127163   -6.2975437    4151.6541            6 
  159000   0.99194488   -6.2964684    4150.0501           10 
  160000   0.98225089   -6.2552847    4160.7372            4 
  161000   0.97219055   -6.2379203    4149.4981            8 
  162000   0.98991897   -6.2720494    4173.9046            6 
  163000     1.016042   -6.3032227    4144.6405            5 
  164000    1.0071703   -6.2343834    4157.7745            9 
  165000   0.97578518   -6.2811611    4137.5914            6 
  166000    1.0119083   -6.2547676    4145.3268            8 
  167000   0.98691661   -6.2831583    4150.2332            5 
  168000    1.0096601    -6.257969    4158.4545            7 
  169000   0.98775929   -6.2798025    4157.1856            5 
  170000   0.97427442   -6.2911081    4149.1549            3 
  171000    0.9851079   -6.2527213     4148.755            9 
  172000   0.98571903   -6.2733661    4149.3652            4 
  173000    1.0058164   -6.2788722    4152.5127            6 
  174000    0.9739491   -6.2539314    4151.3324            7 
  175000    0.9969492   -6.2684703    4165.1672           15 
  176000   0.99772352   -6.2539285     4147.593           15 
  177000    1.0043131   -6.2698385     4140.134            9 
  178000   0.99564731   -6.3002218    4149.5104            5 
  179000   0.98613273    -6.270115    4143.1455            8 
  180000   0.99355688   -6.2447856     4150.621            4 
  181000    1.0253467   -6.2587115    4143.7519            4 
  182000   0.99600091   -6.2794319    4162.1421           12 
  183000    0.9983563   -6.2719682    4150.0464            4 
  184000   0.98434375   -6.2645775    4153.8455            4 
  185000   0.98391099    -6.214497    4153.1199            4 
  186000    1.0093494   -6.2825233     4170.096            6 
  187000     0.988415   -6.3031064     4155.817            3 
  188000     0.987448   -6.2481353    4162.5404           14 
  189000    1.0051143   -6.2638425    4149.7691           12 
  190000    1.0124992   -6.2741228    4180.7753            4 
  191000   0.98998221   -6.2787251    4172.9894           11 
  192000    1.0186052   -6.2682526    4141.0802           13 
  193000    1.0073602   -6.2771902    4151.0719            8 
  194000   0.99167681   -6.2637404    4155.4988            4 
  195000   0.99273798   -6.2705659    4155.2923            8 
  196000    1.0202347   -6.2568424    4167.6116           11 
  197000   0.99246921   -6.2876347    4128.7409           12 
  198000   0.99861529   -6.2908663    4150.9203            5 
  199000    1.0173746   -6.2942471    4135.1553            6 
  200000    1.0112457   -6.2491198    4166.4646            8 
  201000   0.98992621    -6.273302    4161.0108           14 
  202000    1.0075889   -6.2552515    4170.5781            7 
  203000   0.97115815   -6.2964653    4132.2238            8 
  204000    1.0029966   -6.2837209    4151.1245           12 
  205000    1.0115784   -6.2920515    4154.9114           11 
  206000   0.98638034    -6.273526    4138.8617            4 
  207000    1.0047773   -6.2646338    4158.7472           15 
  208000   0.99060209   -6.2487452    4165.7221            6 
  209000   0.99011033   -6.2985336    4134.6743           16 
  210000   0.99744979   -6.2752846    4159.2341            6 
  211000   0.98976721   -6.2621607    4156.7389            5 
  212000   0.98292173   -6.2667234    4161.2669            4 
  213000   0.99382624   -6.2443817    4167.0823            4 
  214000    1.0159166   -6.2988652    4149.7526            3 
  215000   0.99523713   -6.2428516    4147.3318            5 
  216000    1.0076945   -6.2873665    4161.5278           15 
  217000    1.0073344   -6.2640981    4162.1853            7 
  218000    1.0214997   -6.2652159    4158.4038            6 
  219000    1.0078919   -6.3005849     4141.828            9 
  220000   0.99607648    -6.254726    4155.1268            8 
  221000    1.0125824   -6.2896782    4137.9406           13 
  222000    1.0006571   -6.3007989    4147.5951            3 
  223000    1.0024855   -6.2674469    4150.6909            4 
  224000   0.99636005   -6.2768897    4146.9766            7 
  225000    1.0127772   -6.2607878    4161.3182            7 
  226000    1.0034696   -6.3023612    4161.2207            9 
  227000   0.99906117   -6.3119311    4155.6067            7 
  228000    1.0092237   -6.2652863    4150.0124            7 
  229000   0.97202598   -6.2739677    4142.2084            7 
  230000    1.0096997   -6.2726097    4144.5581            4 
  231000    1.0229546   -6.2511111     4154.873            8 
  232000    1.0163689    -6.273682    4146.9285            7 
  233000   0.98880308   -6.3199806     4144.425           10 
  234000    1.0123209   -6.2587723    4137.0643            5 
  235000    1.0266284   -6.2870168     4142.538            3 
  236000    1.0029467    -6.244027    4153.8734            6 
  237000     1.000129   -6.2622771    4152.4733            3 
  238000    1.0006277   -6.2571861    4150.8016           17 
  239000     1.004545   -6.2704641     4149.373            4 
  240000   0.99681446   -6.2791696    4149.7178            8 
  241000   0.99763173   -6.2529127    4166.0934            6 
  242000   0.98894097   -6.2714376    4166.4611            7 
  243000    1.0056936   -6.2566592    4148.7783            7 
  244000    1.0055118   -6.3248073    4160.0392            3 
  245000    1.0026799   -6.3130931    4136.4199            9 
  246000   0.98555197    -6.301807    4155.2228            6 
  247000   0.98028845   -6.2984931    4150.2762            5 
  248000   0.99015048   -6.2735181    4146.8369           11 
  249000   0.99918462   -6.3014306    4158.2082            2 
  250000    1.0001062   -6.2522882    4159.2913            6 
  251000    1.0034503   -6.2742089    4148.3642            6 
  252000   0.99727998    -6.268581     4148.393            5 
  253000    1.0003234   -6.2938562    4152.6451           19 
  254000   0.96622838   -6.3142491    4153.5411           11 
  255000    1.0159404   -6.2556338    4157.5562            7 
  256000   0.99419082   -6.2597132    4188.2905           12 
  257000    1.0085394    -6.290344     4137.933            5 
  258000    1.0100011   -6.2697657    4151.7654            8 
  259000    1.0026553   -6.2824029    4138.1814            9 
  260000   0.99936216   -6.2621038    4143.2674            5 
  261000   0.99820062   -6.2702921    4153.1815            4 
  262000    0.9948035   -6.2752757    4134.3128            6 
  263000    1.0030777   -6.2186115    4165.1488           11 
  264000   0.99300401   -6.2538866    4155.3924            9 
  265000    1.0057705    -6.284868    4150.1099            5 
  266000    1.0075374   -6.2487377    4147.4278            5 
  267000    1.0139961    -6.258314    4168.7002            4 
  268000    1.0120576   -6.2568862    4148.8142            7 
  269000    1.0099726   -6.2808192    4133.8904            6 
  270000   0.96667277   -6.2561327    4145.9131           13 
  271000   0.99231099   -6.2772242    4151.3596            5 
  272000    1.0272422    -6.274777    4160.5224           15 
  273000    1.0047854   -6.2583573    4157.7504            8 
  274000     1.014823   -6.2485686    4143.4413            7 
  275000    1.0269955   -6.2671229    4130.5152            7 
  276000   0.97561295    -6.278233    4151.0067            4 
  277000   0.97541032   -6.2361043    4141.9413            8 
  278000    1.0097023   -6.2758992     4153.258            6 
  279000   0.99274969   -6.2672641    4149.1445            7 
  280000   0.99106866   -6.2264166    4151.3068            7 
  281000    0.9887095   -6.2559913    4142.3052            6 
  282000   0.98793534   -6.2794924    4152.6799            6 
  283000    1.0035409   -6.2603091    4169.1466            7 
  284000    0.9920429   -6.2328072    4151.6273           11 
  285000    1.0097168   -6.2778139    4145.4823            9 
  286000    1.0234656    -6.268562    4148.1698            8 
  287000   0.98145257   -6.2610666    4143.0579            5 
  288000   0.99173655   -6.2691655    4157.6536            8 
  289000    1.0091129    -6.306118    4164.5698            7 
  290000    1.0051166   -6.2541141    4156.6629            5 
  291000   0.99726792   -6.2615418    4147.1608            5 
  292000    1.0009435   -6.2762046    4148.9338            5 
  293000   0.99149257   -6.2622065    4153.7821            4 
  294000   0.99600605   -6.2692587    4152.4955            6 
  295000    1.0039157   -6.2448477    4149.2662            5 
  296000   0.99064019   -6.2643861    4152.1822            8 
  297000   0.99779545   -6.2802849    4158.7882            6 
  298000   0.99471174   -6.2479552    4149.0296            9 
  299000   0.98174468   -6.2575776    4154.6151            9 
  300000    1.0047453   -6.2626405    4142.5565           13 
  301000     1.012325   -6.2791663    4156.5487            7 
  302000    1.0011407   -6.2744855    4151.0679            4 
  303000   0.98596519   -6.2582943    4148.6826            5 
  304000   0.99974343   -6.2833932    4161.7498            8 
  305000   0.99352704   -6.2853282    4130.1291            7 
  306000   0.99263981    -6.289576    4147.1037            5 
  307000     1.009153   -6.2622273    4151.3707            5 
  308000   0.98541611   -6.2551477     4146.513            9 
  309000    1.0028283   -6.2955436    4143.9627           10 
  310000    1.0110052   -6.2607715    4171.1644           10 
  311000   0.98543479    -6.264166    4154.9034            8 
  312000    1.0192212   -6.2423116    4145.5481            6 
  313000    1.0231061   -6.2734808    4151.8906            5 
  314000    1.0108115   -6.2519476    4157.0812           13 
  315000    1.0024921   -6.2682174    4149.2954            6 
  316000    1.0250253   -6.2633927    4164.7604            5 
  317000   0.99298735   -6.3052559    4158.1481            7 
  318000   0.98546957   -6.2820519    4137.5548            7 
  319000    1.0042402   -6.2887562    4158.6765            9 
  320000    1.0026512   -6.2707985    4160.8102            8 
  321000    1.0172317   -6.2733831    4155.2224            8 
  322000    1.0016104   -6.2556811    4149.4676           11 
  323000    1.0098788   -6.3027814    4155.8279            6 
  324000   0.99016423    -6.293419     4159.913           14 
  325000    1.0224129   -6.2688673    4154.6953            4 
  326000    1.0064506   -6.2588582    4151.8481            5 
  327000    1.0013724   -6.3157484    4112.7787            4 
  328000   0.99861231   -6.2825002    4148.8055            7 
  329000    1.0020047   -6.2729509    4158.9884            6 
  330000    1.0176891   -6.2994689    4148.3628            8 
  331000    1.0216346   -6.2818838    4155.8986            7 
  332000    1.0044202   -6.2568749    4146.0232            4 
  333000   0.99735733    -6.284285    4156.2011            5 
  334000   0.98628123   -6.2639448     4153.621            4 
  335000     1.002156     -6.28727    4146.1025            8 
  336000    1.0000373   -6.2561664    4148.5828            6 
  337000   0.98956176   -6.2607603    4144.7631            3 
  338000    1.0074701   -6.2675534    4153.6421            8 
  339000    1.0035818   -6.2441704    4160.5999            6 
  340000   0.99010966   -6.2878015    4128.6145            5 
  341000   0.99574749   -6.2813825    4135.4477            4 
  342000    1.0153311   -6.2843716    4149.3375            6 
  343000    1.0085629   -6.2750432     4132.548            7 
  344000    1.0101992   -6.2939426    4147.6131            8 
  345000   0.96862123    -6.270776    4166.2768            4 
  346000    1.0014277   -6.2810688    4160.1459            5 
  347000   0.99816679   -6.2470708     4152.887           24 
  348000    1.0036203   -6.2659307     4153.482            9 
  349000   0.99253724    -6.240931    4157.0326            4 
  350000   0.99958481   -6.2956288    4156.3987            4 
  351000    1.0188226   -6.2573771    4147.1972            5 
  352000   0.99483682   -6.2766411    4170.1756            8 
  353000   0.98852315   -6.2880209    4150.0342            8 
  354000   0.99411888   -6.2291705    4160.0902            4 
  355000    1.0146431   -6.2581544    4146.7794            6 
  356000    1.0117924   -6.2776753    4141.9105            8 
  357000   0.99781648   -6.2716057    4163.9361            4 
  358000    1.0172486   -6.2664163    4167.1538            7 
  359000   0.99234234   -6.2449922    4158.1863            7 
  360000   0.98637444    -6.291857     4157.564            5 
  361000    1.0038957   -6.2938264    4140.4547            5 
  362000   0.98938351   -6.2978984    4131.6654           10 
  363000    1.0002322    -6.282651    4154.1314           11 
  364000   0.99036084   -6.2848089    4153.2046           10 
  365000    1.0176696   -6.2921885    4147.2407            6 
  366000   0.99709158   -6.2744473    4145.1458           13 
  367000   0.99836619   -6.2571556    4171.8961            8 
  368000    1.0049446   -6.2430805     4150.827            4 
  369000   0.99380485   -6.2552998     4154.366           11 
  370000    1.0139242   -6.3031283    4161.5508           12 
  371000   0.99442206   -6.2719941    4149.4558            4 
  372000    1.0263542   -6.3070235    4160.7143           15 
  373000    1.0026018   -6.2765989    4145.6162            5 
  374000   0.99161684   -6.2346529    4152.3866            7 
  375000   0.99482482   -6.2461159    4159.2708            6 
  376000    1.0014415   -6.3073273    4140.6816            6 
  377000   0.97677369   -6.2860374    4158.1448            6 
  378000   0.99116663    -6.279921    4144.7371            7 
  379000   0.99516755   -6.2856919    4150.1411            7 
  380000   0.99988535   -6.2626451    4153.2199            8 
  381000   0.96935295   -6.2755817     4148.885            6 
  382000   0.98757705   -6.2446302    4159.4892            4 
  383000    1.0085238   -6.2914378    4151.3943           14 
  384000    1.0122706   -6.3077954    4149.1562            6 
  385000   0.98467006   -6.2964563     4145.019            4 
  386000   0.98414516   -6.2716851    4153.8617           10 
  387000    1.0105845   -6.2907614    4149.4803            4 
  388000    0.9905648   -6.2523509    4172.1329            4 
  389000   0.99455498   -6.2891968    4152.6791           16 
  390000   0.97558653   -6.2751728    4152.2155            6 
  391000    1.0116997   -6.2740025    4165.4609            8 
  392000    1.0030452   -6.2767832    4145.8317            6 
  393000    1.0156156   -6.2547461    4152.2715            4 
  394000   0.99529961   -6.2957078    4140.9793            9 
  395000   0.99370391   -6.2845848    4144.5248           12 
  396000   0.99588178   -6.2624589    4144.0774            4 
  397000   0.99480891   -6.2911456    4145.6028            3 
  398000    1.0013711   -6.2667405    4153.8385            8 
  399000    1.0044948   -6.2299233    4163.1215           11 
  400000   0.97961575   -6.3092046    4146.6185            9 
  401000    1.0009384   -6.2535676     4165.863            5 
  402000   0.99247324   -6.3118126     4136.223            8 
  403000    1.0067093   -6.2605729      4143.78            5 
  404000   0.99417603    -6.269643    4162.0613            6 
  405000   0.99823981   -6.2873099    4158.0253            8 
  406000    1.0170524   -6.2370193    4153.4475            3 
  407000    1.0057584   -6.2787113    4166.2891            9 
  408000   0.98611285   -6.2336679    4156.3113            8 
  409000    1.0322737   -6.2468212    4158.2426            6 
  410000    1.0021245   -6.2790171    4160.9743           12 
  411000   0.98187141   -6.2732295    4151.3924           12 
  412000   0.99494898   -6.2586387    4131.8168            3 
  413000   0.99547115   -6.2996344    4155.0515            8 
  414000    1.0057588   -6.2807563    4134.7472            4 
  415000    1.0110653   -6.3126058    4151.2639           10 
  416000   0.98679214   -6.2818257    4147.9372            8 
  417000   0.99522913   -6.2952673    4135.4427            7 
  418000   0.99502022   -6.2612281    4161.8674            8 
  419000    1.0220503   -6.2862839    4142.6905            8 
  420000    1.0395146   -6.2613851    4149.2741            6 
  421000    1.0182811    -6.258233    4136.9247            5 
  422000    1.0040463   -6.2974523    4136.4733            4 
  423000    1.0032146   -6.2752075    4136.9141            5 
  424000    1.0117823   -6.2684558    4139.0692            5 
  425000    1.0061842    -6.271698    4158.9969            5 
  426000   0.99901884   -6.2528787    4151.4045            6 
  427000   0.98806253   -6.3022338    4149.2405            5 
  428000   0.98831124   -6.2990757    4134.6212           10 
  429000    1.0295853   -6.3042126     4156.056           10 
  430000    1.0046428   -6.2646955    4154.6596            5 
  431000   0.98708895   -6.2792908    4155.0372            7 
  432000   0.99252239   -6.2639179    4158.7401            5 
  433000    1.0253923   -6.2987689    4144.0622            6 
  434000    1.0007579   -6.2629773    4156.5993            5 
  435000   0.99096609   -6.2958731    4151.8131           11 
  436000   0.99525971    -6.272041    4142.5991            3 
  437000    1.0097983    -6.250535    4155.9809            5 
  438000   0.98534633   -6.2746092    4157.3179            3 
  439000   0.98972175   -6.2867882    4160.8195            6 
  440000   0.99720204   -6.2656148    4147.0992            7 
  441000    1.0001159   -6.2505839    4156.5923            7 
  442000   0.98290986   -6.2659977    4167.5942            4 
  443000    1.0146556    -6.260187    4147.8387            9 
  444000    1.0044695   -6.2701839    4151.1773            5 
  445000   0.96828932   -6.2711954    4149.0711            4 
  446000   0.98835508    -6.285163    4156.2161            7 
  447000   0.97445201   -6.2529333    4147.9209           10 
  448000    1.0106548   -6.2616165     4148.047            6 
  449000    1.0151853   -6.2736619    4147.5898            6 
  450000   0.99791342   -6.2636154    4159.7945            5 
  451000   0.98052017   -6.2610464    4165.5512            4 
  452000   0.99258726   -6.2741265    4153.5519           10 
  453000   0.98411056   -6.2886676    4151.7858            7 
  454000    1.0058858   -6.2652398    4141.2097           17 
  455000   0.98366347   -6.2330904    4164.2212            7 
  456000    1.0102711   -6.2380303    4162.1528            6 
  457000   0.98878861   -6.2410996    4142.0976           10 
  458000    1.0058335   -6.2546652    4159.7956           10 
  459000   0.97970406   -6.2369427    4170.2694           15 
  460000    1.0001504   -6.2824033    4154.7304           12 
  461000    1.0028358   -6.2697503    4152.9796            8 
  462000    1.0071462   -6.2448518    4145.4553            5 
  463000   0.97193975   -6.2789642    4160.2736           10 
  464000   0.99647398    -6.245279    4153.1858            8 
  465000    1.0027518   -6.2724817     4168.025           11 
  466000     1.001388   -6.2546759    4135.9781            5 
  467000    1.0303426    -6.281842    4153.2465            6 
  468000   0.98571575   -6.2703322    4147.4725            6 
  469000   0.98836265   -6.2635992    4140.3162            4 
  470000    1.0259059   -6.2840614     4144.852           13 
  471000    1.0027752   -6.2986068    4152.2286            6 
  472000    1.0214219   -6.2259869    4140.9772            6 
  473000   0.98529682   -6.2459498    4159.7604            9 
  474000    1.0030085   -6.2452115    4156.1526           10 
  475000    1.0128152   -6.2797426    4150.0552            9 
  476000   0.99540879   -6.2616035    4154.3034            8 
  477000    0.9777867   -6.3053771    4148.4541            9 
  478000    1.0024056   -6.2544585      4157.89            6 
  479000   0.98296028   -6.2402072    4159.1601            7 
  480000    1.0101542   -6.2835625    4148.6272            6 
  481000    0.9753635   -6.2851854    4145.8088            6 
  482000    0.9978686   -6.2857978    4134.2951            8 
  483000    1.0039798   -6.2349004    4156.0501            6 
  484000   0.98130386   -6.2600896    4137.0758            4 
  485000   0.96958357   -6.2800215     4150.849           15 
  486000    1.0186195   -6.2296011    4149.6625            6 
  487000    0.9902455   -6.2754909    4146.3479            3 
  488000   0.99797707   -6.2912804     4159.905            6 
  489000    1.0138975   -6.2808257    4161.4798            5 
  490000   0.99102142   -6.2895206    4146.1861            6 
  491000   0.98745615   -6.2464819    4142.6977            4 
  492000     1.009671   -6.2594596    4159.7294            5 
  493000   0.98860449   -6.2798169    4146.8512           10 
  494000    1.0168119   -6.2784203    4148.2667           11 
  495000   0.99996285   -6.2836443    4146.7663            8 
  496000    1.0050004    -6.269214    4158.4985            7 
  497000   0.99951418   -6.2863415    4141.8419            7 
  498000   0.98550841   -6.3086119    4157.6361            5 
  499000    1.0031214    -6.270181    4143.9697            5 
  500000    1.0122019   -6.2493685    4144.2689            5 
  501000   0.99171308   -6.2597689    4149.7418            6 
  502000   0.99639045   -6.2761654    4155.0304           10 
  503000   0.98451462   -6.2607091    4166.6739            7 
  504000   0.98683427   -6.2739674    4158.7208            9 
  505000     0.987371   -6.2756241    4148.3555            6 
  506000   0.99176998   -6.2241606    4136.6927           13 
  507000    1.0185883    -6.279524    4155.8919           11 
  508000    1.0066112   -6.2898567    4150.7641            6 
  509000   0.99418543   -6.2732366    4160.3107            4 
  510000   0.98068207   -6.3034834    4134.8857            7 
  511000    1.0207703   -6.2707826    4172.6233            5 
  512000   0.99598189   -6.2573176    4158.9874            5 
  513000   0.99773997   -6.2425085    4151.5259            3 
  514000   0.99783655   -6.2528989    4162.5864            5 
  515000   0.98530709   -6.2631554    4145.3868           12 
  516000   0.99108308   -6.2572092     4164.245           17 
  517000   0.99008348   -6.2563038    4144.9273            5 
  518000   0.99488469   -6.2533487    4159.6299            8 
  519000    1.0067789   -6.2829856    4137.8613            4 
  520000    1.0134576   -6.2552591    4143.0218            5 
  521000   0.96533315   -6.2220742    4159.1776            8 
  522000    1.0058911   -6.2870512    4160.4105           20 
  523000   0.99774587   -6.2578016    4156.1238           11 
  524000   0.98192026   -6.2726942     4160.764            8 
  525000    1.0076796   -6.2685008    4157.2302            6 
  526000    1.0131055   -6.2561521    4133.7795            6 
  527000     1.027643   -6.3122986    4147.0052           15 
  528000   0.98364484   -6.2884314    4140.5821            4 
  529000   0.99206789   -6.2656056    4147.7015            8 
  530000    1.0113354   -6.2696677    4146.7616            8 
  531000   0.99268668   -6.2622198    4156.0815            5 
  532000    1.0083876   -6.2602349    4160.6915            3 
  533000    1.0178815    -6.251508    4157.6676            4 
  534000    1.0046298   -6.2432801    4161.0704            5 
  535000   0.98686771   -6.2632471    4149.0507            4 
  536000   0.99473071   -6.2639677    4167.0914            5 
  537000   0.98716887   -6.2917318     4153.359            4 
  538000    1.0069007   -6.2697027    4148.2375            5 
  539000   0.98867989   -6.2857686    4136.5053           14 
  540000    1.0180213     -6.28059    4149.1811            8 
  541000    1.0124746   -6.2953828     4154.758            4 
  542000    1.0075187   -6.2900187    4142.5717            5 
  543000    1.0097377   -6.2730513    4140.7229            4 
  544000    1.0016194   -6.2927175    4163.7313            5 
  545000   0.97281076   -6.2959693    4155.6233            4 
  546000     1.008802   -6.2445561      4156.07            4 
  547000    1.0225599   -6.2544296    4139.1118           12 
  548000    1.0070188   -6.2690951    4143.6835           17 
  549000    1.0123612   -6.2718056    4161.0033            8 
  550000   0.99132211   -6.2576139    4146.5734            7 
  551000   0.99134822   -6.2482182      4161.11            4 
  552000    1.0202267   -6.2625044    4146.8418            3 
  553000    1.0114409   -6.2733666    4157.8169            4 
  554000    1.0098916   -6.2807221    4140.5034            5 
  555000    0.9920676   -6.2813081    4140.0176           10 
  556000    1.0060207   -6.2411906    4162.5463            3 
  557000    1.0121756   -6.2856568    4159.5108           12 
  558000    1.0066991   -6.2573006    4140.4845            7 
  559000    0.9926018   -6.2467322    4165.9641            6 
  560000    1.0247964   -6.2739709    4146.9069            8 
  561000   0.99975986   -6.2647969    4147.7652           10 
  562000     1.004397   -6.2918778    4160.2231            4 
  563000    1.0171618   -6.2778834    4152.4817           13 
  564000    1.0133759   -6.2605372    4152.6384            8 
  565000    1.0097827   -6.2738728    4163.5632            6 
  566000   0.97404594   -6.2674965    4153.4317            8 
  567000   0.98744315   -6.3058409    4146.0415           13 
  568000    1.0085933   -6.2683112    4146.2367            4 
  569000    1.0213685   -6.2594001    4154.6966           10 
  570000   0.97868398   -6.2817743    4152.8004            5 
  571000   0.99341633   -6.2440048    4151.2786            6 
  572000    1.0279026   -6.2454695    4166.4304            7 
  573000   0.98144737   -6.2586985    4153.9623            6 
  574000   0.97403645    -6.281839    4152.8538           11 
  575000    1.0108092    -6.256415    4164.9821            7 
  576000    1.0062678   -6.2913372    4156.5642            5 
  577000    1.0038404    -6.250256    4138.2958            4 
  578000    1.0163275   -6.2737727    4158.9567            5 
  579000   0.99247313   -6.2666505    4149.3539           10 
  580000    1.0041317   -6.2544007    4146.1257            5 
  581000    1.0125229   -6.2616524     4148.927           13 
  582000    1.0044758   -6.2661427    4139.9392            4 
  583000     1.006887   -6.2851145    4131.4696            4 
  584000   0.99082163   -6.2485756    4137.8618            7 
  585000   0.99175292    -6.279325    4139.6077            5 
  586000   0.98040587   -6.2540703    4153.3891            4 
  587000    1.0076242   -6.2329875     4172.941            4 
  588000    1.0047106   -6.2740989    4158.4492            7 
  589000   0.99552171   -6.2630142    4152.7158            6 
  590000    1.0231197   -6.2538706    4172.3753            6 
  591000   0.99804229   -6.2544533    4149.7134            8 
  592000    1.0030753   -6.2569445    4155.1751            5 
  593000   0.98552399   -6.2890163    4141.7517            6 
  594000    1.0050507   -6.2739718    4150.6125            6 
  595000   0.99451364   -6.2588697    4141.1491            9 
  596000   0.98696314   -6.2180099    4156.5245            7 
  597000   0.99647469   -6.2845709    4154.9189           10 
  598000    1.0123707   -6.2508583    4138.5713            6 
  599000    1.0290353   -6.2822609    4167.1247            6 
  600000   0.98549405   -6.3002654    4146.8858            3 
  601000    0.9867273   -6.2836399    4142.7666            6 
  602000   0.99550434    -6.274944    4144.6749            6 
  603000    1.0178832   -6.3000591    4155.9519            8 
  604000    1.0048523   -6.2557871    4145.8009           10 
  605000   0.98817836   -6.2687836    4130.9618            9 
  606000    1.0102259    -6.300339    4155.9778            8 
  607000    0.9909022   -6.2535064    4145.5794            9 
  608000    1.0042334   -6.2790935    4143.7302            8 
  609000   0.99258891   -6.2828649    4154.0093           11 
  610000    1.0079216   -6.2859332    4151.6702           12 
  611000   0.98446819   -6.2627677    4147.3615            5 
  612000   0.99003172   -6.2601703    4148.0243            7 
  613000   0.96711808   -6.2845226    4150.6458            5 
  614000    1.0129125   -6.2683179    4142.7746            5 
  615000   0.97993527   -6.2664905    4141.9267            6 
  616000    1.0005698   -6.2866661    4157.5182            3 
  617000   0.99666451    -6.281133    4156.2212            7 
  618000    1.0148631   -6.2409489    4155.5829            9 
  619000    1.0033794   -6.2703092    4143.2136            5 
  620000    1.0065955   -6.2652333    4146.5846            6 
  621000    1.0046861    -6.287918    4162.8518            5 
  622000    0.9878692   -6.2748776    4167.4285           16 
  623000   0.97756745    -6.260939    4162.5521            5 
  624000    1.0009339   -6.2709389    4168.7455            5 
  625000   0.99566495   -6.2109277    4147.6176            6 
  626000   0.99756163   -6.2519399    4145.4083            5 
  627000   0.99359193   -6.2437133    4144.5556            8 
  628000   0.99965072   -6.2455023    4150.0393            8 
  629000   0.99289638   -6.2502308    4167.3772            4 
  630000    1.0283742   -6.2804336    4156.8936            7 
  631000    1.0091638   -6.2482664    4148.1413            6 
  632000   0.98315737   -6.2697539    4158.7789            4 
  633000    1.0090276   -6.2628806    4168.3517            4 
  634000   0.98395567   -6.2857699    4141.6211           12 
  635000   0.97245385   -6.2801135    4145.9872            6 
  636000    1.0106276   -6.2846826    4155.5568            5 
  637000    1.0196866   -6.2843292    4136.0673           12 
  638000    1.0063882   -6.2549591    4154.5367           11 
  639000   0.99807904   -6.2492158    4140.2825            6 
  640000   0.99397134    -6.289693    4143.9379           17 
  641000    1.0174052   -6.2669487    4158.5198            7 
  642000   0.98977006   -6.2710074    4145.8044            7 
  643000   0.99639363   -6.2570354    4158.7042            7 
  644000   0.99652927   -6.2602451    4142.5984            4 
  645000   0.99087063   -6.2484285    4153.4598            8 
  646000   0.99010119   -6.2469926    4166.3036            4 
  647000   0.98428134   -6.2580964    4147.9472            7 
  648000      1.01135   -6.2931603    4152.7795            7 
  649000   0.99779153    -6.259544     4153.861           10 
  650000   0.98767751   -6.2982024    4148.6984            5 
  651000     1.001975   -6.2887094    4150.6357            6 
  652000   0.99391391   -6.2947293    4144.8426            4 
  653000    1.0121736   -6.2357897    4149.7613           19 
  654000    1.0082157   -6.2791488    4152.5369            5 
  655000   0.99947277   -6.2703147      4149.14            9 
  656000    1.0085763   -6.2857339    4139.1462           14 
  657000   0.96982074   -6.2653497    4175.8546           11 
  658000    1.0048514   -6.2744546    4138.2843           11 
  659000   0.99418597   -6.2602594    4153.9124            6 
  660000   0.98580866   -6.2742418    4165.1575            5 
  661000   0.97807269   -6.3001544    4160.6408            7 
  662000   0.99542057   -6.2772945    4156.6695            4 
  663000   0.99832503   -6.2821775    4153.7474            6 
  664000    0.9957803   -6.2545714    4166.3156            7 
  665000   0.99570696   -6.2828559    4147.1794           18 
  666000   0.98358513   -6.2918745    4150.2787            9 
  667000   0.98642488    -6.268075    4150.5203            4 
  668000    1.0131701   -6.2491912    4162.8517            4 
  669000     1.007167   -6.2434805     4154.766            7 
  670000    1.0007761   -6.2683343    4159.8804           10 
  671000    0.9993744   -6.2459915    4151.7276           12 
  672000   0.98040905   -6.2671801    4156.0991           21 
  673000    1.0026713   -6.2812986     4170.483            5 
  674000    1.0086157   -6.2895274    4159.8509            5 
  675000    1.0033081   -6.2683082    4167.0685            7 
  676000   0.98679098   -6.2808877     4127.102            7 
  677000   0.99700251   -6.2529258    4165.1809            7 
  678000     1.029917   -6.2987191     4128.382            8 
  679000   0.99384255   -6.2622681    4157.5055            6 
  680000    1.0080151   -6.2565433    4158.7566            6 
  681000    1.0074153   -6.2714116    4137.6438            3 
  682000    1.0352621   -6.2758787    4139.8058           10 
  683000    1.0040365   -6.2706484    4164.8941            8 
  684000    1.0176522   -6.2777673    4149.0247            7 
  685000    1.0029215   -6.2728454    4164.5128           13 
  686000    1.0150969   -6.2549317    4137.1364            2 
  687000    1.0142121   -6.2749555    4149.9627            6 
  688000   0.99900381    -6.274129    4137.2604           12 
  689000   0.98983123   -6.2381367    4148.3186           10 
  690000    1.0025952   -6.2664321    4145.7016            5 
  691000   0.98648039   -6.3084007    4149.7554           22 
  692000   0.99969001   -6.2747306    4156.2945           11 
  693000   0.99617854   -6.2735268    4157.5951           10 
  694000    1.0033795   -6.2580522    4145.5947            9 
  695000    1.0058113   -6.3046084    4149.6219            4 
  696000   0.99416165   -6.2651924    4151.7825            9 
  697000     0.993308   -6.2657148    4158.3918            5 
  698000    1.0085266   -6.2789526    4154.2084           12 
  699000    1.0089524    -6.264814    4162.2528            5 
  700000   0.97770857   -6.2462029    4158.7625            7 
  701000    1.0001901   -6.2956276    4168.0923            5 
  702000    1.0148745   -6.2884635    4163.7069            6 
  703000    1.0192352      -6.2769    4133.3573            4 
  704000     1.015916     -6.29086    4153.3082            7 
  705000   0.98346334    -6.279629    4167.4846            6 
  706000    1.0303986   -6.2755084    4140.4461            8 
  707000    1.0009577    -6.247938    4166.1968            6 
  708000    1.0052466   -6.2416973    4162.8699            4 
  709000    1.0118618   -6.2336433    4156.3741            3 
  710000    1.0144912   -6.2686752    4158.2286            5 
  711000   0.98979565   -6.2754135    4159.8924           15 
  712000    1.0034621   -6.2942728    4131.2174            6 
  713000    0.9850194   -6.3056404    4138.3306            4 
  714000    1.0252417    -6.259161    4144.8627            4 
  715000      1.00961   -6.2691899    4135.3398            7 
  716000    1.0056346   -6.2528646    4155.9119            5 
  717000   0.99734169   -6.2803117    4136.5387            5 
  718000    1.0089669   -6.2651523    4144.1096            5 
  719000   0.99103386   -6.2849242    4150.8401            6 
  720000     1.003775   -6.3097015    4145.4387            8 
  721000    1.0051571   -6.2677406    4181.5286            6 
  722000    1.0104926   -6.2633946    4150.1093            4 
  723000   0.99991469   -6.2653992    4150.3627           12 
  724000    1.0185174   -6.2636675     4160.653            9 
  725000    1.0159834   -6.3264845    4147.4919            5 
  726000   0.99591728   -6.2592148     4166.069            7 
  727000   0.98698706   -6.2932702    4141.1733            4 
  728000   0.99705642   -6.3088267    4144.1837           10 
  729000    1.0022664   -6.2814214    4144.8691            9 
  730000    1.0140821   -6.2617291     4157.611            5 
  731000    1.0035457   -6.2779452    4146.7139            7 
  732000   0.99770384   -6.2400514    4176.3583            7 
  733000    1.0105802   -6.2579985    4174.0862           14 
  734000    1.0361341   -6.2370803    4158.9231            6 
  735000    1.0055715    -6.296499    4172.9924            6 
  736000   0.99641292   -6.2719033    4147.9049            5 
  737000   0.98711774   -6.2757116    4150.9118            5 
  738000    0.9813549   -6.2753819    4138.9946            7 
  739000    1.0007979    -6.224783    4173.9041            4 
  740000    1.0223609   -6.2785482    4157.6127            7 
  741000    1.0024808   -6.2908439    4154.0606            5 
  742000   0.98704285   -6.2901292    4126.2649            6 
  743000     1.008919   -6.2866391    4145.3767           13 
  744000   0.98591831   -6.2832553    4138.6122            6 
  745000    1.0028476   -6.2491839    4153.4883            6 
  746000    1.0031621   -6.3033653    4149.3997            8 
  747000    1.0167816   -6.2574914    4154.0442            7 
  748000     1.005377   -6.2828546     4150.862            9 
  749000   0.99995796   -6.2626687    4164.5573            7 
  750000   0.99386665   -6.2957439    4145.1455            6 
  751000   0.98318077   -6.2579271    4146.6105            8 
  752000    1.0058761   -6.2933948    4148.1235           12 
  753000    1.0010537   -6.2367926    4152.3926            8 
  754000    1.0060936   -6.3172106    4139.2112            5 
  755000   0.99867792   -6.2671171    4173.6536            2 
  756000   0.99652128     -6.28103    4159.7385            4 
  757000   0.99610403   -6.3124762    4140.4872           12 
  758000    1.0013271   -6.2928713     4148.075            7 
  759000    1.0028148   -6.2485189    4160.3765            4 
  760000    1.0138788   -6.2989567    4134.4463            6 
  761000   0.97523655   -6.2735336    4144.7421            6 
  762000   0.98860018   -6.2403908     4164.289            8 
  763000   0.99186826      -6.2743    4150.5249            8 
  764000   0.97838578   -6.2724721    4158.4918            4 
  765000    1.0141972   -6.2423474    4161.8175            6 
  766000    1.0078608   -6.2825703    4156.4265            6 
  767000    1.0002627    -6.284159     4153.577            4 
  768000   0.99700744   -6.2782514    4134.7156           13 
  769000   0.98764878   -6.2865444     4152.817           11 
  770000   0.99105841   -6.2665946    4147.8098           10 
  771000     1.005522   -6.2815028    4137.1791            5 
  772000    1.0138299   -6.2839488    4157.0425            6 
  773000   0.98309902   -6.2478434    4148.7344            7 
  774000    1.0086776   -6.3020424    4149.9616            6 
  775000   0.98830979   -6.2754205    4141.3003            7 
  776000   0.98780914   -6.2701626    4144.6797           15 
  777000    1.0075756   -6.2799677    4151.1941            6 
  778000   0.99302573   -6.2429343    4161.3648            5 
  779000   0.98992895   -6.2523857    4161.1813            4 
  780000   0.98307392    -6.274064    4150.3188            6 
  781000   0.99108922   -6.2620913    4166.6028           11 
  782000   0.98093656    -6.265779      4138.42            4 
  783000    1.0048434    -6.260748    4145.0201            8 
  784000    0.9798657   -6.2616151    4150.2677           10 
  785000   0.99772189   -6.2448674    4161.8652            6 
  786000   0.99458993   -6.2630009     4155.515            5 
  787000   0.98637925   -6.2865546    4138.9396            5 
  788000    1.0012971   -6.2656871    4146.6134            7 
  789000    1.0136325   -6.2698085     4156.256            4 
  790000   0.98564478   -6.2362322    4165.1911           10 
  791000    1.0038377   -6.2626538    4144.0876            9 
  792000    1.0029728   -6.2925485     4149.404           18 
  793000   0.99129595   -6.2730977    4153.2459            7 
  794000    0.9919863   -6.2745774    4144.8976            6 
  795000   0.99506356   -6.2635402    4163.8569            4 
  796000   0.98929124    -6.262188     4155.952            7 
  797000    1.0128985   -6.2765241    4164.8189            4 
  798000    1.0156214   -6.2766321    4160.0156            3 
  799000   0.99727036   -6.2804758    4152.3468            5 
  800000   0.97820665   -6.2634952    4159.1237            6 
  801000    1.0205057   -6.2772722    4161.7713            6 
  802000    0.9932077   -6.2863203    4135.9091           10 
  803000    1.0033292   -6.3004238    4136.5455            6 
  804000    1.0039985   -6.3083204    4155.9093            5 
  805000   0.98128227   -6.3038933     4148.119            5 
  806000   0.97633098    -6.248861    4147.8986            7 
  807000    1.0045712   -6.2588706     4159.813            9 
  808000    1.0149328   -6.2857979    4131.2662            5 
  809000   0.98456309    -6.249039    4171.7779            6 
  810000   0.98862181   -6.3035589    4154.1728            5 
  811000    1.0081218   -6.2818972    4155.3514            3 
  812000   0.99980184   -6.2406509    4148.8953            5 
  813000   0.98367836   -6.2806422    4172.8736            7 
  814000   0.97980727   -6.2678565    4152.3859            6 
  815000    1.0063561   -6.2587171    4161.2587            5 
  816000    1.0016045   -6.3122023    4138.9013            3 
  817000    0.9885423   -6.2478937    4152.6666           19 
  818000   0.99949104   -6.2762022     4167.649           10 
  819000    1.0132118   -6.2498438    4160.3213            8 
  820000    1.0043079    -6.273715    4143.7277            6 
  821000    1.0199242    -6.256515    4152.9246            8 
  822000   0.99793345   -6.2888817    4156.7861            2 
  823000    1.0165505   -6.2862054    4141.8752            5 
  824000    1.0032544   -6.2942025    4153.0838           20 
  825000     1.019842   -6.2530101    4155.7088            4 
  826000   0.97350657   -6.2271286    4162.4866            2 
  827000   0.98998093   -6.2742746    4148.1181            8 
  828000    1.0091443   -6.2891933    4143.5759            5 
  829000    1.0108084   -6.2819927    4156.9535            9 
  830000    1.0101228   -6.2596004    4147.0248            9 
  831000    1.0108687   -6.2995501    4127.1449            6 
  832000    0.9832075   -6.2597652    4158.3306            7 
  833000   0.98311074   -6.2641602    4159.5262            6 
  834000   0.98140922   -6.2516181    4159.8528            4 
  835000   0.98748291   -6.2896179    4152.5407           12 
  836000   0.99180846   -6.2730602    4145.6893           11 
  837000    1.0003893   -6.2279073    4156.1633            6 
  838000     1.012306   -6.2715938    4156.7217           10 
  839000    1.0055331   -6.2969494    4165.9943            4 
  840000   0.97351577   -6.2439133    4155.1466            3 
  841000    1.0069921    -6.263196    4164.7059            4 
  842000     1.016588   -6.2884079    4136.0964            9 
  843000   0.98564188   -6.2895397       4169.5            6 
  844000   0.99768693    -6.263931    4164.3963            9 
  845000   0.98917275   -6.2596836    4152.7987            6 
  846000   0.99808841   -6.2843361      4167.84            4 
  847000   0.99542894   -6.2960879    4143.9536            9 
  848000   0.98240311   -6.2869128    4144.7896            8 
  849000    1.0109242    -6.268634     4159.291            7 
  850000     1.001673   -6.2842211    4147.5779            3 
  851000   0.97239216   -6.2653263    4161.0735            4 
  852000   0.99256082   -6.2675736    4171.4983            7 
  853000    1.0016719   -6.2749232    4145.5983            5 
  854000    1.0008195   -6.2953326    4136.3612            3 
  855000    1.0070501   -6.2650588    4163.5993            4 
  856000   0.97420994   -6.2590998    4164.2444            6 
  857000   0.97927101   -6.2416888    4163.5524            4 
  858000    0.9932279   -6.2543011    4150.5951            9 
  859000    1.0022424   -6.2790721    4144.7375            5 
  860000   0.98113848   -6.2818694    4158.4376            7 
  861000   0.97322977   -6.2217595    4150.8018           11 
  862000    1.0043268   -6.2773921    4139.7915            6 
  863000   0.98376774   -6.2704144    4158.8833            3 
  864000    1.0026193   -6.2418378    4163.0999           11 
  865000   0.97518013   -6.2735751    4152.5422            5 
  866000   0.99948334   -6.2642524    4151.0448            6 
  867000    1.0011211   -6.2508335    4161.0636            6 
  868000   0.98980797   -6.2754893    4124.8211            9 
  869000    1.0311492   -6.2387561    4150.4443            8 
  870000   0.98895233   -6.2844337    4155.6779            5 
  871000    1.0126714   -6.2879034    4130.0498           22 
  872000    1.0019778   -6.2583112    4164.8057            9 
  873000   0.98130911    -6.271466    4147.0325           10 
  874000   0.99668458    -6.292509    4154.7509            7 
  875000    1.0063485   -6.2811694    4141.9925            7 
  876000   0.98834396   -6.2666473    4154.0492            4 
  877000   0.96780145   -6.2404257     4169.001            7 
  878000    1.0012938   -6.2758194    4148.6628            6 
  879000    1.0132226   -6.2788658    4149.0844            8 
  880000    1.0022727   -6.2733347    4135.4338            8 
  881000      1.00039   -6.2621232    4158.9143            6 
  882000   0.99121463   -6.2692821    4153.5346            5 
  883000   0.98364877   -6.2507379    4158.1317            8 
  884000   0.99779859   -6.2820674    4155.2552            7 
  885000    1.0039652   -6.2707629    4154.9279            6 
  886000   0.99200392   -6.2588619    4140.2547            5 
  887000   0.99888875   -6.2841336    4153.4175            3 
  888000   0.99865132   -6.2678164    4170.8967           11 
  889000    1.0214384   -6.2758023    4153.0302            6 
  890000    1.0066574   -6.2659851    4167.0166            4 
  891000    1.0028489    -6.263292    4146.3236           11 
  892000    1.0115766   -6.2702803    4165.5375            6 
  893000    1.0216481   -6.3101073    4135.8201            7 
  894000     0.977858   -6.2728127    4149.7866            9 
  895000   0.98882247   -6.2631338    4146.9338            3 
  896000     1.010311   -6.2516697    4158.0722            6 
  897000   0.99418426   -6.2994913    4141.5928            3 
  898000    1.0008493   -6.2651407    4142.2499            5 
  899000   0.99792207   -6.2370158    4155.5963            5 
  900000   0.99697492   -6.3000088    4158.6937           21 
  901000   0.99732231   -6.3173589    4164.3603            5 
  902000     1.010113   -6.2812186    4149.8338            3 
  903000   0.97958551   -6.2787808    4163.1574            7 
  904000   0.99715081   -6.2899451    4141.4377            8 
  905000    0.9900781   -6.2504859    4173.5384            4 
  906000      1.00318    -6.246944    4168.0079            8 
  907000    1.0080328   -6.2567145    4148.2904            8 
  908000    1.0150937    -6.275703    4151.7762            4 
  909000    1.0003581   -6.2878189    4145.9398            9 
  910000    1.0027177   -6.2953131    4153.5937            5 
  911000     1.005992   -6.2514866    4147.2435            6 
  912000    1.0266554   -6.2709001     4169.453           10 
  913000    1.0223866   -6.2658911    4142.8259            8 
  914000   0.98314666   -6.2681751    4154.5959           10 
  915000    1.0008879   -6.2908619    4153.9449            8 
  916000    1.0007627   -6.2973831    4135.4664            7 
  917000    1.0041316   -6.2881471     4159.701            7 
  918000    1.0220084   -6.2819449     4170.253            4 
  919000   0.99994052   -6.2506363     4153.232            4 
  920000   0.98592029   -6.2420883     4161.991            5 
  921000    1.0287565   -6.2591741    4157.3707            4 
  922000   0.99508159   -6.2519435    4165.6901           10 
  923000      1.00361   -6.2702811    4147.9504            3 
  924000   0.99382486   -6.2532221    4158.3965            4 
  925000   0.98944443   -6.2753573    4145.9569           11 
  926000     1.012694   -6.2408513    4156.2537            5 
  927000    1.0082658   -6.2850447    4141.9172            9 
  928000   0.99886593   -6.2807052    4140.8062            8 
  929000   0.98486635   -6.2173365    4173.4938            4 
  930000    1.0144592   -6.2455782    4151.9534            7 
  931000   0.99795156   -6.2573302    4162.1851            6 
  932000     1.016215   -6.2849918    4135.2835            7 
  933000    1.0123882   -6.2557644    4158.7187           15 
  934000    1.0048307   -6.3034412    4155.4339            5 
  935000   0.97152418   -6.2826543    4145.4055            6 
  936000     1.021267   -6.2531358    4159.6855           11 
  937000    1.0135792    -6.262767    4150.9856            4 
  938000     1.009051   -6.3204929     4146.863           10 
  939000   0.99283094   -6.2785565    4140.8116           13 
  940000   0.97925865   -6.2480393    4172.2845            8 
  941000    1.0071727    -6.240692    4139.4747           15 
  942000     1.004946    -6.243169    4155.5989            6 
  943000   0.98412273   -6.2686117    4155.1216            9 
  944000      1.01155   -6.2947229    4127.3339            9 
  945000   0.97731213   -6.2653175    4150.5471            5 
  946000   0.99240698   -6.2670648    4149.5939            3 
  947000   0.99029887   -6.3136122    4152.9133            4 
  948000   0.99138651   -6.2922757    4148.7472            7 
  949000   0.99404635   -6.2715097    4149.2054           12 
  950000    1.0047962   -6.2699462    4135.6574            6 
  951000   0.99616183   -6.2632392    4134.4952            8 
  952000   0.98297247   -6.2662918    4143.5369            8 
  953000   0.99359184   -6.3015244    4144.9752            5 
  954000    1.0101085   -6.2537225    4145.6643           12 
  955000   0.99610353   -6.2617437    4171.1197            4 
  956000   0.98974311   -6.2514286      4147.36            9 
  957000    1.0086762   -6.2813745    4137.8544           15 
  958000   0.98255112   -6.2430984    4155.0745            5 
  959000   0.96224955   -6.2738712    4153.0363            3 
  960000   0.99648909   -6.2701716    4138.6109            5 
  961000   0.99470184   -6.2998834    4168.5531            7 
  962000    1.0110347   -6.2603643    4157.8548            8 
  963000    1.0075699   -6.2828322    4157.8104            7 
  964000   0.99360911     -6.24741    4153.9705            7 
  965000    1.0157804   -6.2776522    4147.2841            7 
  966000   0.99194223   -6.2667959    4144.9141            8 
  967000   0.97461984    -6.288574    4144.1401            9 
  968000    1.0103956   -6.3064203    4140.5288            6 
  969000   0.99530335   -6.2976828    4144.8874            7 
  970000   0.98643727   -6.2581933    4172.2231            4 
  971000    1.0135433    -6.264716    4154.0549            7 
  972000    1.0047789    -6.262219    4164.9317            6 
  973000    1.0113189   -6.2937614    4137.7852            7 
  974000    1.0087684   -6.2634385    4162.3791           16 
  975000   0.98987582   -6.2283532    4160.0039            6 
  976000    1.0186954   -6.2564957    4155.9809            9 
  977000     1.018216   -6.3018835     4162.362            6 
  978000    1.0135859   -6.2570959    4153.2885            6 
  979000    1.0084873    -6.279685    4155.8447            7 
  980000   0.98458781   -6.3016619    4154.5587            7 
  981000    1.0028592   -6.3012633    4150.2574            7 
  982000    1.0156979   -6.2508047    4165.0153           19 
  983000    1.0156304   -6.2833328    4158.9764            6 
  984000    1.0046064   -6.2448314    4160.4219            7 
  985000   0.99645939   -6.2984952    4143.2821            7 
  986000     1.000269   -6.3002437    4153.2268            8 
  987000    1.0160926    -6.263916    4160.2576            5 
  988000    0.9980248   -6.2630879    4153.8352           14 
  989000   0.98184181   -6.2698366    4149.6282            7 
  990000   0.99198645   -6.2864667    4139.2776            5 
  991000   0.99666122   -6.2848167    4157.7437           10 
  992000    1.0010525   -6.2610588    4153.8655            3 
  993000    0.9893531   -6.2969747    4143.9394            4 
  994000     1.007598   -6.2630131    4165.3502            3 
  995000   0.98458319   -6.2673343    4150.8351            4 
  996000     1.010372    -6.300493    4155.0031            5 
  997000    1.0196514   -6.2923445    4130.2512            3 
  998000    1.0044834   -6.2815573    4157.5714            6 
  999000    1.0061097   -6.2690188     4165.044           13 
 1000000   0.99094861    -6.285253    4136.8088            4 
 1001000   0.99714729   -6.2848414    4152.2395            8 
 1002000    1.0021591   -6.2573417    4133.0716            5 
 1003000   0.99313197   -6.2626219    4154.1299            5 
 1004000    1.0104569   -6.2713839    4159.8474           13 
Loop time of 2064.1 on 48 procs for 1000000 steps with 4000 atoms

Performance: 83716.742 tau/day, 484.472 timesteps/s
99.4% CPU use with 48 MPI tasks x no OpenMP threads

MPI task timing breakdown:
Section |  min time  |  avg time  |  max time  |%varavg| %total
---------------------------------------------------------------
Pair    | 121.49     | 128.01     | 132.14     |  20.1 |  6.20
Neigh   | 14.731     | 14.871     | 15.037     |   2.1 |  0.72
Comm    | 112.4      | 118.01     | 127.49     |  26.4 |  5.72
Output  | 1.2101     | 1.2112     | 1.2271     |   0.2 |  0.06
Modify  | 1773.6     | 1782.9     | 1788.8     |   9.5 | 86.38
Other   |            | 19.1       |            |       |  0.93

Nlocal:        83.3333 ave          89 max          78 min
Histogram: 5 2 2 9 7 10 3 5 2 3
Nghost:        1607.73 ave        1629 max        1593 min
Histogram: 4 6 4 13 1 10 7 1 1 1
Neighs:        9167.19 ave       10062 max        8270 min
Histogram: 1 0 6 7 9 13 6 4 0 2
FullNghs:      18334.8 ave       19883 max       17133 min
Histogram: 4 4 6 6 8 9 7 0 2 2

Total # of neighbors = 880071
Ave neighs/atom = 220.01775
Neighbor list builds = 59684
Dangerous builds = 0

#clear
#
#next RN
#
#jump SELF
Total wall time: 0:34:25
