
units lj                  # Use reduced LJ style units
atom_style atomic         # Uncharged point particles
atom_modify map hash      # Needed for indexing of clusters etc
                          # Used to be able to find where atoms are in relation to each other.

# Define a lattice with which to populate the simulation cell. With units
# set to 'lj' the second argument to the lattice command is the reduced
# density rho* and the spacings are multiples of that required to acheive
# that density. Also define a simulation cell called 'box' in lattice units
# and fill it with atoms. Here we're creating a box which is ten lattice
# constants in each direction.
lattice fcc 1.0 spacing 1 1 1                 # All equal sizes - gives the right reduced density.
Lattice spacing in x,y,z = 1.5874011 1.5874011 1.5874011

region box block 0 10 0 10 0 10 units lattice # Defines a region, "box", in lattice units
create_box 1 box                              # Creates a simulation box as specified above,
Created orthogonal box = (0.0000000 0.0000000 0.0000000) to (15.874011 15.874011 15.874011)
  3 by 4 by 4 MPI processor grid
                                              # with one type of atom
create_atoms 1 box                            # Creates particles on lattice points
Created 4000 atoms
  using lattice units in orthogonal box = (0.0000000 0.0000000 0.0000000) to (15.874011 15.874011 15.874011)
  create_atoms CPU = 0.002 seconds


# Set the mass of the first (and only) atom type.
mass 1 1.0

# Lennard-Jones interactions between particles, 3.5 sigma cut-off. Apply
# long range tail corrections to energy and pressure and set all coefficients
# to unity since we work in reduced units here. Note that this doesn't shift
# the potential such that it goes to zero at the cutoff. That would require
# pair_modify('shift', 'yes').
pair_style lj/cut  3.5      # non-GPU version
pair_modify tail  yes
pair_coeff 1  1  1.0  1.0   # Intearaction between 1 and 1 set with epsilon = 1 and sigma = 1

write_data data.*
System init for write_data ...
Neighbor list info ...
  update every 1 steps, delay 10 steps, check yes
  max neighbors/atom: 2000, page size: 100000
  master list distance cutoff = 3.8
  ghost atom cutoff = 3.8
  binsize = 1.9, bins = 9 9 9
  1 neighbor lists, perpetual/occasional/extra = 1 0 0
  (1) pair lj/cut, perpetual
      attributes: half, newton on
      pair build: half/bin/atomonly/newton
      stencil: half/bin/3d
      bin: standard

#############################
#   M E L T   S Y S T E M   #
#############################

velocity all create 2.4 3143649 mom yes dist gaussian # Assign velocities
                                                    # Temperature 2.4, random number seed, zero linear momentum
						                                                        # Gaussian distribution

timestep 0.002   # simulation timestep
thermo 1000       # output thermodynamic data every 1000 steps

# Define a fix  in this case with index 1 applied to all
# particles in the simulation. This fix is for simulations
# in the anisotropic NPT ensemble. Note that we use the MTK
# correction.
fix 1 all npt temp 2.4 2.4 0.1 iso 5.68 5.68 0.5 mtk yes tchain 5 pchain 5 # Use NPT ensemble
                                                                         # Set temperature and pressure and damping
                                                                         # Numbers of thermostats in chain and in barostat
run 1000         # run for 10000 steps
Per MPI rank memory allocation (min/avg/max) = 3.642 | 3.644 | 3.648 Mbytes
Step Temp E_pair E_mol TotEng Press Volume 
       0          2.4   -8.3859253            0   -4.7868253   -2.2405722         4000 
    1000    2.3556826   -4.4218277            0  -0.88918722    5.9178648    5149.9434 
Loop time of 0.234923 on 48 procs for 1000 steps with 4000 atoms

Performance: 735560.292 tau/day, 4256.715 timesteps/s
99.4% CPU use with 48 MPI tasks x no OpenMP threads

MPI task timing breakdown:
Section |  min time  |  avg time  |  max time  |%varavg| %total
---------------------------------------------------------------
Pair    | 0.090521   | 0.10005    | 0.11139    |   1.4 | 42.59
Neigh   | 0.017384   | 0.018606   | 0.020271   |   0.5 |  7.92
Comm    | 0.063175   | 0.077498   | 0.088004   |   2.1 | 32.99
Output  | 2.543e-05  | 2.638e-05  | 3.4076e-05 |   0.0 |  0.01
Modify  | 0.03246    | 0.037172   | 0.04211    |   1.6 | 15.82
Other   |            | 0.001568   |            |       |  0.67

Nlocal:        83.3333 ave          91 max          77 min
Histogram: 5 1 7 7 6 11 2 6 0 3
Nghost:        1399.19 ave        1422 max        1377 min
Histogram: 1 1 6 6 12 10 4 2 3 3
Neighs:        7397.58 ave        8529 max        6755 min
Histogram: 5 7 9 9 9 3 3 1 0 2

Total # of neighbors = 355084
Ave neighs/atom = 88.771000
Neighbor list builds = 86
Dangerous builds = 18

# Equilibrate just above the melting temperature to avoid step fn in T

fix 1 all npt temp 1.25 1.25 0.1 iso 5.68 5.68 0.5 mtk yes tchain 5 pchain 5
run 1000
Per MPI rank memory allocation (min/avg/max) = 3.642 | 3.644 | 3.648 Mbytes
Step Temp E_pair E_mol TotEng Press Volume 
    1000    2.3556826   -4.4218277            0  -0.88918722    5.9178648    5149.9434 
    2000    1.2718396   -5.8179173            0   -3.9106348    5.8388957    4340.7158 
Loop time of 0.217926 on 48 procs for 1000 steps with 4000 atoms

Performance: 792930.054 tau/day, 4588.716 timesteps/s
99.6% CPU use with 48 MPI tasks x no OpenMP threads

MPI task timing breakdown:
Section |  min time  |  avg time  |  max time  |%varavg| %total
---------------------------------------------------------------
Pair    | 0.093822   | 0.09989    | 0.1146     |   1.2 | 45.84
Neigh   | 0.015552   | 0.016162   | 0.018734   |   0.4 |  7.42
Comm    | 0.058069   | 0.07567    | 0.083229   |   1.8 | 34.72
Output  | 2.4589e-05 | 2.5805e-05 | 3.9567e-05 |   0.0 |  0.01
Modify  | 0.020272   | 0.02419    | 0.028895   |   1.5 | 11.10
Other   |            | 0.001988   |            |       |  0.91

Nlocal:        83.3333 ave          89 max          77 min
Histogram: 4 4 1 5 6 7 7 6 3 5
Nghost:        1554.81 ave        1572 max        1531 min
Histogram: 1 1 2 6 7 10 4 10 2 5
Neighs:        8780.42 ave        9530 max        7727 min
Histogram: 1 0 5 5 4 10 6 8 6 3

Total # of neighbors = 421460
Ave neighs/atom = 105.36500
Neighbor list builds = 74
Dangerous builds = 4


# Small amount of linear quench

fix 1 all npt temp 1.25 ${temp} 0.1 iso 5.68 5.68 0.5 mtk yes tchain 5 pchain 5
fix 1 all npt temp 1.25 1 0.1 iso 5.68 5.68 0.5 mtk yes tchain 5 pchain 5
run 2000
Per MPI rank memory allocation (min/avg/max) = 3.643 | 3.645 | 3.648 Mbytes
Step Temp E_pair E_mol TotEng Press Volume 
    2000    1.2718396   -5.8179173            0   -3.9106348    5.8388957    4340.7158 
    3000    1.1232813   -6.0041678            0   -4.3196671    5.8127214    4254.3438 
    4000    1.0240298   -6.2234758            0    -4.687815    5.6627071    4176.0782 
Loop time of 0.435921 on 48 procs for 2000 steps with 4000 atoms

Performance: 792804.154 tau/day, 4587.987 timesteps/s
99.7% CPU use with 48 MPI tasks x no OpenMP threads

MPI task timing breakdown:
Section |  min time  |  avg time  |  max time  |%varavg| %total
---------------------------------------------------------------
Pair    | 0.19441    | 0.21221    | 0.23306    |   1.3 | 48.68
Neigh   | 0.026793   | 0.027961   | 0.02892    |   0.3 |  6.41
Comm    | 0.1233     | 0.14678    | 0.16728    |   1.8 | 33.67
Output  | 4.7102e-05 | 4.8166e-05 | 6.1942e-05 |   0.0 |  0.01
Modify  | 0.04046    | 0.044047   | 0.047834   |   1.2 | 10.10
Other   |            | 0.004876   |            |       |  1.12

Nlocal:        83.3333 ave          90 max          78 min
Histogram: 5 4 5 5 4 15 2 4 3 1
Nghost:        1598.50 ave        1616 max        1581 min
Histogram: 2 1 6 5 13 4 8 7 1 1
Neighs:        9125.40 ave       10006 max        8338 min
Histogram: 3 4 5 6 9 6 5 7 2 1

Total # of neighbors = 438019
Ave neighs/atom = 109.50475
Neighbor list builds = 124
Dangerous builds = 0

#############################
# F R E E Z E  S Y S T E M  #
#############################

# Define solid atoms. This closely follows ten Wolde  Ruiz-Montero and Frenkel  Faraday Discuss  1996  104  93-110
# Compute components of the per-atom q6 vector
compute q6 all orientorder/atom degrees 1 6 components 6 nnn NULL cutoff 1.3 # compute the Q6 parameter.
                                                                             # Use all neighbours within 1.3 unit cell.

# get number of connections
compute coord_number all coord/atom orientorder q6 0.5

# An atom is solid if it has 8 or more connections (of a possible 14)
variable is_solid atom c_coord_number>=8
group solid dynamic all var is_solid    # Must be dynamic to update
dynamic group solid defined

# do clustering
compute cluster solid cluster/atom 1.3 # Create a cluster where all atoms within are solid and max 1.3 units from another member

# define chunks one chunk per cluster
compute clus_chunks solid chunk/atom c_cluster nchunk every compress yes  # Says which atoms are in which chunk

# count the size of each chunk
compute size_chunks solid property/chunk clus_chunks count


# Find the maximum entry in the vector of chunk sizes
variable max_n equal max(c_size_chunks)


# Thermo style which includes this variable
thermo_style custom step temp pe vol v_max_n

thermo ${N}  # Print the thermo information every 100 steps
thermo 1000  

# Reset the npt fix at a lower temperature (below freezing)
fix 1  all npt temp  ${temp} ${temp}  0.1  iso  5.68  5.68  0.5  mtk yes tchain  5  pchain  5
fix 1  all npt temp  1 ${temp}  0.1  iso  5.68  5.68  0.5  mtk yes tchain  5  pchain  5
fix 1  all npt temp  1 1  0.1  iso  5.68  5.68  0.5  mtk yes tchain  5  pchain  5

dump dmp2 all dcd ${N} traj_${rand}.dcd
dump dmp2 all dcd 1000 traj_${rand}.dcd
dump dmp2 all dcd 1000 traj_462431.dcd


# fix rnuntil all halt ${N} v_max_n >= 3980 error soft message no   # Stop when solidified


run 1000000 # 5000000  # Run for this many steps
Neighbor list info ...
  update every 1 steps, delay 10 steps, check yes
  max neighbors/atom: 2000, page size: 100000
  master list distance cutoff = 3.8
  ghost atom cutoff = 3.8
  binsize = 1.9, bins = 9 9 9
  4 neighbor lists, perpetual/occasional/extra = 1 3 0
  (1) pair lj/cut, perpetual
      attributes: half, newton on
      pair build: half/bin/atomonly/newton
      stencil: half/bin/3d
      bin: standard
  (2) compute orientorder/atom, occasional
      attributes: full, newton on
      pair build: full/bin/atomonly
      stencil: full/bin/3d
      bin: standard
  (3) compute coord/atom, occasional
      attributes: full, newton on
      pair build: full/bin/atomonly
      stencil: full/bin/3d
      bin: standard
  (4) compute cluster/atom, occasional
      attributes: full, newton on
      pair build: full/bin/atomonly
      stencil: full/bin/3d
      bin: standard
Per MPI rank memory allocation (min/avg/max) = 9.364 | 9.369 | 9.372 Mbytes
Step Temp PotEng Volume v_max_n 
    4000    1.0240298   -6.2234758    4176.0782            5 
    5000   0.98832734   -6.2788207     4151.134            4 
    6000   0.99788818   -6.2657523    4151.9439            4 
    7000    1.0012685   -6.2383502    4158.8731            5 
    8000   0.99038152   -6.2865543    4174.9438           14 
    9000    1.0001303   -6.3043226    4142.2419           10 
   10000    1.0053251   -6.2760333    4152.3601            6 
   11000    1.0205993   -6.2580813    4169.0815            6 
   12000   0.99578422   -6.2930388     4143.139            2 
   13000   0.98086806   -6.3126317    4148.4811            6 
   14000    1.0060952   -6.2478699    4161.5712            7 
   15000   0.99995467   -6.2861904    4159.9506           10 
   16000    0.9976212   -6.2505664    4165.7734            8 
   17000    1.0103648   -6.2738213    4150.0862            4 
   18000   0.99118041   -6.2573408    4154.9836            7 
   19000   0.99032014   -6.2650901     4164.855           11 
   20000    1.0203565   -6.2652047    4146.0647            6 
   21000    1.0115061     -6.24895    4151.7351            4 
   22000   0.99223461   -6.2651795     4146.002            7 
   23000    1.0204371   -6.2560803    4158.2362            7 
   24000   0.99530946    -6.289244    4151.1861            6 
   25000   0.98216032   -6.2587476    4151.4063            7 
   26000   0.98067332   -6.2675938    4154.4399            6 
   27000     1.013608   -6.2544948    4151.7357            9 
   28000   0.97981129    -6.275517    4155.2793            4 
   29000   0.99173675    -6.269242     4153.741            5 
   30000    1.0063176   -6.2507063      4154.26            3 
   31000    1.0051423   -6.2605126    4165.4259            7 
   32000   0.99568786   -6.2513857    4157.8352            8 
   33000    1.0167115   -6.2421271    4162.5119            3 
   34000   0.99603981   -6.2295406    4168.1422           12 
   35000    1.0122418   -6.2474479    4154.0208            6 
   36000   0.98986228     -6.27836    4153.0581            9 
   37000   0.99624272   -6.2787878    4160.5114            8 
   38000   0.98998126   -6.2882484    4151.8801            8 
   39000   0.97895895   -6.2889646    4147.4681            5 
   40000    1.0003741   -6.3007691    4150.0827           12 
   41000    1.0193761   -6.2734816    4155.0899            8 
   42000    1.0062518   -6.2505179    4150.7462            8 
   43000    1.0000373   -6.2771002    4158.5551            4 
   44000   0.98702993   -6.2628968    4144.7649            6 
   45000   0.99938182   -6.2773557    4147.6215            7 
   46000   0.99051085   -6.2728378     4140.248            5 
   47000   0.99140841   -6.2569476     4142.232            5 
   48000    1.0113537   -6.2272322    4155.6536            6 
   49000    1.0098882   -6.2372114    4164.1284            5 
   50000    1.0247609   -6.2794732    4151.3451            8 
   51000     1.018291   -6.2655786    4151.4061            3 
   52000   0.99794605   -6.2835739    4142.0492            9 
   53000     1.006885   -6.2463832    4137.6281            8 
   54000    1.0068152   -6.2412306    4156.5345            4 
   55000   0.97413482   -6.2585002    4153.2158            6 
   56000   0.99440437   -6.2889131    4144.9298            6 
   57000    1.0166224   -6.2547216    4170.7627           11 
   58000   0.99011918   -6.2871684    4145.0683            5 
   59000    1.0282268   -6.2483371    4163.9186            4 
   60000    1.0132787    -6.257082    4164.0267           12 
   61000   0.99736878   -6.2766413    4128.0988            5 
   62000    1.0325483   -6.2507459    4163.7681            5 
   63000   0.98771205   -6.2668976    4144.3711            5 
   64000    1.0175094   -6.2356033    4173.8781            6 
   65000    1.0106766   -6.2517465     4152.212            4 
   66000   0.99310444    -6.273037    4144.0701            6 
   67000    1.0134484    -6.267173    4138.3811            9 
   68000   0.97901364   -6.3016229    4160.2264            8 
   69000   0.99507443   -6.2643819    4152.6304            6 
   70000   0.99079752   -6.2708661    4159.3215            5 
   71000    1.0105787   -6.2431384    4156.4993            5 
   72000   0.99109607    -6.292361    4161.0101            9 
   73000   0.99594155   -6.2324605    4135.6517            7 
   74000    1.0164199   -6.2295024    4170.3803           19 
   75000    1.0246755   -6.2445327    4145.3212            7 
   76000     1.004749   -6.2791915    4168.5252            4 
   77000     1.013952   -6.2573874    4170.3334            6 
   78000   0.98316213    -6.267765    4172.6064            2 
   79000   0.99806453   -6.2952898    4148.5629            7 
   80000    1.0074278   -6.2744213    4142.9339            3 
   81000    1.0102012   -6.2918588    4150.9617            4 
   82000   0.98153698   -6.2679147    4155.6691            3 
   83000    0.9866235   -6.3052351    4149.6023            4 
   84000     1.004898   -6.2629175    4141.8982            9 
   85000    1.0140304   -6.2464549     4156.613            6 
   86000   0.98794213   -6.2897892    4165.2676           10 
   87000    1.0044566   -6.2748287    4148.6975            6 
   88000    1.0017305     -6.26174    4140.2999            7 
   89000    1.0141329   -6.2718725    4150.4545            7 
   90000     1.001646   -6.2385465     4152.875            4 
   91000   0.99678374   -6.2804453      4156.78            4 
   92000   0.99836227   -6.2776667    4156.8242            5 
   93000   0.98073502   -6.2835472    4145.1876            8 
   94000    1.0051059   -6.2618226    4155.1196            4 
   95000   0.99362422   -6.2930951    4142.9081            4 
   96000   0.99655022   -6.2798225    4146.0094           15 
   97000   0.99297206   -6.2938003    4155.4685            4 
   98000   0.98675331    -6.285364    4143.6151            4 
   99000    1.0009441   -6.2611073     4145.609           10 
  100000   0.97655057   -6.2558411    4161.4648            5 
  101000    1.0191263   -6.2783404    4150.9253            9 
  102000    1.0096589   -6.2824365    4152.2402            4 
  103000    1.0091954   -6.2839461     4154.257           11 
  104000     1.001521   -6.2657742     4143.009            4 
  105000   0.98925583   -6.3091856    4146.4545            9 
  106000   0.99756363    -6.250248    4154.2194            6 
  107000    0.9969412   -6.2698738    4162.4549           10 
  108000   0.99592005   -6.2692208    4157.0314            9 
  109000   0.99435381    -6.286419    4140.0149            4 
  110000   0.98842982   -6.2623208    4159.3211            6 
  111000    1.0036708   -6.2850784    4139.5264            3 
  112000    1.0160438   -6.2738436    4146.2267            4 
  113000   0.99946287   -6.2975504    4162.6436            6 
  114000    1.0136502   -6.2556278    4152.7287           15 
  115000   0.98103271   -6.2481495    4163.8817           10 
  116000    1.0009187   -6.2894427    4155.6469            7 
  117000   0.99352098   -6.2725886    4149.4194            7 
  118000    1.0134031   -6.2916378    4143.6337            7 
  119000   0.99641928   -6.2418246    4144.7142            5 
  120000   0.99558963   -6.2676211    4150.9839            7 
  121000   0.99393866   -6.2953198    4150.2826            8 
  122000    1.0103357   -6.2717753    4161.2214            3 
  123000    1.0092352   -6.2764075    4160.4536           13 
  124000   0.98677424   -6.2391347    4172.8498           10 
  125000    1.0180692     -6.28918    4170.8267            6 
  126000    1.0278601   -6.2708575    4146.5886            3 
  127000    1.0009438    -6.293082    4144.5593            5 
  128000    1.0011508   -6.2949882    4149.8594            8 
  129000   0.99185394    -6.253794    4165.9663            8 
  130000    1.0176877    -6.240368    4153.7616            4 
  131000   0.99108755   -6.2850189     4163.481            7 
  132000   0.99993915   -6.2502484    4158.3829            7 
  133000   0.98933768   -6.2605919    4149.7267            3 
  134000   0.99987908    -6.268132    4153.0817            4 
  135000   0.99592658   -6.2666066    4150.1018            9 
  136000    1.0032132    -6.250242    4146.2496            4 
  137000   0.99391057   -6.2637992     4139.717            7 
  138000   0.98942127   -6.2674188    4136.9476            6 
  139000    1.0028494   -6.2934085    4150.2875            9 
  140000   0.99536744   -6.2342505    4157.2837           15 
  141000   0.98041609   -6.2860003     4167.311            4 
  142000   0.99100269   -6.2594186    4161.7973            4 
  143000    1.0014553   -6.2418091    4152.0318            9 
  144000   0.98231887   -6.2683643    4184.7547            7 
  145000   0.99218561   -6.2272401    4175.9636            9 
  146000    1.0146909    -6.278595    4156.9588            5 
  147000   0.99612854   -6.2870009    4157.2131            4 
  148000   0.99548921   -6.2991202     4146.424            9 
  149000    1.0132124   -6.3135601    4147.3782            8 
  150000    1.0164998   -6.2798363    4162.1056           31 
  151000   0.97225188   -6.2917227    4141.7252            4 
  152000   0.99910096     -6.26311    4128.9043           10 
  153000   0.99685333   -6.2624886    4163.2038            5 
  154000   0.99940413   -6.2637934    4152.5178            6 
  155000   0.99955475    -6.283759    4156.1559            6 
  156000     1.001915   -6.2758019    4151.5148            7 
  157000    1.0184581   -6.2797612    4146.0817            5 
  158000    1.0113533   -6.2447971     4158.538            5 
  159000    0.9960568   -6.2724362    4135.5983            3 
  160000   0.98759718   -6.2312039    4173.0756            5 
  161000    1.0054754   -6.2744397    4157.8567            4 
  162000   0.99977009   -6.2332897    4145.9752           10 
  163000   0.98968723   -6.2538944    4158.6359            7 
  164000   0.99682962    -6.263601     4156.869            6 
  165000     1.005137   -6.2965881    4172.0314            6 
  166000   0.99274976   -6.2624215    4135.7627            8 
  167000   0.98826007   -6.2455876    4153.1379            5 
  168000    1.0049886   -6.2579996    4136.6129            6 
  169000    1.0138684   -6.2791464    4145.6766           10 
  170000    1.0106855   -6.2689695     4136.048            5 
  171000   0.98945202    -6.270464    4168.4789            4 
  172000    1.0126952   -6.2519254     4160.196            3 
  173000   0.97304288    -6.297585    4150.2084           13 
  174000   0.98135437   -6.2730935    4157.2781            9 
  175000    1.0111542   -6.2492485    4158.6501            9 
  176000   0.98699507   -6.2848203    4146.6053           10 
  177000   0.99107387   -6.2818191    4142.5658            7 
  178000    1.0064603   -6.2256949    4151.7357           13 
  179000    1.0136808   -6.2424796      4160.63            6 
  180000   0.98575041   -6.2718235    4150.8873            9 
  181000    1.0045009   -6.2480349    4153.7716            8 
  182000    1.0155442   -6.2704613    4133.2959            9 
  183000   0.99686325   -6.2934936    4141.0898            3 
  184000   0.99827732   -6.2416241     4154.413            5 
  185000    1.0113318   -6.2851884    4148.5911            8 
  186000   0.98925984    -6.283465    4141.3943            5 
  187000    0.9894412   -6.2683574    4143.9207           10 
  188000    1.0013096   -6.2883332    4162.0111           10 
  189000    1.0086674   -6.2549782    4162.7381            4 
  190000   0.97726715   -6.2878517    4148.9034            3 
  191000     1.002751   -6.2658555    4130.6268            7 
  192000    1.0114358   -6.2969144    4151.9627            3 
  193000    1.0142054   -6.2580295    4149.1012            8 
  194000   0.98335204   -6.2672377    4157.7306            4 
  195000    1.0068136    -6.269369    4149.7604            6 
  196000   0.98694531   -6.2816694    4163.0022           13 
  197000    1.0125623   -6.2735376    4150.7654           14 
  198000   0.99420029   -6.2882794     4148.069            7 
  199000    0.9961408    -6.268671    4150.7437            8 
  200000    1.0078235   -6.2709321    4167.7106            6 
  201000    1.0003334   -6.2682394    4158.5915            3 
  202000    1.0031279   -6.2582477    4152.9527            7 
  203000    1.0081357   -6.2548301    4157.0887            4 
  204000   0.98997627   -6.2755653    4134.8543            5 
  205000    1.0125847    -6.236799    4153.0995            3 
  206000   0.99288706   -6.2522061      4147.29            6 
  207000   0.97406122   -6.2925216    4141.6126            3 
  208000    1.0004186   -6.3063944    4144.8769            9 
  209000     1.021344   -6.2425665    4145.8045           11 
  210000   0.98752832   -6.2601748    4148.8319            5 
  211000    1.0138253   -6.2949699    4149.5244           22 
  212000   0.98807083   -6.3049662    4154.8073            4 
  213000    1.0022181   -6.2857564    4154.4904            6 
  214000   0.99563435    -6.269611    4143.9651            6 
  215000    1.0235198   -6.3025384    4145.7736            7 
  216000    0.9995129   -6.2916502    4142.0555            7 
  217000   0.99442472   -6.2638917    4137.8173            4 
  218000    1.0061304   -6.2931235    4160.9822            5 
  219000   0.96889348   -6.2901237    4149.9448            5 
  220000   0.99761085   -6.3172596     4159.345            9 
  221000    1.0009253   -6.2712751    4151.1756            5 
  222000    1.0001955   -6.2765436    4161.7745           11 
  223000    1.0077929   -6.2838746    4158.9611            5 
  224000    1.0063356   -6.2834202    4142.2398            5 
  225000   0.99002666   -6.2598303    4179.4258           10 
  226000   0.99877159   -6.2175647    4168.8903            7 
  227000    1.0003651   -6.2760272    4153.7433            4 
  228000   0.99611628   -6.2665153    4160.1528            6 
  229000    1.0099856   -6.2631232    4172.5919            6 
  230000    1.0455783   -6.2479577    4151.4412            6 
  231000    1.0209784   -6.2777123    4157.6418            8 
  232000   0.99077346   -6.2442528    4161.4543            7 
  233000   0.98046571   -6.2856623    4158.7991            8 
  234000    1.0046692   -6.2686095    4150.5126            5 
  235000    1.0082805   -6.2369453    4161.5616            3 
  236000   0.98741364   -6.2890007    4163.5894            5 
  237000   0.99608552   -6.2342889    4157.1978            9 
  238000    1.0155213    -6.248871    4157.1798            6 
  239000    1.0239822   -6.2728576    4163.2583            6 
  240000    1.0121621   -6.2616089    4155.8506            6 
  241000   0.98461271   -6.3355742    4148.5639            8 
  242000   0.98981491   -6.2738589    4139.2979            7 
  243000   0.99527634   -6.2412528    4165.1043            3 
  244000    1.0002076   -6.2924031    4151.3849            6 
  245000   0.99175678   -6.2827236    4141.9843            7 
  246000     1.016022   -6.2371396    4158.9769            8 
  247000    1.0206965    -6.255252    4154.1096            3 
  248000    1.0108944   -6.2973846     4155.254            8 
  249000     1.004277   -6.2852309    4151.5024            5 
  250000   0.98229945   -6.2674385    4167.6664            7 
  251000    1.0067089   -6.2434277    4154.5773            6 
  252000   0.97959657   -6.2648093    4148.2753           12 
  253000    1.0135076   -6.3134098    4167.5602            7 
  254000   0.97278239   -6.2608813     4156.397            8 
  255000   0.99272849   -6.3027952    4137.9409            8 
  256000    1.0419777   -6.2659152    4149.8803           17 
  257000   0.99921196   -6.2633123    4161.7006           12 
  258000    0.9849989   -6.2761455    4154.8634            6 
  259000     1.017966   -6.3264225    4137.5085            8 
  260000   0.99899805    -6.221687    4150.8072            8 
  261000    1.0115096   -6.2743081    4147.9147            8 
  262000    1.0029387   -6.2674081    4142.9207            8 
  263000   0.97657592   -6.2973691    4135.2382            7 
  264000    1.0151968   -6.3032118    4153.9403            3 
  265000     1.018649   -6.2675586    4140.3599           12 
  266000    1.0098403   -6.2593914    4163.2935           15 
  267000    1.0173015   -6.2982659    4169.6285            5 
  268000    1.0237218   -6.2604701    4136.9701            4 
  269000   0.98384096   -6.2476157    4147.6047            6 
  270000    1.0011616   -6.2779495    4153.8752            5 
  271000    1.0152521   -6.2586661    4153.5247            6 
  272000   0.99859845   -6.2788703    4145.9077            5 
  273000    1.0012232   -6.3062006    4148.4107            7 
  274000    1.0312339   -6.3084346     4143.878            8 
  275000   0.97312905    -6.256076    4148.3974            9 
  276000    1.0343558   -6.2875877    4150.3088           10 
  277000    1.0043787   -6.2598321    4146.8922            5 
  278000   0.99523701   -6.2509028    4153.8897            6 
  279000    1.0002242   -6.3033832    4138.1712            5 
  280000     1.012033   -6.2638266    4157.3497            7 
  281000    1.0005534   -6.2564977    4148.3768            4 
  282000   0.99167766   -6.2660702    4153.6121            6 
  283000   0.99212023   -6.2520196    4152.3721           12 
  284000   0.99757924   -6.2334301    4167.2626            7 
  285000    1.0063859   -6.2708661    4149.3857            4 
  286000   0.99243029   -6.2700435    4156.8083            6 
  287000    1.0283181   -6.2832885    4154.3697           14 
  288000    1.0174287   -6.2713984    4152.0783            7 
  289000    1.0253705   -6.2929683    4140.1339            7 
  290000   0.97884653   -6.2562534    4154.4944            9 
  291000    1.0022801   -6.2785701     4150.639            5 
  292000    0.9951469   -6.2721389    4137.4335           16 
  293000    1.0206078    -6.291127    4153.5924           10 
  294000   0.99846735   -6.3039214    4131.9096            5 
  295000     1.015374   -6.2622892    4142.7639           11 
  296000     1.011745   -6.2911082    4151.0142            6 
  297000    1.0222322   -6.2403618    4155.1268            9 
  298000     1.016451   -6.2483189    4154.2729            6 
  299000   0.99254064   -6.2739292    4146.1316           11 
  300000   0.99369234   -6.2637462    4162.1911            8 
  301000   0.96781976   -6.2682139    4145.2333            7 
  302000   0.99362144   -6.3089547    4155.4467            3 
  303000    0.9860532   -6.2506561    4163.8253            2 
  304000   0.99731811   -6.2667956    4153.1144            6 
  305000    1.0055637   -6.2614309    4158.5947           12 
  306000   0.99529647   -6.2723234    4154.0586            4 
  307000   0.99127542    -6.264183    4159.8673            5 
  308000    1.0004267   -6.2734545     4157.586           14 
  309000   0.98867112   -6.2797221     4137.962            5 
  310000   0.99598405   -6.2628336    4162.0239            5 
  311000    1.0141492   -6.2899014    4146.7358            3 
  312000    1.0025434   -6.3002465    4138.8877            6 
  313000   0.98964032   -6.2747043    4149.3021            5 
  314000   0.98941487    -6.268238    4163.3196            5 
  315000   0.97911717   -6.2602436    4157.3108            7 
  316000    1.0103196   -6.2560512    4167.2518            9 
  317000   0.99229601   -6.3046776    4147.5043            7 
  318000    1.0085223   -6.2490866    4162.4533            4 
  319000    1.0076035   -6.2864156    4156.4051           11 
  320000    1.0213412   -6.2630716    4139.4295            7 
  321000     1.014937   -6.2548833     4165.246            6 
  322000    0.9792055   -6.2682222    4145.9442            8 
  323000   0.97779552   -6.2594074    4159.6574            5 
  324000   0.99039934   -6.2828829    4155.1333            3 
  325000   0.99134996   -6.2496124    4151.6696            8 
  326000    1.0280547   -6.3005254    4156.3439            5 
  327000    1.0045708   -6.2621493    4141.8707            6 
  328000   0.99242167   -6.2560703     4152.824           13 
  329000   0.99608253   -6.2811546     4163.642           10 
  330000    1.0090444   -6.2912486    4147.6878            6 
  331000    1.0045223   -6.2708676     4158.132            8 
  332000    1.0219295   -6.2689202    4150.4032            3 
  333000   0.98597371   -6.2910117    4161.4639           11 
  334000   0.99676421   -6.2933473    4135.9171           12 
  335000   0.99147844   -6.3080472    4166.5927            6 
  336000   0.99573825   -6.2904176     4149.074            7 
  337000    1.0270485   -6.2955628    4146.8547            4 
  338000   0.99258484   -6.2714746    4162.7008            4 
  339000   0.99693007   -6.2718064    4150.0186            5 
  340000    1.0042668   -6.2611303    4154.1401            7 
  341000    0.9902762   -6.2423136    4157.2732            6 
  342000   0.98923201   -6.2555487    4150.6387            4 
  343000    1.0102031   -6.2402216    4153.8101            7 
  344000   0.98856291   -6.2785826    4159.9792           10 
  345000    1.0102059   -6.2771905    4150.0215            7 
  346000    1.0126768     -6.27753    4167.7837            8 
  347000   0.98710548   -6.2615776    4147.8222            9 
  348000    1.0079769   -6.2816294    4141.4648            8 
  349000    1.0036825   -6.2888324    4141.8143           14 
  350000   0.99336104   -6.2719062    4162.2485            8 
  351000    1.0128962   -6.2795687    4150.7605            5 
  352000    1.0140139   -6.2940717    4143.0992            6 
  353000    1.0033735   -6.2798906    4160.4449            4 
  354000    1.0058269    -6.292183    4150.8607            3 
  355000    1.0065535   -6.2293772    4148.5694            7 
  356000    1.0222157   -6.2799816    4161.1296            6 
  357000    1.0121303   -6.2639051    4169.4946           12 
  358000   0.99375427   -6.2889995     4142.929           14 
  359000   0.99239459   -6.3100807    4134.6674           10 
  360000    1.0224768     -6.27177    4155.2297            7 
  361000    1.0118829    -6.297172    4154.9527           10 
  362000    0.9804468   -6.2629709    4150.7167            3 
  363000   0.97936846   -6.2703777    4161.3319            4 
  364000    1.0012563   -6.2799874    4151.9041            5 
  365000    1.0092353     -6.30175    4161.2978           10 
  366000   0.99580005   -6.2778438     4146.721            6 
  367000     1.009497   -6.2518711    4160.7957            4 
  368000    0.9720916   -6.2465465     4153.169            8 
  369000    1.0048616   -6.2966305    4137.4552            6 
  370000    1.0146326   -6.2621698    4158.4032           11 
  371000   0.99534678   -6.2962896    4158.6057            5 
  372000   0.98878344   -6.2447905    4152.8897           10 
  373000   0.98662818   -6.2547515      4143.84            5 
  374000    1.0093288   -6.2601582     4168.891           15 
  375000   0.99668628   -6.2443024    4161.2623           16 
  376000    1.0146734    -6.282371    4156.2811           12 
  377000   0.99177976    -6.270601    4158.6407            5 
  378000    1.0048779   -6.2641775    4160.6964            5 
  379000    0.9895587   -6.2787149    4157.8448            6 
  380000   0.99459523    -6.285502     4151.195           11 
  381000    1.0229392   -6.2578002    4147.7983            7 
  382000    1.0048834   -6.2872106    4156.8077            5 
  383000    1.0045007   -6.2988767    4149.3188            6 
  384000   0.98171333   -6.2755518    4148.7411            3 
  385000   0.98943492   -6.2954958    4156.0746            8 
  386000    1.0198055   -6.2491406    4149.3565            6 
  387000   0.99698856   -6.2376761    4145.5728            4 
  388000    1.0165986   -6.2437931    4154.2174            6 
  389000   0.99299802   -6.2396516     4166.182            3 
  390000   0.99654182   -6.2850226     4141.392           12 
  391000    1.0134328   -6.2715401    4159.8135           15 
  392000    1.0073257   -6.2804573    4151.9592            9 
  393000   0.98277062    -6.264247    4160.6364            6 
  394000    1.0255743   -6.2331771    4142.4908           16 
  395000    1.0226707    -6.225734    4161.6102            5 
  396000    1.0120423   -6.2656032    4146.6578           13 
  397000   0.99505675   -6.2667653     4161.862            3 
  398000     1.006726   -6.2436926    4163.3966            7 
  399000    0.9794547   -6.2841096     4152.523            8 
  400000     1.002879   -6.2712854      4149.63           12 
  401000    1.0015712   -6.2767511    4155.7093            4 
  402000   0.99581678   -6.2946729    4157.8938            6 
  403000   0.99617657   -6.2659239    4159.5944            7 
  404000    1.0070922   -6.2724264    4138.2356           17 
  405000    1.0218532   -6.2618666    4143.2965            5 
  406000    1.0281858    -6.264171     4161.149            7 
  407000   0.99119694   -6.3035764    4147.1206            6 
  408000    1.0123075   -6.2883938      4148.63            6 
  409000     1.018345   -6.2766545    4153.3688            7 
  410000    1.0043404   -6.2671821    4148.5799            5 
  411000    1.0089106    -6.263643    4147.9213            8 
  412000    1.0088777   -6.2151133    4154.4638            4 
  413000    1.0131884   -6.2716731    4162.0352            3 
  414000   0.99621714   -6.2563857    4154.8671            5 
  415000   0.99238406   -6.2860368    4157.9557            3 
  416000    1.0008162   -6.2639878    4130.0083           13 
  417000    0.9816794   -6.2764732    4138.4185            7 
  418000    1.0229651   -6.2887025    4162.6651            4 
  419000    0.9974627   -6.2896178    4151.0913            6 
  420000    1.0032706   -6.3122324    4151.8888            5 
  421000   0.99585426   -6.2644246    4144.4888            7 
  422000    0.9989637   -6.2774043    4144.5355            4 
  423000    1.0031378   -6.2540063     4153.969            5 
  424000   0.98649093   -6.2310161    4153.0465            3 
  425000   0.98414503   -6.2673101     4170.983           12 
  426000   0.96998152   -6.2496706    4164.3106            4 
  427000   0.98368773   -6.2900204     4139.281            4 
  428000    1.0120326   -6.2967311    4155.1431            4 
  429000   0.98882136   -6.3122164    4132.2537           10 
  430000    1.0070816    -6.261015    4164.6402            7 
  431000    0.9957075   -6.2402481     4136.473            5 
  432000   0.98695406   -6.3029309    4140.1385           11 
  433000    1.0090241   -6.2749986    4139.0845            7 
  434000    1.0127348   -6.2750136    4146.9079            6 
  435000    1.0071594   -6.2637576    4148.5113            9 
  436000    1.0045844   -6.2632672    4153.4342            8 
  437000   0.99880493   -6.2975444    4152.9968            7 
  438000   0.98268864   -6.2869417    4140.6928           13 
  439000    1.0184191   -6.3061165    4152.2126            5 
  440000   0.98246272   -6.2955888    4140.9024            4 
  441000    0.9984845   -6.3188502    4152.9384            5 
  442000    1.0117449   -6.2848652    4136.9383            3 
  443000   0.99387889   -6.2819929    4166.1196            9 
  444000   0.99792133   -6.2836541    4152.6834            3 
  445000     1.000817   -6.2919625    4147.8611            5 
  446000    1.0032542   -6.2559376    4168.9076           13 
  447000    1.0144608   -6.3006852    4175.3578            5 
  448000    1.0028351   -6.2571319    4159.5182            7 
  449000    1.0034903   -6.2933373    4150.0153            7 
  450000    1.0034812   -6.2670616    4151.8911            7 
  451000    1.0111641   -6.2722888    4155.3576            6 
  452000    0.9895869   -6.2543363    4158.1964            5 
  453000    1.0115631   -6.2707001     4144.864            3 
  454000     1.015237   -6.3039223    4130.8455            9 
  455000    1.0011516   -6.2463242    4146.2498            7 
  456000   0.99916342    -6.292681     4167.631            4 
  457000   0.97792679   -6.2749447    4137.5631            9 
  458000   0.97341593   -6.3022449    4146.9416            4 
  459000   0.97775755   -6.2794174    4156.3936            7 
  460000   0.98781796   -6.2533628    4150.9696            4 
  461000   0.98621381   -6.3054836    4146.3514            4 
  462000    1.0018159   -6.2635014    4152.4935            8 
  463000    1.0124117   -6.2808143    4131.9312            6 
  464000    1.0211334   -6.2492996    4161.7804            4 
  465000    1.0104827   -6.2775804     4139.417            7 
  466000   0.99759285   -6.2578789    4150.5748            9 
  467000   0.98210673   -6.2779271    4150.9252            9 
  468000   0.99810977   -6.2581694     4163.204            5 
  469000    1.0092464   -6.2524448    4162.7422            3 
  470000   0.99915712   -6.2560058    4150.3555           11 
  471000    1.0174686    -6.261657    4170.2885           10 
  472000    1.0027272   -6.2829959     4151.043            5 
  473000    0.9911966   -6.2692267    4147.2952            7 
  474000    1.0222337   -6.2485567    4162.3832            6 
  475000    1.0040442   -6.2309166    4143.5502            4 
  476000   0.98824081   -6.2850865    4147.4286            6 
  477000     0.974953    -6.268452    4163.7556            8 
  478000   0.98231075   -6.2622488      4145.37            9 
  479000   0.98857209   -6.2496616    4153.2639            6 
  480000   0.98759942   -6.2723427    4159.5941            5 
  481000   0.99577062   -6.2948039    4141.9242            6 
  482000    1.0084784   -6.2893244    4148.1249            7 
  483000   0.99584559   -6.3197007    4134.0617            8 
  484000   0.98930565   -6.2801544    4148.7631            5 
  485000    1.0175573   -6.2821259    4151.0851            4 
  486000   0.98908772   -6.2796893    4153.3532            6 
  487000    1.0199742   -6.2748176    4168.9661            6 
  488000   0.99558753   -6.2962639    4156.0718            6 
  489000   0.98190188   -6.2263759    4143.6937            4 
  490000    1.0012945   -6.2903399    4148.5516            4 
  491000    1.0273553   -6.2600798    4152.7577           11 
  492000   0.99047574   -6.2688433    4163.1901            8 
  493000    1.0241251   -6.3000442    4135.2831            4 
  494000    1.0166621   -6.2560633    4156.4464            5 
  495000    1.0073442   -6.2671654    4165.1207            4 
  496000    1.0091975   -6.3091883    4156.0716           18 
  497000   0.99507486   -6.2768878    4142.7904            8 
  498000    1.0190686   -6.3034333    4142.5719            9 
  499000    1.0008074   -6.2852294    4151.3059            4 
  500000    1.0009684   -6.2677894    4138.7358            6 
  501000   0.98452572   -6.2819467    4136.0769            6 
  502000   0.98808242   -6.2841946    4157.5675            6 
  503000   0.99343887   -6.2318776    4164.5779            6 
  504000    1.0091144   -6.2678896    4150.8341            8 
  505000    1.0119363   -6.2845449    4139.9049            7 
  506000    1.0073174   -6.2850031     4159.136            4 
  507000    1.0049027   -6.2679662    4155.9879            3 
  508000   0.98814777   -6.2730124    4164.7529            5 
  509000   0.99245031   -6.2392479    4160.5938            4 
  510000   0.99784075   -6.2467135    4172.2301            8 
  511000   0.98563863   -6.2661735    4154.5877            8 
  512000     1.013452    -6.286956     4122.826            5 
  513000   0.99734004   -6.2771659    4150.8913           10 
  514000   0.99303015   -6.2469619    4141.6368            4 
  515000   0.98477378   -6.2996004    4155.5505           12 
  516000    1.0134669    -6.214582     4169.076            8 
  517000    1.0135027   -6.2559306    4158.0774            4 
  518000    1.0000693   -6.2719069    4148.8558           13 
  519000   0.98608965   -6.2810076    4151.2933            7 
  520000   0.99615744   -6.2463892     4161.614           11 
  521000    1.0110799   -6.2731247    4152.8843           20 
  522000   0.99564124   -6.2619438    4165.4353            7 
  523000   0.99630795   -6.2589004    4166.0379            4 
  524000    1.0002746    -6.267481    4165.0881            6 
  525000    1.0014436   -6.2731819    4141.2241            6 
  526000    1.0179217   -6.2953605    4154.0507           13 
  527000   0.99494845   -6.2357783    4165.0926            7 
  528000    1.0101917   -6.2986413    4169.8911            8 
  529000    1.0172309   -6.2346965    4151.2578            9 
  530000     1.000987   -6.3065428    4145.3595            5 
  531000    1.0062931   -6.2986969    4144.8839            4 
  532000    1.0143682   -6.2527656     4163.743            7 
  533000   0.97990031   -6.2678116    4151.5684            3 
  534000   0.99642534   -6.2636782    4136.6919           11 
  535000    1.0290721   -6.2786403    4162.4629            5 
  536000    1.0061293   -6.2541868    4172.1965            6 
  537000    1.0229666   -6.2507504    4157.4338            7 
  538000   0.99182957   -6.2692396    4152.7896            5 
  539000   0.98732867   -6.2360512    4178.5273            8 
  540000    1.0034894   -6.2704744    4159.1984            3 
  541000    1.0212778   -6.2723527    4142.5337            8 
  542000    1.0032566   -6.2348081    4156.0406            7 
  543000   0.99193318   -6.2877258    4137.0403            6 
  544000    0.9791221   -6.2831208    4133.3123            5 
  545000   0.97198694   -6.2817432    4162.4405            7 
  546000    1.0090407   -6.2919411    4154.2971            6 
  547000   0.97183584   -6.2943292    4148.9077            9 
  548000   0.98695112   -6.2459812    4153.6469            8 
  549000    1.0287296   -6.2452492    4146.5936            5 
  550000    1.0034176   -6.2627962    4132.5726           10 
  551000   0.98810494    -6.278831    4153.5899            6 
  552000   0.97604338   -6.2729108    4169.6831            5 
  553000    1.0062476   -6.3028455    4159.0133            6 
  554000    1.0023201   -6.2845823    4141.3536            3 
  555000   0.99874321   -6.2587788    4157.4973            9 
  556000     1.011277    -6.286562    4145.4545            6 
  557000   0.98321712   -6.2970437    4149.4681           11 
  558000   0.98707434   -6.2984686    4146.9686            7 
  559000    1.0010843   -6.2743799    4151.4767            5 
  560000    1.0107047   -6.2756382       4142.7            5 
  561000    1.0041206   -6.2891598    4138.0965            6 
  562000    1.0172264   -6.2897179    4159.0609            3 
  563000   0.98932155   -6.2925645    4149.3597            4 
  564000    0.9926101   -6.2557506    4152.2008            3 
  565000   0.99046406   -6.2697048    4152.4843           22 
  566000    1.0106416   -6.2908441    4159.0659            7 
  567000   0.98840471   -6.2688954    4143.3914            4 
  568000   0.99312082   -6.2650468    4137.9462            4 
  569000    1.0206664   -6.2652505    4155.3774            7 
  570000    1.0095602   -6.2659021    4166.1391           19 
  571000    1.0028662   -6.2498205    4162.7916            6 
  572000   0.99454173   -6.2791456    4169.0686            7 
  573000    0.9974142   -6.2768472    4152.9162            6 
  574000   0.99482089   -6.2732545     4157.873            7 
  575000    1.0058058   -6.2503157    4170.8139           13 
  576000     1.006358    -6.291457    4159.1475            7 
  577000     1.003016   -6.2544856    4152.9286            4 
  578000   0.99224631   -6.2713314    4152.8875            4 
  579000   0.97715473   -6.2431861    4151.3255            3 
  580000    1.0020004   -6.2649021    4167.7671            8 
  581000    1.0012905   -6.2903322    4144.3988            6 
  582000    1.0202789    -6.272912    4139.2027            6 
  583000    1.0114599   -6.2675328    4160.0004            4 
  584000   0.99367785   -6.2754748    4152.0959           11 
  585000    1.0296128   -6.3046689    4145.8897            4 
  586000    1.0093231   -6.3080673    4155.6314            6 
  587000    1.0017431   -6.2717996    4151.0159            5 
  588000   0.98970168   -6.2624886    4140.2135           13 
  589000    1.0099939   -6.2643858    4150.9544            7 
  590000   0.98567932   -6.2355452    4157.4081            8 
  591000    1.0083652   -6.2787009    4151.0905           11 
  592000    1.0025516   -6.2836038    4165.5303            4 
  593000   0.98349252    -6.280548    4148.3707            7 
  594000   0.98772223   -6.2820143    4149.4999            5 
  595000   0.99783136   -6.3053452    4150.9121            5 
  596000   0.98892125   -6.2821036    4165.0982            7 
  597000    1.0029828   -6.2637758    4159.4663            4 
  598000    1.0087444   -6.2759629    4153.6056            6 
  599000   0.99235386    -6.250426    4170.0073            5 
  600000   0.97612635   -6.2402992     4159.258            4 
  601000    1.0088958   -6.2930402    4171.5649            8 
  602000    1.0110194    -6.297203    4149.0993            3 
  603000    1.0048342   -6.2749294    4160.7807            6 
  604000   0.99499992   -6.2253127    4161.4522            7 
  605000    1.0049597   -6.2629523    4153.9402            8 
  606000   0.99521909   -6.2529537    4148.2119            7 
  607000   0.98286299   -6.3087791    4147.9782            8 
  608000    1.0072565   -6.2497535    4163.0139            9 
  609000   0.99730552   -6.2608034    4157.3737           16 
  610000    1.0100482   -6.3028721    4163.9234            4 
  611000   0.98609273   -6.2318366    4140.0663           11 
  612000   0.99142749   -6.2805369    4149.8818            8 
  613000   0.99806268   -6.2807586    4151.3851            9 
  614000   0.99241927   -6.2718889    4137.8071           10 
  615000   0.98771364   -6.2923805     4157.692            9 
  616000    1.0252353   -6.3052666    4159.4804           16 
  617000   0.98087347   -6.2559884    4162.4244            3 
  618000   0.97133129   -6.2479863    4169.3982            4 
  619000   0.98700436    -6.231062    4162.6391            4 
  620000    1.0061258   -6.2800485    4159.0496            6 
  621000   0.99976008   -6.2626348    4160.3706            2 
  622000   0.98805584   -6.2837934    4140.8087            7 
  623000    1.0159667   -6.2627532    4166.3856            8 
  624000   0.99420978   -6.2667937     4141.973            6 
  625000    1.0192591   -6.2518465    4158.7619           10 
  626000    1.0007743   -6.2664106    4149.8573            5 
  627000    1.0109731   -6.2851849    4152.3978            6 
  628000    0.9930972   -6.3070912    4152.3825           12 
  629000   0.99737542   -6.2536787    4137.3061            3 
  630000   0.98167533   -6.2792813    4156.7218            7 
  631000    1.0008568    -6.269095    4147.8583            6 
  632000    1.0359543   -6.2958691     4159.849           22 
  633000    1.0049315    -6.276565    4146.7236            9 
  634000    1.0085728   -6.2255339    4155.9398           10 
  635000    1.0086445    -6.246324    4160.0858            5 
  636000   0.99978892   -6.2943161    4149.7927            4 
  637000   0.98977482   -6.3068863    4147.0841            4 
  638000    1.0212449   -6.2546868    4149.7438            4 
  639000   0.98770981   -6.2612299    4154.1361            3 
  640000    1.0181393   -6.2751849    4161.4512            6 
  641000   0.99253327   -6.2470517    4154.0786            9 
  642000    1.0047342   -6.2859544    4149.7383           18 
  643000   0.98612786   -6.2451334    4137.5125            6 
  644000    1.0040018   -6.2843938    4153.0694            7 
  645000    1.0194376   -6.2679674    4131.3529           10 
  646000    1.0112645   -6.2587389    4158.3509            6 
  647000    1.0280813     -6.25007    4163.8967            6 
  648000    1.0040888   -6.2884022    4168.5641            6 
  649000   0.99998508   -6.2428985    4162.4452            4 
  650000    1.0134062   -6.2849303    4155.4517            8 
  651000   0.98384773   -6.2745082    4150.7177            6 
  652000    1.0123787   -6.2741256    4149.2305            4 
  653000   0.97318197   -6.2998357     4148.911            7 
  654000    1.0212351   -6.2699652    4164.3815            6 
  655000   0.99389644   -6.2430321    4158.4129           12 
  656000    1.0100997   -6.3052815    4133.0553            6 
  657000    1.0028581   -6.2955907    4151.0374            7 
  658000   0.99415617   -6.2562182     4144.206            6 
  659000    1.0192613   -6.2937831     4152.467            3 
  660000    1.0224093   -6.2286147    4174.3469           10 
  661000   0.98555388   -6.2884188     4144.863            6 
  662000   0.98863267   -6.2684779    4157.2552            6 
  663000    1.0113881   -6.2357787    4159.5616            8 
  664000    1.0136419   -6.2745246    4159.0952            5 
  665000    1.0054987    -6.280342    4145.0319            6 
  666000   0.96686326   -6.2912349    4130.7999            6 
  667000    1.0073473   -6.2617954    4141.8398            5 
  668000    1.0035726   -6.2685311    4163.0135            7 
  669000    1.0041447   -6.2844581     4151.081           12 
  670000     1.019144   -6.2748312    4153.9692            4 
  671000    1.0070951   -6.2736818    4144.0752            7 
  672000    1.0300905   -6.2375347    4169.3642            5 
  673000    1.0016089   -6.2896795    4142.6588            6 
  674000   0.97318785   -6.2748485    4152.5532            5 
  675000    1.0006717   -6.2668731    4131.1153            6 
  676000    1.0090703   -6.2324699    4156.0332            5 
  677000    1.0076878   -6.2729069    4138.3042            8 
  678000    1.0015122   -6.2547371    4169.7287            7 
  679000    1.0017057   -6.2737787    4165.3309           11 
  680000    1.0027204   -6.2722128    4150.7286            8 
  681000   0.98292139    -6.280875      4149.03            5 
  682000    1.0055618   -6.2771555    4163.8121            9 
  683000    0.9977335   -6.2522157    4158.5264            7 
  684000   0.99484727   -6.2806045    4152.2727           10 
  685000   0.99914957   -6.2721367    4137.5383            4 
  686000   0.98731269   -6.2810335    4158.0489            8 
  687000   0.99237498   -6.2622852    4145.5406            4 
  688000    1.0037211   -6.2964758    4131.6779            6 
  689000    1.0020282    -6.260823    4149.9303           13 
  690000   0.97756518   -6.2993606    4145.6104           10 
  691000   0.99796363   -6.2941971    4148.6279            8 
  692000   0.99788888    -6.266285     4171.248            6 
  693000     0.996237   -6.2588243    4146.5023           19 
  694000   0.99683705   -6.2748508    4146.9775            6 
  695000   0.98059235   -6.2684441    4162.7495            4 
  696000    1.0270838   -6.2676829    4152.2654            4 
  697000     1.003388   -6.2921615     4138.134            2 
  698000   0.98104726   -6.2622615    4138.9061            5 
  699000    1.0078316   -6.2464599    4166.5384            6 
  700000    1.0215179   -6.2761187    4143.8767            5 
  701000    1.0242677   -6.2693144    4151.2286           10 
  702000   0.99284046   -6.2810646    4138.8511            4 
  703000     1.027181   -6.2481054    4158.7689            5 
  704000    1.0252094   -6.3093353    4152.7521            5 
  705000    1.0022708   -6.3201336    4138.1507            8 
  706000   0.99539238   -6.2728218    4152.3828            2 
  707000     1.004155   -6.2488743    4147.7075            7 
  708000   0.99216494    -6.287349    4156.1197            4 
  709000   0.99240776   -6.2690753    4141.7362            7 
  710000    1.0019173   -6.3022254    4154.7363            7 
  711000    1.0343116   -6.2565393    4169.8516           17 
  712000     1.019258   -6.3020878    4136.2381            6 
  713000   0.98490978   -6.2566699    4161.5111            5 
  714000    1.0000942   -6.2797593    4161.6561            8 
  715000   0.99730314   -6.2754773    4177.2078            8 
  716000    1.0013026   -6.2793504    4155.8709            9 
  717000    1.0299503   -6.2996736    4137.1347           17 
  718000   0.98731487   -6.2841052    4139.7198            3 
  719000    1.0080851   -6.2606706    4175.0266           11 
  720000   0.99201052   -6.2758432    4142.9693            8 
  721000    1.0130902   -6.2853723    4143.1443           11 
  722000   0.99481771   -6.2544962     4156.905           10 
  723000   0.99057509   -6.2576354    4166.3064            6 
  724000    1.0025695   -6.2840077    4151.6364            4 
  725000   0.99125716   -6.2479551    4148.4227            7 
  726000   0.98790848   -6.2473577    4166.6602            9 
  727000    1.0096207   -6.2886919     4139.644            7 
  728000    1.0078521   -6.2545513    4139.4076            4 
  729000   0.98872786   -6.2646177    4157.9006            5 
  730000     1.024392   -6.2610646    4150.7572            5 
  731000    1.0028475   -6.2644746    4159.9495            4 
  732000   0.98820161   -6.2751872    4175.6502            9 
  733000   0.99405779   -6.2498065    4148.0595            5 
  734000   0.98566146   -6.2840223    4151.0555            5 
  735000    1.0071336   -6.2571822    4153.6105            9 
  736000    1.0132468   -6.2880104    4162.5692            9 
  737000   0.98852255   -6.2453488    4142.5635            7 
  738000    0.9703946   -6.2797993    4157.1787           11 
  739000   0.99325193   -6.2663009    4144.5267            7 
  740000   0.99133063   -6.2734785    4156.7391            9 
  741000    1.0181752   -6.2742841    4159.1852            9 
  742000    1.0009429   -6.2691857    4157.4102            9 
  743000   0.99124706   -6.2763319    4154.7538            4 
  744000    1.0076372   -6.2541203    4165.8365            6 
  745000    1.0102585   -6.2798995    4160.7732            6 
  746000     1.011999   -6.2406776    4152.3667            5 
  747000   0.99847453   -6.2323834    4162.5466           10 
  748000   0.99376109   -6.2747224     4147.222            7 
  749000    1.0205676   -6.2492917    4168.0887            8 
  750000    1.0062081   -6.2385473    4146.5958            4 
  751000    1.0150639   -6.2656539    4146.8832           16 
  752000    0.9862585    -6.288334    4172.0243            6 
  753000   0.99376474   -6.2595798    4151.7766            6 
  754000    1.0087702    -6.294158    4162.7842            7 
  755000    1.0016118   -6.2359616    4167.9434            3 
  756000   0.99135399   -6.3176359    4158.2009           12 
  757000    1.0188574   -6.2871987     4135.545            8 
  758000    1.0057922   -6.2583846    4160.3093            9 
  759000     0.984691   -6.2841776    4151.3167            5 
  760000   0.98920387   -6.2718858    4136.1854            7 
  761000    1.0067105   -6.2673322    4141.4519            7 
  762000     0.984289   -6.2670008    4162.8015            4 
  763000    1.0087582   -6.2851757    4159.0674            8 
  764000   0.99254321   -6.2917188    4147.0779            3 
  765000    1.0013359    -6.298884    4132.2708            7 
  766000   0.99112374   -6.2739181    4158.9292            8 
  767000   0.99978279   -6.2463009    4170.2638            6 
  768000    1.0104202   -6.2609026     4162.131            8 
  769000   0.99466435   -6.2225305     4167.829            4 
  770000   0.99493385   -6.3077337     4145.076            5 
  771000   0.99886125   -6.2813819    4155.3936            7 
  772000   0.99965194   -6.2941256    4143.0996           10 
  773000   0.98717453   -6.2920928    4130.1271           18 
  774000   0.99539106   -6.2686357    4141.3238            5 
  775000   0.98916843   -6.2664492    4166.7876            6 
  776000   0.99964015   -6.2551341    4145.5944            8 
  777000   0.99785942   -6.3143368    4145.1274            5 
  778000    1.0275294   -6.2282158    4155.2855            7 
  779000    1.0035371   -6.2657495    4154.7461            9 
  780000   0.99493803    -6.240065    4141.7797            3 
  781000   0.99560924   -6.2774186    4136.6634            3 
  782000    1.0098891   -6.3001983    4143.8494            7 
  783000    1.0163688   -6.2496015      4155.92            6 
  784000   0.99484685    -6.253466    4168.1106           10 
  785000   0.98314906   -6.2607385    4168.2372            8 
  786000    1.0054577   -6.2608832    4162.1965            8 
  787000   0.99497906   -6.2578568    4169.3504            4 
  788000   0.99756594    -6.296455    4129.1782           11 
  789000   0.99342704   -6.2971404    4130.1268            7 
  790000    1.0037932   -6.2703163    4145.7506           11 
  791000   0.97894674   -6.2639484     4147.588            5 
  792000    1.0216799   -6.2699718    4151.4781            6 
  793000    1.0026808   -6.2683382    4147.5744            7 
  794000    1.0103732   -6.2506203    4149.8504            5 
  795000   0.99421616   -6.2856302    4152.4043            7 
  796000    1.0128807   -6.2604687    4140.3344            5 
  797000   0.99045405   -6.2607654    4149.1264            7 
  798000   0.99737995   -6.2851574    4154.9287           12 
  799000   0.98389359   -6.2625916    4150.7504           11 
  800000    1.0187227   -6.2523817    4158.2358            4 
  801000   0.99032867   -6.2953497    4156.1131            6 
  802000   0.97477595   -6.2398863    4161.2313            9 
  803000    1.0155625   -6.2841522    4156.7224            7 
  804000    1.0055156    -6.250997    4149.7261           16 
  805000    1.0107956   -6.2431617    4150.0177            5 
  806000    1.0381976   -6.2486692    4159.8272            3 
  807000    1.0028583    -6.247357    4169.8723            4 
  808000   0.99579048   -6.2625985    4157.4512            5 
  809000   0.99116665    -6.301399    4141.9736            5 
  810000   0.99628872   -6.2616134    4145.2099            5 
  811000   0.97595624   -6.2651432    4145.1551            4 
  812000    1.0195831   -6.2792652     4142.909            8 
  813000   0.98865319    -6.296851     4133.607            5 
  814000   0.99361147   -6.2547906    4152.8357            9 
  815000   0.97858168   -6.2582724    4159.0625           22 
  816000    1.0052729   -6.2773213     4164.988           16 
  817000    1.0121743   -6.2450167    4159.4784            7 
  818000   0.98489879   -6.2978522    4164.3771            8 
  819000    1.0082491   -6.3098038    4139.8903           14 
  820000   0.99333055    -6.238597    4171.1798           19 
  821000    1.0094564   -6.2583602    4163.8836            9 
  822000    1.0065025   -6.2897612    4148.4481            4 
  823000    1.0027406   -6.2848388    4153.3024            6 
  824000   0.99415126   -6.3167019    4148.2019            6 
  825000    1.0012302   -6.2782478    4150.4825            4 
  826000   0.99142129   -6.2724588     4168.017           14 
  827000    1.0045069   -6.2711213    4146.2561            6 
  828000     1.000084   -6.2618981    4143.5844            8 
  829000   0.99286468   -6.2605586    4160.5528            4 
  830000    1.0107862   -6.2856021    4136.2389            6 
  831000    1.0057702   -6.2768566    4151.9938            3 
  832000   0.98067672   -6.2709956    4149.0041            5 
  833000   0.99007535   -6.2460005    4172.3101            4 
  834000    1.0074023   -6.2752823    4136.4267           14 
  835000   0.98348196   -6.2576453    4145.9874            8 
  836000   0.98007604   -6.3019076    4143.7105           19 
  837000    1.0178465   -6.2953633    4169.2185            4 
  838000   0.99972055   -6.2764133    4158.2294           10 
  839000      1.00394   -6.2786929    4155.9408            3 
  840000    1.0251355   -6.2911003    4147.4012           10 
  841000    1.0035154   -6.2566589    4156.1005           10 
  842000    1.0090505   -6.2752569    4163.0858           14 
  843000    0.9909253   -6.2724495    4151.1657           11 
  844000    1.0428051   -6.2633507    4147.3132           10 
  845000   0.99250158   -6.2604551    4144.7906            5 
  846000   0.98922824   -6.2188686    4174.0378            5 
  847000    1.0167694   -6.2704807    4161.5999            9 
  848000    0.9722515   -6.2723218    4152.8695           15 
  849000   0.98163837   -6.2401791    4170.6983           11 
  850000    1.0168788   -6.2917505    4156.9742            6 
  851000   0.97957806   -6.2650879    4153.9656           19 
  852000   0.97708148   -6.2827339    4144.3216            4 
  853000    1.0058254   -6.2925356    4156.1975            9 
  854000    1.0053849   -6.3234713    4145.9761            6 
  855000    1.0007546   -6.2522943     4140.107            8 
  856000    1.0088599   -6.2756861    4151.5533            8 
  857000   0.97383315   -6.2723213     4151.898            5 
  858000    1.0054714   -6.2492131    4152.0529            7 
  859000    1.0091705   -6.2583927     4165.035            8 
  860000    0.9910689   -6.2270456    4163.5827            4 
  861000   0.99742251   -6.3006852    4154.3107            5 
  862000   0.99141712   -6.2721676    4143.9221            9 
  863000   0.98417404   -6.2878947    4146.0126            3 
  864000    1.0087816   -6.2834662    4157.5112           11 
  865000    1.0041041   -6.2521017    4157.2567            8 
  866000   0.99386186   -6.2380561    4145.7399           12 
  867000   0.98138383   -6.2840415    4159.1373            4 
  868000   0.99167022   -6.3207305    4144.4552           10 
  869000    1.0148325   -6.2868475    4135.1032            7 
  870000   0.98222606   -6.2859546    4150.3082            9 
  871000   0.97943463   -6.2961517    4166.2336            5 
  872000    1.0047768   -6.2495691    4164.1204            4 
  873000   0.97624576   -6.2615061    4139.5234            5 
  874000    1.0123148   -6.2892302    4144.4776            4 
  875000   0.98840267    -6.231005    4169.2088           10 
  876000    1.0006528   -6.2631773    4152.7676            8 
  877000    1.0029605   -6.2748603    4159.7942            6 
  878000   0.98495286   -6.2260816    4148.0326            5 
  879000   0.99663441   -6.2734702    4163.7902            8 
  880000    1.0111823   -6.2483858      4149.58            4 
  881000    1.0137665   -6.2444869    4157.7586            4 
  882000   0.98664332   -6.2490977     4161.128            3 
  883000   0.99178543   -6.2914553    4161.4107            8 
  884000    1.0043681   -6.2556812    4154.9934            8 
  885000   0.98857688   -6.2484275    4155.6516            4 
  886000    1.0017233   -6.2782646     4157.783            8 
  887000    1.0090213   -6.2363101    4164.3194            4 
  888000    1.0117465   -6.2766594     4143.642            9 
  889000    1.0020077   -6.2427958    4161.1706            5 
  890000    1.0191192   -6.2829295    4165.6505            7 
  891000    0.9839947   -6.2927361    4147.1049            5 
  892000   0.98397372   -6.2864828    4148.4794           12 
  893000    1.0026436   -6.2442767    4156.6043            9 
  894000   0.98357896   -6.3058044    4135.2134            5 
  895000   0.98250873   -6.2626594     4153.643           10 
  896000    1.0096105   -6.2577323    4167.3567            7 
  897000    1.0184287   -6.2626006    4157.3668            5 
  898000    1.0165186   -6.2636921    4173.1213           10 
  899000   0.99065616   -6.3047343    4132.6554            9 
  900000   0.99217833   -6.2559525    4155.9453            6 
  901000    1.0131623   -6.2849997    4147.1923            3 
  902000    1.0101012   -6.2487461    4148.1899            5 
  903000   0.98675015   -6.2522218    4157.4999            5 
  904000    1.0137171   -6.2886631     4153.591            5 
  905000    1.0086374   -6.3015266    4148.9797           13 
  906000    1.0072735   -6.2648692    4146.3078            6 
  907000   0.98553112   -6.2656779    4149.0715            8 
  908000   0.99613806   -6.2813904    4125.3785            3 
  909000   0.98444038   -6.2881992    4163.2186            8 
  910000   0.99506261   -6.2517145    4162.5165            5 
  911000   0.99409345   -6.2837418    4142.6591            7 
  912000    1.0181517   -6.2455793    4152.7709            6 
  913000    1.0113043   -6.2736309    4151.1126            7 
  914000    1.0136947   -6.2492343    4153.7941            4 
  915000   0.97707749    -6.288099    4147.6285            9 
  916000   0.99077665   -6.2830888     4157.534            7 
  917000    1.0037614   -6.2744519    4143.0896            4 
  918000   0.97498685   -6.2944555    4137.1992           11 
  919000   0.99290427   -6.2581962    4164.6831            3 
  920000    1.0181481   -6.2523838    4160.2853            6 
  921000   0.99702195   -6.2766358    4146.1208            4 
  922000     1.020277   -6.2437182    4158.7699            7 
  923000   0.99731358   -6.2496907     4155.043            7 
  924000    1.0304865   -6.2901449    4156.0691            5 
  925000   0.98238055   -6.2403088    4149.4282            7 
  926000    1.0015892   -6.2349667    4166.3588            3 
  927000    1.0238226   -6.2824291    4142.4568            6 
  928000   0.98177986   -6.2874143    4150.0573            6 
  929000   0.98928134   -6.2612853     4160.529            8 
  930000    1.0049191   -6.2701249     4159.299            7 
  931000    1.0027619   -6.2659395    4165.0284            1 
  932000   0.98381701   -6.2943145    4140.0439            8 
  933000    1.0027296   -6.2501577    4146.9649            5 
  934000   0.99137302   -6.2691574    4156.2653            5 
  935000   0.99280677   -6.2936492    4141.0818            5 
  936000    1.0032098   -6.2817617    4143.9151            7 
  937000    1.0172769   -6.2757106    4139.4359           12 
  938000   0.99846437   -6.2880171    4144.0281            6 
  939000    1.0159239   -6.2710657    4148.2554            5 
  940000   0.98857527   -6.2816249    4159.2344            5 
  941000   0.99180676    -6.278914    4160.6472            5 
  942000   0.99138842   -6.2840846    4153.1394            5 
  943000   0.99347396   -6.2821063    4154.2928            5 
  944000    1.0141706    -6.253134    4156.7146           10 
  945000    0.9832727   -6.2847119    4157.5337            7 
  946000    1.0180625   -6.2831579    4150.8881            9 
  947000   0.98104981   -6.2896631    4151.7258            8 
  948000   0.99889193    -6.272621    4153.9705            6 
  949000    1.0014703   -6.2501092     4167.236            5 
  950000   0.98918209   -6.2702085    4155.1204            2 
  951000    1.0013256   -6.2809121    4145.1926            7 
  952000   0.99883383    -6.280825    4150.6436            3 
  953000   0.99444511   -6.2683724    4156.6632           13 
  954000    1.0146021   -6.2858371    4163.7335            3 
  955000   0.99409118   -6.2831642    4166.7898           13 
  956000    1.0028378   -6.2470768    4156.9806            4 
  957000   0.98569656   -6.2567613    4158.3093            5 
  958000    1.0164429   -6.2646417    4137.6635           13 
  959000   0.97581589     -6.28276    4159.2365            8 
  960000   0.98480688   -6.2754217     4159.218           11 
  961000   0.99466808   -6.2601754    4151.9465            6 
  962000   0.98747826   -6.2648451    4161.6406            9 
  963000   0.99053246   -6.2613936    4160.9974            5 
  964000   0.96672998   -6.3157227    4161.9771            3 
  965000   0.98954512    -6.258829    4152.4302            6 
  966000   0.97889297   -6.2617505    4156.3398            5 
  967000    1.0068888   -6.2564587    4163.4919            4 
  968000    1.0077278   -6.2817003     4164.501            9 
  969000    1.0102825    -6.268289    4148.6037            5 
  970000    1.0025098   -6.2961028    4160.6248            6 
  971000    1.0062026   -6.3005275    4155.1681           10 
  972000   0.99590728   -6.2447008     4150.072            9 
  973000     1.006081   -6.2627067     4148.863            5 
  974000    1.0082526   -6.2778885     4151.285            9 
  975000    1.0095353   -6.2436652    4148.2642            6 
  976000   0.97834385   -6.2441424    4163.2103           17 
  977000   0.98394501    -6.306522    4150.2718            5 
  978000    0.9962789    -6.289986    4170.2665            5 
  979000   0.99286146    -6.283962    4144.7405            5 
  980000    1.0031079    -6.238346    4158.8292            3 
  981000   0.99813315   -6.2757636    4136.2144           14 
  982000    1.0094984   -6.2838274    4140.4075            8 
  983000   0.98489232   -6.2648208    4164.1322            5 
  984000   0.98980855   -6.2533101     4165.423            7 
  985000    1.0122565   -6.2642158    4160.4087           10 
  986000    0.9867788   -6.2789784    4154.9712           11 
  987000   0.97005456   -6.2740583    4157.7665            8 
  988000   0.99295952   -6.2952274    4145.4424           11 
  989000   0.99854282   -6.2816033    4157.1836            5 
  990000   0.97143227    -6.300953    4137.4636           10 
  991000   0.99165222   -6.2762248    4161.2733            4 
  992000    1.0024803   -6.2789486     4175.252            5 
  993000    1.0059103   -6.2880207    4142.8791           11 
  994000    1.0056767   -6.3016734    4151.8052           10 
  995000   0.98648485   -6.2644082    4170.1738            4 
  996000    1.0010633    -6.251251    4160.7574            5 
  997000    1.0028392   -6.2514782    4166.8114            8 
  998000    1.0000755    -6.284447     4145.247           12 
  999000    1.0048757   -6.2583012    4157.9772           15 
 1000000   0.99678551   -6.3310188    4158.2607            4 
 1001000   0.99827801   -6.2460669    4150.1006            4 
 1002000   0.98449197   -6.2737473    4143.5218            7 
 1003000   0.96911127   -6.3000051    4149.5061           12 
 1004000    1.0094802   -6.2610333     4156.656           18 
Loop time of 2089.2 on 48 procs for 1000000 steps with 4000 atoms

Performance: 82711.137 tau/day, 478.652 timesteps/s
99.4% CPU use with 48 MPI tasks x no OpenMP threads

MPI task timing breakdown:
Section |  min time  |  avg time  |  max time  |%varavg| %total
---------------------------------------------------------------
Pair    | 123        | 128.65     | 136.93     |  22.4 |  6.16
Neigh   | 14.778     | 14.929     | 15.3       |   2.8 |  0.71
Comm    | 114.79     | 122.69     | 131.13     |  26.2 |  5.87
Output  | 1.2545     | 1.2557     | 1.2707     |   0.2 |  0.06
Modify  | 1793.9     | 1801.1     | 1809       |   9.9 | 86.21
Other   |            | 20.53      |            |       |  0.98

Nlocal:        83.3333 ave          92 max          74 min
Histogram: 1 1 1 11 9 6 12 5 0 2
Nghost:        1600.60 ave        1618 max        1584 min
Histogram: 3 2 6 7 5 13 4 2 2 4
Neighs:        9162.92 ave       10160 max        8152 min
Histogram: 1 1 4 9 11 10 4 5 1 2
FullNghs:      18327.4 ave       20429 max       16386 min
Histogram: 2 0 4 13 7 9 6 5 0 2

Total # of neighbors = 879713
Ave neighs/atom = 219.92825
Neighbor list builds = 59710
Dangerous builds = 0

#clear
#
#next RN
#
#jump SELF
Total wall time: 0:34:50
