
units lj                  # Use reduced LJ style units
atom_style atomic         # Uncharged point particles
atom_modify map hash      # Needed for indexing of clusters etc
                          # Used to be able to find where atoms are in relation to each other.

# Define a lattice with which to populate the simulation cell. With units
# set to 'lj' the second argument to the lattice command is the reduced
# density rho* and the spacings are multiples of that required to acheive
# that density. Also define a simulation cell called 'box' in lattice units
# and fill it with atoms. Here we're creating a box which is ten lattice
# constants in each direction.
lattice fcc 1.0 spacing 1 1 1                 # All equal sizes - gives the right reduced density.
Lattice spacing in x,y,z = 1.5874011 1.5874011 1.5874011

region box block 0 10 0 10 0 10 units lattice # Defines a region, "box", in lattice units
create_box 1 box                              # Creates a simulation box as specified above,
Created orthogonal box = (0.0000000 0.0000000 0.0000000) to (15.874011 15.874011 15.874011)
  2 by 3 by 3 MPI processor grid
                                              # with one type of atom
create_atoms 1 box                            # Creates particles on lattice points
Created 4000 atoms
  using lattice units in orthogonal box = (0.0000000 0.0000000 0.0000000) to (15.874011 15.874011 15.874011)
  create_atoms CPU = 0.002 seconds


# Set the mass of the first (and only) atom type.
mass 1 1.0

# Lennard-Jones interactions between particles, 3.5 sigma cut-off. Apply
# long range tail corrections to energy and pressure and set all coefficients
# to unity since we work in reduced units here. Note that this doesn't shift
# the potential such that it goes to zero at the cutoff. That would require
# pair_modify('shift', 'yes').
pair_style lj/cut  3.5      # non-GPU version
pair_modify tail  yes
pair_coeff 1  1  1.0  1.0   # Intearaction between 1 and 1 set with epsilon = 1 and sigma = 1

write_data data.*
System init for write_data ...
Neighbor list info ...
  update every 1 steps, delay 10 steps, check yes
  max neighbors/atom: 2000, page size: 100000
  master list distance cutoff = 3.8
  ghost atom cutoff = 3.8
  binsize = 1.9, bins = 9 9 9
  1 neighbor lists, perpetual/occasional/extra = 1 0 0
  (1) pair lj/cut, perpetual
      attributes: half, newton on
      pair build: half/bin/atomonly/newton
      stencil: half/bin/3d
      bin: standard

#############################
#   M E L T   S Y S T E M   #
#############################

velocity all create 2.4 6229865 mom yes dist gaussian # Assign velocities
                                                    # Temperature 2.4, random number seed, zero linear momentum
						                                                        # Gaussian distribution

timestep 0.002   # simulation timestep
thermo 100       # output thermodynamic data every 100 steps

# Define a fix  in this case with index 1 applied to all
# particles in the simulation. This fix is for simulations
# in the anisotropic NPT ensemble. Note that we use the MTK
# correction.
fix 1 all npt temp 2.4 2.4 0.1 iso 5.68 5.68 0.5 mtk yes tchain 5 pchain 5 # Use NPT ensemble
                                                                         # Set temperature and pressure and damping
                                                                         # Numbers of thermostats in chain and in barostat
run 1000         # run for 10000 steps
Per MPI rank memory allocation (min/avg/max) = 3.680 | 3.683 | 3.691 Mbytes
Step Temp E_pair E_mol TotEng Press Volume 
       0          2.4   -8.3859253            0   -4.7868253   -2.2405722         4000 
     100    1.2536957    -6.512639            0   -4.6325656     5.478955    4089.9923 
     200    1.4643499   -6.2844612            0   -4.0884856    6.2225923    4132.6721 
     300    1.5613501   -5.9933187            0    -3.651879    5.8912714    4272.8847 
     400    1.6731008   -5.7064704            0   -3.1974466    5.7980079    4409.8935 
     500    1.7993987   -5.4325725            0   -2.7341491    5.8329956     4543.536 
     600    1.8982906   -5.1495669            0   -2.3028429    5.9004247    4690.6414 
     700    1.9845076   -4.8772598            0   -1.9012426    5.8338611    4846.8673 
     800    2.1343222   -4.6883289            0   -1.4876459    5.9300075    4961.2015 
     900    2.2685415   -4.5564143            0   -1.1544528    5.7429537    5072.3143 
    1000    2.3671174   -4.4804745            0  -0.93068614    5.6609343    5154.7975 
Loop time of 0.558174 on 18 procs for 1000 steps with 4000 atoms

Performance: 309580.988 tau/day, 1791.557 timesteps/s
99.2% CPU use with 18 MPI tasks x no OpenMP threads

MPI task timing breakdown:
Section |  min time  |  avg time  |  max time  |%varavg| %total
---------------------------------------------------------------
Pair    | 0.31978    | 0.34229    | 0.36322    |   2.1 | 61.32
Neigh   | 0.062127   | 0.064569   | 0.067543   |   0.6 | 11.57
Comm    | 0.10175    | 0.12301    | 0.14499    |   3.4 | 22.04
Output  | 0.0002296  | 0.00023774 | 0.0003255  |   0.0 |  0.04
Modify  | 0.021797   | 0.025126   | 0.02857    |   1.3 |  4.50
Other   |            | 0.002941   |            |       |  0.53

Nlocal:        222.222 ave         231 max         210 min
Histogram: 3 0 0 2 1 3 2 2 2 3
Nghost:        2031.00 ave        2048 max        2016 min
Histogram: 5 0 1 2 1 2 2 0 3 2
Neighs:        19717.1 ave       21073 max       18338 min
Histogram: 2 1 0 3 2 3 4 0 2 1

Total # of neighbors = 354908
Ave neighs/atom = 88.727000
Neighbor list builds = 86
Dangerous builds = 21

# Equilibrate just above the melting temperature to avoid step fn in T

fix 1 all npt temp 1.25 1.25 0.1 iso 5.68 5.68 0.5 mtk yes tchain 5 pchain 5
run 1000
Per MPI rank memory allocation (min/avg/max) = 3.680 | 3.684 | 3.691 Mbytes
Step Temp E_pair E_mol TotEng Press Volume 
    1000    2.3671174   -4.4804745            0  -0.93068614    5.6609343    5154.7975 
    1100    1.9173858   -4.6307779            0   -1.7554183    5.8554728    4996.3129 
    1200    1.7477579   -4.9829542            0   -2.3619728    5.5796831    4810.9499 
    1300    1.5893104   -5.2408705            0   -2.8575008    5.3451318    4689.7353 
    1400    1.4556711   -5.4006503            0   -3.2176895    5.5642329    4570.8156 
    1500     1.383129   -5.5543358            0   -3.4801609    5.7098519    4482.8499 
    1600    1.3162446   -5.6665882            0    -3.692715    5.5319197    4440.3115 
    1700      1.25084   -5.7143969            0    -3.838606    5.6852524    4398.4145 
    1800    1.2626026   -5.7931589            0   -3.8997285    5.8005288    4354.9947 
    1900    1.2551594   -5.8434232            0   -3.9611548    5.6726084    4344.7346 
    2000    1.2750099   -5.8609224            0   -3.9488856     5.652703    4341.0224 
Loop time of 0.540889 on 18 procs for 1000 steps with 4000 atoms

Performance: 319474.132 tau/day, 1848.809 timesteps/s
99.7% CPU use with 18 MPI tasks x no OpenMP threads

MPI task timing breakdown:
Section |  min time  |  avg time  |  max time  |%varavg| %total
---------------------------------------------------------------
Pair    | 0.32629    | 0.34243    | 0.36023    |   1.6 | 63.31
Neigh   | 0.055066   | 0.056875   | 0.058731   |   0.4 | 10.52
Comm    | 0.096312   | 0.11281    | 0.12677    |   2.6 | 20.86
Output  | 0.00023277 | 0.00024326 | 0.00031413 |   0.0 |  0.04
Modify  | 0.022915   | 0.025054   | 0.029207   |   1.4 |  4.63
Other   |            | 0.003474   |            |       |  0.64

Nlocal:        222.222 ave         236 max         215 min
Histogram: 4 1 4 4 1 1 2 0 0 1
Nghost:        2242.33 ave        2259 max        2218 min
Histogram: 1 1 0 3 1 1 4 3 1 3
Neighs:        23367.4 ave       25065 max       22106 min
Histogram: 2 2 3 2 3 3 0 0 2 1

Total # of neighbors = 420613
Ave neighs/atom = 105.15325
Neighbor list builds = 75
Dangerous builds = 5


# Small amount of linear quench

fix 1 all npt temp 1.25 ${temp} 0.1 iso 5.68 5.68 0.5 mtk yes tchain 5 pchain 5
fix 1 all npt temp 1.25 2 0.1 iso 5.68 5.68 0.5 mtk yes tchain 5 pchain 5
run 2000
Per MPI rank memory allocation (min/avg/max) = 3.680 | 3.684 | 3.691 Mbytes
Step Temp E_pair E_mol TotEng Press Volume 
    2000    1.2750099   -5.8609224            0   -3.9488856     5.652703    4341.0224 
    2100    1.2677579   -5.8008962            0   -3.8997348    5.9115427    4342.3386 
    2200     1.317197   -5.7819578            0   -3.8066562     5.870333    4356.4072 
    2300    1.3171255   -5.7168133            0    -3.741619    5.7247042    4396.9041 
    2400    1.3685879   -5.7054805            0   -3.6531119    5.6672834    4413.9025 
    2500    1.3881964   -5.6262914            0   -3.5445174    5.7609797    4438.6204 
    2600    1.4201764   -5.5697027            0   -3.4399706    5.7591767     4467.787 
    2700    1.4604737   -5.5143096            0   -3.3241467    5.7204765    4500.3431 
    2800    1.5180631   -5.4770943            0   -3.2005689    5.6697096    4522.6598 
    2900    1.5270697   -5.3980077            0   -3.1079758     5.639978    4567.5121 
    3000    1.5954457    -5.374329            0   -2.9817588    5.6709078    4583.3893 
    3100    1.6017415   -5.2947166            0    -2.892705    5.5343629    4635.4725 
    3200    1.6609575   -5.2456733            0   -2.7548599    5.8295468    4633.9391 
    3300    1.7232489   -5.2011691            0    -2.616942    5.9407846    4652.6282 
    3400    1.7069934   -5.1179161            0   -2.5580661    5.7428576     4711.217 
    3500     1.817719   -5.1492511            0   -2.4233543    5.5728584     4725.691 
    3600    1.7966324    -5.036174            0   -2.3418991    5.5465703    4782.2417 
    3700    1.8375661   -4.9824501            0     -2.22679    5.5927741    4810.3718 
    3800    1.8833723   -4.9334812            0    -2.109129    5.7515626    4822.3117 
    3900    1.9431445   -4.9168336            0   -2.0028455    5.5814794    4864.9692 
    4000    1.9905754   -4.8694923            0   -1.8843758    5.7376384    4872.5105 
Loop time of 1.07161 on 18 procs for 2000 steps with 4000 atoms

Performance: 322506.071 tau/day, 1866.355 timesteps/s
99.7% CPU use with 18 MPI tasks x no OpenMP threads

MPI task timing breakdown:
Section |  min time  |  avg time  |  max time  |%varavg| %total
---------------------------------------------------------------
Pair    | 0.65297    | 0.68128    | 0.70938    |   2.1 | 63.58
Neigh   | 0.11292    | 0.11611    | 0.1202     |   0.5 | 10.84
Comm    | 0.19311    | 0.21799    | 0.24426    |   3.1 | 20.34
Output  | 0.00042267 | 0.00043906 | 0.00055669 |   0.0 |  0.04
Modify  | 0.044394   | 0.049327   | 0.058289   |   2.1 |  4.60
Other   |            | 0.006466   |            |       |  0.60

Nlocal:        222.222 ave         235 max         210 min
Histogram: 1 0 2 4 3 4 0 1 2 1
Nghost:        2090.56 ave        2103 max        2079 min
Histogram: 3 0 3 1 3 1 1 4 1 1
Neighs:        20841.2 ave       22480 max       19803 min
Histogram: 4 3 1 2 3 0 2 0 2 1

Total # of neighbors = 375142
Ave neighs/atom = 93.785500
Neighbor list builds = 151
Dangerous builds = 4

#############################
# F R E E Z E  S Y S T E M  #
#############################

# Define solid atoms. This closely follows ten Wolde  Ruiz-Montero and Frenkel  Faraday Discuss  1996  104  93-110
# Compute components of the per-atom q6 vector
compute q6 all orientorder/atom degrees 1 6 components 6 nnn NULL cutoff 1.3 # compute the Q6 parameter.
                                                                             # Use all neighbours within 1.3 unit cell.

# get number of connections
compute coord_number all coord/atom orientorder q6 0.5

# An atom is solid if it has 8 or more connections (of a possible 14)
variable is_solid atom c_coord_number>=8
group solid dynamic all var is_solid    # Must be dynamic to update
dynamic group solid defined

# do clustering
compute cluster solid cluster/atom 1.3 # Create a cluster where all atoms within are solid and max 1.3 units from another member

# define chunks one chunk per cluster
compute clus_chunks solid chunk/atom c_cluster nchunk every compress yes  # Says which atoms are in which chunk

# count the size of each chunk
compute size_chunks solid property/chunk clus_chunks count


# Find the maximum entry in the vector of chunk sizes
variable max_n equal max(c_size_chunks)


# Thermo style which includes this variable
thermo_style custom step temp pe vol v_max_n

thermo ${N}  # Print the thermo information every 100 steps
thermo 100  

# Reset the npt fix at a lower temperature (below freezing)
fix 1  all npt temp  ${temp} ${temp}  0.1  iso  5.68  5.68  0.5  mtk yes tchain  5  pchain  5
fix 1  all npt temp  2 ${temp}  0.1  iso  5.68  5.68  0.5  mtk yes tchain  5  pchain  5
fix 1  all npt temp  2 2  0.1  iso  5.68  5.68  0.5  mtk yes tchain  5  pchain  5

dump dmp2 all dcd ${N} traj_${rand}.dcd
dump dmp2 all dcd 100 traj_${rand}.dcd
dump dmp2 all dcd 100 traj_462431.dcd


# fix rnuntil all halt ${N} v_max_n >= 3980 error soft message no   # Stop when solidified


run 100000 # 5000000  # Run for this many steps
Neighbor list info ...
  update every 1 steps, delay 10 steps, check yes
  max neighbors/atom: 2000, page size: 100000
  master list distance cutoff = 3.8
  ghost atom cutoff = 3.8
  binsize = 1.9, bins = 9 9 9
  4 neighbor lists, perpetual/occasional/extra = 1 3 0
  (1) pair lj/cut, perpetual
      attributes: half, newton on
      pair build: half/bin/atomonly/newton
      stencil: half/bin/3d
      bin: standard
  (2) compute orientorder/atom, occasional
      attributes: full, newton on
      pair build: full/bin/atomonly
      stencil: full/bin/3d
      bin: standard
  (3) compute coord/atom, occasional
      attributes: full, newton on
      pair build: full/bin/atomonly
      stencil: full/bin/3d
      bin: standard
  (4) compute cluster/atom, occasional
      attributes: full, newton on
      pair build: full/bin/atomonly
      stencil: full/bin/3d
      bin: standard
Per MPI rank memory allocation (min/avg/max) = 9.451 | 9.453 | 9.455 Mbytes
Step Temp PotEng Volume v_max_n 
    4000    1.9905754   -4.8694923    4872.5105            1 
    4100    1.9882115   -4.8272298    4935.0669       -1e+20 
    4200    2.0163933    -4.798669    4895.8076            1 
    4300    1.9878318   -4.8190049    4917.2516            1 
    4400    2.0085412   -4.8397458    4916.7626            1 
    4500    2.0301398   -4.7463747    4924.8948            1 
    4600    1.9882172   -4.7558119    4933.4785            2 
    4700    1.9484941   -4.7715271    4929.1366            2 
    4800    2.0177855   -4.7457509    4910.5505            2 
    4900    1.9842737   -4.7583183    4922.9487            1 
    5000    2.0192995   -4.8247767    4921.1417            3 
    5100    1.9822567    -4.811733    4911.5401            1 
    5200    2.0003196   -4.7479926    4929.0157            1 
    5300    2.0031778   -4.7660859     4927.103            1 
    5400    2.0129274   -4.8122354    4934.9336            1 
    5500     1.983447   -4.8028591    4919.9046            2 
    5600    1.9634064     -4.81677    4867.6729       -1e+20 
    5700    1.9588783   -4.8039377    4913.7681            1 
    5800    1.9685642   -4.7304132    4923.5778            1 
    5900    2.0161282   -4.7483744    4946.8994            2 
    6000    1.9991977   -4.7879232    4941.8349       -1e+20 
    6100     2.024772   -4.7769136    4904.6574            1 
    6200    1.9719955   -4.8069047    4930.4853            1 
    6300    1.9999351   -4.8414358    4924.2071       -1e+20 
    6400    2.0502855   -4.8220031    4866.7999            1 
    6500    1.9506301   -4.8318431      4934.38            1 
    6600    1.9993443   -4.7834335    4905.6851            1 
    6700    2.0223346   -4.8179199    4913.8187       -1e+20 
    6800    1.9664655   -4.8283461     4942.761            1 
    6900    2.0444761   -4.8234402    4925.1248            2 
    7000    1.9754153   -4.8072059    4906.2372            1 
    7100    1.9984868   -4.8535952     4888.529       -1e+20 
    7200    2.0285455   -4.8204504    4937.4391            1 
    7300    2.0228769   -4.8311725    4918.7281            1 
    7400    1.9869072   -4.8230312    4895.8551            1 
    7500    2.0294922   -4.8526789    4937.0593            1 
    7600    1.9810524   -4.7534276    4923.4163            1 
    7700    2.0145462   -4.7721914     4923.372            1 
    7800    1.9686163   -4.8202976    4910.3702            1 
    7900    2.0121208   -4.8144969    4906.8668            1 
    8000    2.0700031    -4.772614    4944.0207            2 
    8100    1.9879405   -4.7466788      4934.29            1 
    8200    1.9727212   -4.7824363    4937.6259            1 
    8300    2.0586135   -4.8089095    4933.8854            1 
    8400    2.0074062   -4.8146789    4922.1681            1 
    8500    1.9944804   -4.8304011    4917.2741            2 
    8600     2.036587   -4.8375874    4902.3664            3 
    8700    2.0137026   -4.7956043    4952.2185       -1e+20 
    8800    2.0251147   -4.7489492    4951.1652            1 
    8900    2.0061721   -4.7795764    4923.3903            1 
    9000    1.9505573   -4.8255605    4918.0343            1 
    9100    2.0059898   -4.8243182     4884.262            2 
    9200    2.0229688   -4.8374067    4912.8973       -1e+20 
    9300    1.9768755   -4.7801955    4952.7706            1 
    9400    2.0597076   -4.7800052    4892.4507            1 
    9500    1.9596057   -4.7997796    4942.7041            1 
    9600    2.0248201   -4.8028121    4935.0864            1 
    9700    1.9844091    -4.823268    4918.2075            1 
    9800    2.0279138   -4.8182431     4904.117            2 
    9900    1.9788818   -4.7947891    4909.7221            1 
   10000    2.0103877   -4.8102236    4927.5458            1 
   10100    1.9974534   -4.7881446    4921.1904            1 
   10200    1.9826022   -4.7888502     4910.952       -1e+20 
   10300    2.0112225   -4.7887243    4920.6569            1 
   10400    1.9967522   -4.8010435    4921.0175            1 
   10500    2.0019095   -4.8111648    4927.1855            2 
   10600    2.0139974   -4.7928135    4925.0996            1 
   10700    1.9557616   -4.8374121    4917.7099            1 
   10800    2.0179777   -4.8205938    4901.0837            1 
   10900    1.9690884   -4.7211813    4963.5576            1 
   11000    2.0212822   -4.7634219    4926.2393            2 
   11100    1.9747555   -4.7645365    4915.9473            1 
   11200    1.9875848    -4.799729    4900.6015            1 
   11300    1.9650948    -4.812106    4906.4099            1 
   11400    2.0173665   -4.8189287    4945.0301            2 
   11500    1.9929506   -4.7514494    4946.6873            1 
   11600    1.9921533   -4.7746626    4933.3472            1 
   11700    1.9723899    -4.848099    4876.7455            1 
   11800    1.9647405   -4.8603025    4902.9738            1 
   11900    2.0121925   -4.8298676    4899.9568            2 
   12000     2.026083   -4.7872118     4939.718       -1e+20 
   12100    1.9959255    -4.776828    4922.9669            1 
   12200    2.0133316   -4.7843117    4912.2275       -1e+20 
   12300    1.9820528   -4.8442367    4908.5003            1 
   12400     2.003095   -4.8322953    4913.4068            1 
   12500    2.0123039   -4.7885217    4911.0897            1 
   12600    1.9419639   -4.8090983    4920.2744            2 
   12700    2.0154844    -4.826333    4922.5866            1 
   12800    2.0539379   -4.7643817    4915.8935            1 
   12900    1.9808717   -4.7885938    4945.9744            1 
   13000    1.9842376   -4.7665578    4915.8429       -1e+20 
   13100    2.0393207   -4.7482475    4924.3771            1 
   13200    1.9682164    -4.762414    4965.1131            1 
   13300    1.9740236   -4.7442818    4916.2019            1 
   13400    2.0039299   -4.7821599    4903.1988       -1e+20 
   13500    1.9818066   -4.7987098    4947.4129            1 
   13600    2.0055144    -4.800969     4909.093            1 
   13700    1.9765076   -4.8114317    4888.4273            1 
   13800    1.9998523   -4.8195298    4917.4564            1 
   13900    2.0172753   -4.7863622    4930.5848            1 
   14000    2.0136613   -4.7762463    4937.5135            1 
   14100      2.03458   -4.8338547    4906.8071            1 
   14200    1.9679691   -4.8493535     4914.964            1 
   14300    1.9968367   -4.7754535    4907.2848            1 
   14400    2.0338609    -4.790795    4928.2338            1 
   14500    1.9379842   -4.7685125    4929.2022            1 
   14600    2.0303474   -4.8051585    4930.7054            1 
   14700    1.9610756   -4.7336187     4932.061            1 
   14800    1.9951589   -4.8442972    4868.7354       -1e+20 
   14900    1.9700838   -4.8308285    4932.1974            2 
   15000      2.01333   -4.7844081     4898.608            1 
   15100    1.9603467   -4.8121143    4912.8776            1 
   15200    2.0260306   -4.8108173    4918.5709            1 
   15300    1.9759224   -4.7246104    4918.6563            1 
   15400    1.9935105   -4.7986224    4935.7978            2 
   15500    2.0343743   -4.7994149    4908.7334            1 
   15600     1.998138   -4.8102297    4941.4517            1 
   15700    2.0040296   -4.8071829    4927.4446            2 
   15800    2.0570165   -4.7898112    4959.3522            2 
   15900    2.0107451   -4.7864519    4923.8855            1 
   16000    1.9811979   -4.8042652    4925.2238            1 
   16100    2.0003481   -4.7390917      4929.24            1 
   16200    1.9784101   -4.7688636    4903.4796            1 
   16300    1.9891161   -4.8631827     4904.044            1 
   16400    1.9893884   -4.7724362    4927.2654            1 
   16500     2.023874    -4.772295    4947.0653            1 
   16600    2.0029869   -4.7984266    4942.0186            2 
   16700    1.9969774   -4.7483332     4904.561            2 
   16800    1.9765264   -4.8348256    4915.0358            1 
   16900    1.9906507   -4.8165535     4928.197            1 
   17000    2.0425119   -4.7702622    4950.4161            1 
   17100    1.9815326   -4.7532847    4933.8209            1 
   17200    1.9876724   -4.7720263    4939.2215            2 
   17300    2.0454996   -4.7949588     4945.143            1 
   17400    1.9884511   -4.7522741    4920.9666            2 
   17500    2.0284959   -4.7364917    4939.5523            1 
   17600    1.9890171    -4.794369    4970.5567            1 
   17700    1.9899752    -4.771435    4904.1919            1 
   17800    2.0047402   -4.8292437    4912.8169            1 
   17900    1.9831982   -4.7765371    4926.9178            1 
   18000    2.0448538   -4.7356527    4914.5476            1 
   18100    1.9735054   -4.7685541    4953.7504       -1e+20 
   18200    1.9942087    -4.790485    4941.8521            1 
   18300    2.0183766     -4.77481    4896.8627            1 
   18400    1.9518591   -4.7971501    4924.2526            1 
   18500    2.0252041   -4.8247817    4906.2214            2 
   18600    2.0054386   -4.7657794    4931.8526            1 
   18700    2.0031814   -4.7456125    4964.5015            1 
   18800    2.0065099   -4.7379839    4950.3478            2 
   18900     2.002784   -4.7917114    4910.9084       -1e+20 
   19000    1.9974592   -4.8201656    4905.7397            1 
   19100    2.0088596   -4.8192964    4914.3808            1 
   19200    2.0208717   -4.7788961    4957.4482            1 
   19300    2.0048842   -4.7710839    4917.9876            1 
   19400    1.9967978   -4.7903761     4907.688       -1e+20 
   19500    1.9303905   -4.7984373    4914.6659            1 
   19600    2.0399992   -4.7843291    4867.4167            3 
   19700    1.9614241   -4.8189033    4939.2965       -1e+20 
   19800    2.0293755   -4.8153487     4934.064            1 
   19900    1.9673838   -4.7661254    4915.9831       -1e+20 
   20000    1.9938213   -4.7766103    4918.3787       -1e+20 
   20100    2.0254434    -4.786733    4950.7547            1 
   20200    2.0271791   -4.8037763    4935.3955            1 
   20300    1.9979521   -4.7705647    4924.7467            1 
   20400    1.9575888   -4.7781209    4923.5755            1 
   20500    1.9953555   -4.7800526    4937.4421            1 
   20600    1.9895903   -4.7693925    4925.8271            1 
   20700    1.9689711   -4.7596522    4913.0536            1 
   20800     2.022135   -4.7945784    4944.7887       -1e+20 
   20900    1.9940033   -4.7878849    4913.4839            1 
   21000    1.9764514   -4.8273394    4888.9194            1 
   21100    2.0215999   -4.8604244    4910.1539       -1e+20 
   21200    1.9918747     -4.81252    4935.1909            1 
   21300     1.997634   -4.7388363    4941.6651            1 
   21400     2.004315    -4.793322    4925.5483       -1e+20 
   21500    1.9658331   -4.8239728    4912.8255            1 
   21600      2.01026   -4.8005559    4901.4654            1 
   21700    1.9623534   -4.7902954    4915.9997            1 
   21800    2.0300445    -4.785092    4920.6005            3 
   21900    1.9742215   -4.7874787    4934.3268            1 
   22000    1.9950987   -4.7782305    4899.5745            1 
   22100    1.9712236   -4.7747215    4895.6531            1 
   22200    1.9858585   -4.8373789    4912.2412            1 
   22300    2.0567872    -4.850933     4909.125            1 
   22400    1.9659058   -4.7680596    4942.6384       -1e+20 
   22500    1.9978612   -4.7655473    4892.2951            2 
   22600    2.0146365   -4.8183369    4907.6986            1 
   22700    1.9444522   -4.7933872     4937.627            1 
   22800     2.029566   -4.8211889    4899.2382            1 
   22900    1.9707566   -4.7770731    4934.1415            1 
   23000    2.0672367   -4.8405166    4953.4121            1 
   23100    1.9868172   -4.7927917    4918.4802            1 
   23200    1.9857812   -4.8266367    4909.8403            1 
   23300    2.0117644    -4.763173    4931.6417            1 
   23400    1.9535237   -4.7460836    4917.2883            1 
   23500    1.9874103    -4.865954    4858.3185            1 
   23600    1.9861121   -4.8447082    4934.9236            1 
   23700    2.0210774   -4.7876431    4923.2081       -1e+20 
   23800    1.9657711   -4.8134633    4916.0909            1 
   23900    1.9358842   -4.8088359    4879.9384            1 
   24000    1.9780404   -4.7648235    4903.8503            2 
   24100    2.0078451   -4.7555262    4928.6132            1 
   24200    2.0320679   -4.7427567    4960.0679       -1e+20 
   24300    1.9956337   -4.7377334    4956.4148            1 
   24400    1.9852983    -4.763553    4932.6055       -1e+20 
   24500     2.003313   -4.8015395    4924.8081            1 
   24600    2.0033997   -4.8159835    4924.8239            1 
   24700    1.9830262   -4.7571192    4931.7652            1 
   24800    2.0113918   -4.7688298    4935.6611            1 
   24900    1.9913017   -4.8186885    4906.9468            1 
   25000    1.9517644   -4.8361278    4881.0166            1 
   25100    2.0064244   -4.8056547    4908.4234            3 
   25200    2.0259935   -4.7867429    4924.2297            2 
   25300    1.9679205   -4.8268266    4940.3307            1 
   25400    1.9979372   -4.7889211    4907.5147            1 
   25500    2.0287948   -4.8083585    4933.6836            1 
   25600    1.9717996   -4.7934524     4915.401            1 
   25700    2.0199478   -4.7927868    4917.6238            3 
   25800    1.9570646    -4.740848    4941.0528            2 
   25900     1.975384   -4.8072614    4894.1281            1 
   26000    2.0154419   -4.7791527    4929.2989            3 
   26100    2.0230614   -4.8242491    4906.4441            1 
   26200    1.9888929   -4.8105823    4911.4162            1 
   26300    2.0060788    -4.778687    4939.7954            1 
   26400     2.012983    -4.768455    4909.0642            2 
   26500    1.9492956   -4.7995847    4938.1962            1 
   26600    2.0295021     -4.78361    4925.1435            2 
   26700     2.012195   -4.7832383    4927.1723       -1e+20 
   26800    1.9522153    -4.805057    4919.7645       -1e+20 
   26900    1.9912428   -4.7891271    4896.0223            1 
   27000    2.0020271   -4.7891707     4915.415            1 
   27100    2.0163868   -4.7941865    4956.2722            1 
   27200    2.0388676   -4.7679093    4921.2381            1 
   27300    2.0092125   -4.8408493    4913.3929            1 
   27400    1.9597506   -4.8382484    4883.7986            1 
   27500    1.9857807   -4.8001901    4895.9735            1 
   27600    1.9847139   -4.8143294    4925.6356            1 
   27700    2.0278776   -4.7730577    4942.9728       -1e+20 
   27800    2.0149612   -4.7986006    4921.3544            1 
   27900    2.0040591    -4.799262    4899.9813            1 
   28000      1.97206   -4.7671939     4926.904            2 
   28100    2.0009812   -4.7603114    4910.0761            1 
   28200    1.9838666   -4.7955417    4930.1403       -1e+20 
   28300    2.0351034   -4.7841429    4943.8319            1 
   28400    2.0031393   -4.7670718    4925.8144            1 
   28500     1.972744   -4.8201632    4927.6411            5 
   28600    2.0009812   -4.7942965    4902.7047            1 
   28700    2.0305544   -4.7644819     4942.697       -1e+20 
   28800    1.9656983   -4.7671878    4929.8468       -1e+20 
   28900    2.0202954   -4.8476869     4886.853            1 
   29000    1.9826071   -4.8348378    4906.5027            2 
   29100    1.9898151    -4.793349    4936.8388       -1e+20 
   29200    2.0208757   -4.7769468    4927.1112            1 
   29300    1.9609424   -4.7795295    4911.5871            1 
   29400    1.9570727   -4.7952816    4959.2579       -1e+20 
   29500    2.0032897   -4.7529703    4889.6608            1 
   29600    1.9791053   -4.7760865    4936.7142       -1e+20 
   29700    1.9988999   -4.7886753    4928.0817       -1e+20 
   29800    1.9541177   -4.7932589    4886.3603            1 
   29900    2.0009414   -4.8051936    4901.3918            1 
   30000    1.9805497   -4.7814148    4946.2682            2 
   30100     2.045684   -4.7971894    4933.8027            1 
   30200    1.9765822    -4.766743    4907.9176            1 
   30300    2.0176223   -4.8388632    4919.6127            2 
   30400     1.969472   -4.7856086    4915.8524            1 
   30500    2.0272797   -4.7586547     4902.141            1 
   30600    1.9617431   -4.8060275    4933.6108            1 
   30700    1.9883058   -4.8097561    4921.7252            1 
   30800    2.0154084   -4.8103623    4877.1463       -1e+20 
   30900    1.9442001   -4.7740896     4918.614            1 
   31000    1.9792412    -4.759444    4951.1131            1 
   31100    2.0065335   -4.7951843    4924.0963            1 
   31200    1.9893529   -4.8046803    4889.2409            1 
   31300    2.0035945   -4.7846548    4928.7435            1 
   31400    2.0345511   -4.7426324    4981.0921       -1e+20 
   31500    2.0236637   -4.7595264    4936.7204       -1e+20 
   31600    2.0086817   -4.8288294    4938.5956            2 
   31700     1.991185   -4.7958437    4916.3115            1 
   31800    2.0089318   -4.7676009    4916.6419            1 
   31900    1.9832409   -4.7733166    4958.6928            1 
   32000    1.9697021   -4.7763528    4880.4612            2 
   32100    2.0345955   -4.7988623    4913.4536            1 
   32200    1.9986875   -4.8470705    4915.1713            1 
   32300    1.9901539   -4.7860578    4899.2062            1 
   32400    1.9948534   -4.8157752    4928.8362            1 
   32500    1.9937736   -4.8056671    4875.7217            1 
   32600    2.0233415   -4.8244846    4921.4785            2 
   32700    1.9907672   -4.7979431    4930.3119            1 
   32800    2.0427802   -4.8019795    4904.2621            1 
   32900    1.9113648    -4.788375    4938.5148            1 
   33000    2.0152526   -4.8155434    4905.3598            1 
   33100    2.0307373   -4.7939637    4926.2846            1 
   33200    2.0052735   -4.8247865    4938.2074            1 
   33300    2.0483146   -4.8169776    4924.5453            1 
   33400    1.9524097   -4.7975623    4933.6581            1 
   33500    2.0128724   -4.7874463    4908.2141            1 
   33600    1.9877009   -4.8084037    4909.9177            1 
   33700    1.9481707   -4.8415425    4880.3216            2 
   33800     1.953742   -4.7918763    4909.1184            2 
   33900    2.0158786   -4.7755862    4905.3289            2 
   34000    1.9385212   -4.7992676     4919.677            1 
   34100    2.0035689   -4.8605598    4874.6854            1 
   34200    2.0264349    -4.839803    4894.2593            1 
   34300    1.9880303   -4.8191692    4928.8644       -1e+20 
   34400    2.0067287   -4.7862524    4936.1301            1 
   34500    1.9809659   -4.7755263    4926.9089            1 
   34600    2.0296294   -4.7444884    4924.7837       -1e+20 
   34700    2.0128709   -4.8144528    4932.5578            1 
   34800    1.9892322   -4.7934639    4920.5373            1 
   34900    2.0396002   -4.8017768    4943.9762            1 
   35000    2.0247538   -4.8204501     4912.501            1 
   35100     1.987998   -4.8371265    4917.0164            1 
   35200    2.0130179   -4.7664189    4903.2769            1 
   35300    1.9993064   -4.7971824    4924.0099            2 
   35400     1.995507   -4.8686029    4895.7599            1 
   35500     2.024741   -4.8485752    4906.6081            1 
   35600    1.9947568   -4.8147075    4912.6014            1 
   35700    2.0229914   -4.8270951     4891.688            1 
   35800     1.966492    -4.830056    4928.9117            1 
   35900    2.0199729   -4.8270255    4924.8267            3 
   36000    2.0045833   -4.7452899    4917.4091            1 
   36100    1.9508584   -4.7518564    4942.7708            1 
   36200    1.9575926   -4.8098248    4899.1738            1 
   36300    1.9947808   -4.7808944    4916.7923            1 
   36400    1.9712115   -4.8092241    4925.8622       -1e+20 
   36500    2.0652656   -4.8167523    4922.6174            1 
   36600    1.9854532   -4.7804182    4933.6926            2 
   36700    2.0071197   -4.7566714    4937.2992       -1e+20 
   36800    2.0184466   -4.8229497    4950.4331       -1e+20 
   36900    1.9879764   -4.8239584     4888.627            1 
   37000    2.0334134   -4.8554538     4913.403       -1e+20 
   37100    1.9960392   -4.8152731    4926.8482            1 
   37200    2.0115251   -4.8087614    4908.6628            1 
   37300    1.9684529    -4.808341    4900.0798            1 
   37400    2.0396302   -4.8533779    4909.5131            2 
   37500    2.0196076   -4.8166004    4931.7302            2 
   37600    1.9608522   -4.8025729    4899.7418            1 
   37700    2.0181175   -4.8055603    4915.3153            1 
   37800    2.0164351   -4.7948367    4937.0532            1 
   37900    1.9708678   -4.8164274    4937.3263            1 
   38000    2.0106169   -4.7473752     4930.723            1 
   38100     2.004721   -4.8168738    4920.1942            1 
   38200    1.9829242   -4.8219857    4910.0818            1 
   38300    2.0339938   -4.8181113    4929.4392            1 
   38400    2.0053449   -4.8222473    4921.3506            1 
   38500    2.0142526    -4.830721    4906.5092            2 
   38600    2.0037143   -4.8059834    4936.9344            1 
   38700    2.0477106   -4.7918138    4924.0248            1 
   38800    1.9693955   -4.8087852    4946.2434            1 
   38900    2.0195682    -4.821587     4903.206            1 
   39000    2.0012296   -4.8506427    4878.1085       -1e+20 
   39100    2.0085856   -4.7862767    4941.0285       -1e+20 
   39200    2.0085721   -4.7529628    4937.2835       -1e+20 
   39300    1.9671799   -4.7977238     4934.284            1 
   39400    2.0260397   -4.8319963    4896.0318            2 
   39500    2.0021679   -4.7817753    4938.2202            1 
   39600    2.0006665   -4.7576954    4971.5791            1 
   39700    2.0298302    -4.781025    4922.2616            1 
   39800    1.9759184   -4.7612602    4938.6429            1 
   39900    1.9512031    -4.810048    4918.5333            1 
   40000    1.9967608   -4.8057856    4911.2011            1 
   40100    1.9823704   -4.7711371      4944.16            1 
   40200    2.0118723   -4.7593962    4961.9653            1 
   40300    1.9945716   -4.7995954    4933.3968            3 
   40400    2.0390903   -4.8289956     4877.279            1 
   40500    1.9767697   -4.8328824    4934.6285            1 
   40600    2.0133589   -4.8484321    4895.5407            1 
   40700    2.0083848   -4.8345226    4907.6875            2 
   40800    1.9878413   -4.8043835    4928.7093            1 
   40900    1.9828546    -4.794506    4904.6696            1 
   41000     2.006006   -4.8082291    4899.4147            1 
   41100    2.0083262   -4.8304113    4934.0146            2 
   41200    1.9490866   -4.8117562     4901.715            3 
   41300    1.9969714   -4.7888623    4925.2365            1 
   41400    2.0018082   -4.8188655    4880.0674            2 
   41500    1.9613982    -4.816786    4928.9445            1 
   41600    2.0142547   -4.7974979    4900.1724            2 
   41700    1.9896393   -4.8135812    4890.8396            1 
   41800    1.9581513    -4.817171    4942.6359            1 
   41900    2.0440531   -4.8108705     4885.308            1 
   42000    2.0129871   -4.8534924    4916.4159            1 
   42100     1.993378   -4.8314847    4903.9555            2 
   42200    2.0108973   -4.8576085    4919.4612            2 
   42300    1.9998564   -4.8238923    4918.0412            1 
   42400    2.0067561   -4.7432699    4935.3112       -1e+20 
   42500    1.9703808   -4.7115856    4939.1543            1 
   42600    1.9866254   -4.8146697    4893.4595            1 
   42700     1.979277   -4.8143637    4924.2504            1 
   42800      1.99793   -4.7752514    4928.7964            1 
   42900    2.0578777   -4.7908694    4939.3685            1 
   43000    2.0153399   -4.7722738    4986.9919            1 
   43100    2.0234811   -4.7788039    4919.7129            1 
   43200    1.9817632   -4.7854816    4953.3118            1 
   43300    2.0103285   -4.7555607    4918.9743            2 
   43400    2.0232014   -4.8221484    4914.5296            2 
   43500    1.9533885   -4.8458666    4928.7528            1 
   43600    2.0371193   -4.8230968    4879.9633            1 
   43700    1.9736302   -4.8166159    4935.5902            1 
   43800    2.0120953   -4.8048326    4922.3107            1 
   43900    1.9735664   -4.7631141    4904.1115       -1e+20 
   44000    2.0623141   -4.8194202    4917.8862       -1e+20 
   44100    1.9890907    -4.844016    4906.8927            2 
   44200     2.003627   -4.7942633    4906.5864       -1e+20 
   44300    2.0273733    -4.773709    4944.8925       -1e+20 
   44400    1.9988749   -4.7856504    4929.9658            1 
   44500    1.9787358   -4.8115974    4922.5355            1 
   44600    2.0133781   -4.7763471    4920.8496            1 
   44700     2.021317   -4.7530606    4952.2902            1 
   44800    2.0093488   -4.8011689    4935.7217            1 
   44900    1.9973139   -4.8130235    4910.8712            1 
   45000    1.9442707   -4.7998743    4896.0169            1 
   45100    2.0006021   -4.7749085    4940.7144            1 
   45200    2.0407682    -4.787499    4937.9527            1 
   45300    2.0030303   -4.8306051    4892.4454            1 
   45400    1.9865298   -4.7942418    4922.3459            2 
   45500    2.0072921   -4.7790126    4937.1211            3 
   45600     1.990679   -4.8292082    4901.1212            1 
   45700    2.0143622   -4.8191393    4906.1532            1 
   45800    2.0126103   -4.7957889    4940.8903            1 
   45900    2.0067182   -4.8038736    4925.1858            2 
   46000     1.968541   -4.8322896    4896.6053            2 
   46100    2.0232854   -4.8597388    4905.0636            1 
   46200    1.9878642   -4.7705241    4935.7674            1 
   46300    2.0546279   -4.7427771    4947.2352       -1e+20 
   46400    1.9928503   -4.7901375    4956.7633       -1e+20 
   46500    2.0070553   -4.8342069     4911.407            2 
   46600    1.9803865     -4.79261     4886.653            1 
   46700    2.0006357   -4.7658596    4933.0724            1 
   46800     1.993951   -4.7918601    4950.1239            2 
   46900    2.0244541   -4.7929502    4907.8898            1 
   47000    1.9764014   -4.8093988    4957.2433            2 
   47100    2.0543655   -4.8150629    4913.7179            1 
   47200     2.021924   -4.7978453    4938.0496            2 
   47300    1.9672343   -4.8061219    4922.6557            1 
   47400    2.0121704   -4.8367654    4937.5582            1 
   47500    2.0526655   -4.8512368    4882.6521            1 
   47600    1.9799626   -4.8451717    4936.0692            1 
   47700    2.0075929   -4.8308554    4905.7911            1 
   47800     1.990451   -4.7919891     4914.515            1 
   47900    2.0027431   -4.8057933    4934.7611            1 
   48000    2.0009232    -4.803067    4925.8802            1 
   48100    2.0264598   -4.7661054    4928.8589       -1e+20 
   48200    1.9690325   -4.7739497    4935.0333            1 
   48300    1.9958462   -4.8172419    4892.5526            1 
   48400     2.010349   -4.7964873    4911.3936            1 
   48500    1.9999682    -4.839328    4928.0114            1 
   48600    1.9635029   -4.8166297    4884.5319            1 
   48700    2.0071163   -4.8199217    4887.5021            1 
   48800    1.9652228   -4.7844969    4924.5973            1 
   48900    1.9967564   -4.7210822      4931.59       -1e+20 
   49000    2.0179035   -4.7674433    4914.6732            1 
   49100    1.9716107   -4.7781706    4928.9806            1 
   49200    1.9820739   -4.7716304    4921.2553            1 
   49300    2.0043199   -4.7565895    4891.5955            1 
   49400    2.0066347    -4.791406    4965.4435            1 
   49500    2.0205982   -4.7863524    4937.3877       -1e+20 
   49600    1.9896753     -4.74922    4920.3862       -1e+20 
   49700     1.983627    -4.807253    4896.5928            1 
   49800    1.9750639   -4.8338273    4917.7196            1 
   49900    2.0039356   -4.7789152    4932.3183            1 
   50000    2.0061694   -4.8080783    4899.9514            1 
   50100     1.958834   -4.7721893    4912.5463            1 
   50200    1.9750727   -4.7504985    4920.4403            2 
   50300    2.0098817   -4.7364572    4946.5405            1 
   50400    1.9930495   -4.7404079    4938.9126            1 
   50500    1.9950516   -4.8213143    4917.4023            1 
   50600    2.0170474   -4.7705878    4907.0174            1 
   50700    2.0257766   -4.8208444    4956.0664            1 
   50800    1.9964134   -4.8553024    4908.9683            1 
   50900    1.9996259   -4.7945491    4897.5601            1 
   51000    2.0260546   -4.8272541    4948.7716            2 
   51100    1.9964749   -4.8229627    4906.1212            1 
   51200    1.9904412   -4.7783462    4887.1744            1 
   51300    1.9396542   -4.8351516    4911.3605            1 
   51400    1.9986454   -4.8148696    4898.9357            1 
   51500    2.0073034   -4.8172347    4894.5403            1 
   51600     1.976853   -4.8240227    4909.3854            1 
   51700    1.9902392   -4.8472867    4909.1713            1 
   51800     1.998602    -4.746245    4920.3135       -1e+20 
   51900    1.9634589    -4.769026    4911.0826            1 
   52000    1.9804548   -4.8118835    4904.3942            1 
   52100     2.004924   -4.8241482    4933.2218            1 
   52200    2.0164807    -4.780515    4940.7056            1 
   52300    2.0037178   -4.7800397    4928.7368            2 
   52400    2.0051977   -4.8137579    4906.3188            2 
   52500    2.0090338   -4.7915812    4931.6461            1 
   52600    2.0268405   -4.8186246    4956.1567            2 
   52700    2.0409652   -4.8270838    4907.5871            1 
   52800     1.971458   -4.7737049    4936.4353            2 
   52900    2.0193215   -4.8158944    4923.1082       -1e+20 
   53000    1.9918604   -4.8042147    4904.9641       -1e+20 
   53100    2.0260302    -4.770143    4927.4561            1 
   53200    2.0023038   -4.7941468    4924.0415            1 
   53300      1.98459   -4.7968116    4931.7639            1 
   53400    2.0270535   -4.7623377    4942.0313            1 
   53500     1.995023   -4.7450766    4945.7736            4 
   53600    1.9838656   -4.8122464    4911.4729            1 
   53700     2.006526   -4.7960832    4933.7841            1 
   53800    2.0005929   -4.7793847    4938.2821            2 
   53900    1.9595207   -4.7719761    4913.6387            2 
   54000    2.0272294   -4.7760449    4924.5956            1 
   54100    1.9901055   -4.7895794    4933.7123            1 
   54200    1.9918361   -4.8303618    4921.1757            1 
   54300    1.9964226   -4.8451739    4882.6027       -1e+20 
   54400    2.0391877   -4.8392001    4919.9657            1 
   54500    1.9856217   -4.7562782    4933.7226            1 
   54600    2.0180796   -4.7949055    4946.8595       -1e+20 
   54700    1.9867249   -4.7221676    4933.8332            1 
   54800    1.9969204   -4.7789522    4875.4815            1 
   54900    1.9660404   -4.7972798    4947.7845            2 
   55000    2.0206396   -4.8067352    4940.8623            1 
   55100    1.9915601   -4.7908656    4917.7046            1 
   55200    1.9976622   -4.8309625    4889.7931            1 
   55300     1.946889   -4.8093162    4915.5532            1 
   55400    2.0085666   -4.7767903    4916.6564            1 
   55500    1.9890959   -4.8158183    4931.2655            1 
   55600    1.9872299   -4.8196692    4901.1608            1 
   55700    2.0382077   -4.8052747    4929.6966            1 
   55800    1.9870048   -4.8153263    4923.7311            1 
   55900    2.0298478   -4.8499422    4904.6364            3 
   56000    2.0027098   -4.7775252    4942.8279            1 
   56100    1.9738458   -4.7777621    4905.1973            1 
   56200    1.9978365   -4.8304734    4921.8563            1 
   56300    2.0037013   -4.8045795     4917.378       -1e+20 
   56400     2.017418   -4.7928309    4920.5982            1 
   56500     1.966478   -4.7448623    4979.4646            1 
   56600    2.0412477   -4.7396342    4929.5965            1 
   56700    1.9913013   -4.7611631    4952.1322            1 
   56800    1.9725569   -4.7731683    4928.5332            1 
   56900    2.0254602   -4.8076929    4914.1918            1 
   57000    1.9831167   -4.7871285    4927.7973       -1e+20 
   57100    2.0374736   -4.7724359    4920.5049       -1e+20 
   57200    1.9928331   -4.7372986    4968.9178            1 
   57300    1.9946527   -4.7637767    4931.3095            1 
   57400    1.9985199   -4.8011672    4917.7475            1 
   57500    2.0073765   -4.8105284     4919.258            1 
   57600    1.9620992   -4.8492458    4898.9179            1 
   57700    2.0148923   -4.8631491    4890.8231            2 
   57800    1.9750672   -4.7932826       4920.9            1 
   57900    1.9922494   -4.7606593    4924.3882            1 
   58000    1.9842663   -4.7379188    4914.7483            2 
   58100    1.9575628   -4.8044924    4912.0187            1 
   58200    2.0264228   -4.8177483    4920.2394            2 
   58300    2.0380267    -4.770872    4948.1823            1 
   58400    1.9924901   -4.7953399    4947.1131            1 
   58500    2.0318311   -4.8313623     4904.605       -1e+20 
   58600     1.975293   -4.8307279    4892.5823            1 
   58700    2.0243149   -4.8387758    4927.7042            1 
   58800    2.0168107   -4.8358652    4915.4381       -1e+20 
   58900    2.0057926   -4.8349247     4896.083            1 
   59000    1.9942332   -4.8034774    4938.9848            2 
   59100    1.9638615      -4.7373    4933.3052            2 
   59200    2.0662604    -4.737949    4919.8757            1 
   59300     2.000433   -4.8020412    4954.5835            1 
   59400    1.9846712   -4.7949683    4932.2992       -1e+20 
   59500     1.984992   -4.7988396    4868.1838            1 
   59600     1.946418   -4.8466867    4894.9304            1 
   59700    1.9864483   -4.8172727    4903.7741            1 
   59800    2.0327157   -4.8142987    4904.4167            1 
   59900    1.9757888   -4.8423303    4944.8189            1 
   60000    2.0253358   -4.8024755    4913.1979            1 
   60100    2.0252806   -4.7344271    4945.1119       -1e+20 
   60200    2.0235943   -4.8034234    4942.3123            1 
   60300    1.9802791   -4.7915298    4910.3116            1 
   60400    2.0326793   -4.7564376      4921.37            1 
   60500    2.0226732   -4.7951575    4939.2027            1 
   60600     1.993862   -4.8289424    4916.3166            1 
   60700    1.9978908   -4.7735094     4919.716       -1e+20 
   60800    2.0263366   -4.7782383    4933.8721            1 
   60900    1.9703962    -4.776862     4930.105            1 
   61000    2.0110731   -4.8063542    4888.0058       -1e+20 
   61100    2.0008856   -4.8722054     4897.019            2 
   61200    1.9851385   -4.8402985    4893.9708            1 
   61300    1.9917255   -4.8436084     4879.456            2 
   61400     2.019366   -4.8316244    4924.2054            2 
   61500    2.0168845   -4.7936454     4940.686            1 
   61600    2.0157104   -4.7290354    4930.5572            2 
   61700     1.999114   -4.7655767    4926.6089            1 
   61800    1.9612436   -4.7916276    4922.6577            2 
   61900    2.0299354   -4.8462247    4886.5577            1 
   62000    1.9618367   -4.8090507    4913.1657            1 
   62100    1.9902373   -4.7923933    4893.9832            1 
   62200    1.9619777   -4.7506534    4909.2686            1 
   62300    2.0102071   -4.7909058    4980.7782            1 
   62400    2.0209675   -4.8129415    4933.3563            1 
   62500    2.0170171   -4.8224526    4899.1716            2 
   62600    1.9756924   -4.8306727     4897.903            1 
   62700    2.0271443   -4.8269447     4908.393       -1e+20 
   62800    1.9978543   -4.8104081    4932.1612            1 
   62900    1.9763283   -4.8259975     4894.318            1 
   63000    2.0138573   -4.8031747    4917.6118            1 
   63100    2.0197727   -4.7845216    4940.3856            1 
   63200    1.9742886   -4.8182593    4922.4759            1 
   63300    2.0011098   -4.8302483    4906.2577            1 
   63400    1.9955512   -4.7788449    4906.9245            1 
   63500    1.9884294    -4.809658    4927.6919            1 
   63600    2.0201921   -4.7870608    4918.5873            1 
   63700     1.988158   -4.7700144    4915.3941       -1e+20 
   63800    1.9750982   -4.7590457    4964.7203            1 
   63900    2.0245406   -4.7543442    4918.8906            1 
   64000    1.9870857   -4.7766486    4918.2344       -1e+20 
   64100    2.0016057    -4.790876    4923.3771            1 
   64200    2.0025696   -4.8371628    4901.1326            3 
   64300    2.0437809   -4.8727826    4906.4812            1 
   64400    1.9670824   -4.7778805    4926.5323       -1e+20 
   64500    2.0266214   -4.8006015    4905.6454            1 
   64600    1.9673474   -4.8194679    4923.8412            1 
   64700    1.9866539   -4.8230239    4924.2093            1 
   64800    2.0187632   -4.7534295    4949.0789            1 
   64900    2.0097078   -4.8107637    4914.1493            2 
   65000    1.9878032   -4.8247109    4911.4402            1 
   65100    2.0456037   -4.8089754    4934.3246            3 
   65200     1.997331   -4.7721765    4931.5907            1 
   65300    1.9769801   -4.8494563    4908.8055            1 
   65400    2.0023653   -4.8478828    4898.0215       -1e+20 
   65500    2.0030834   -4.7818986      4926.66            1 
   65600    2.0177267   -4.7856943    4941.1034            1 
   65700    1.9666144   -4.8086488    4946.8538       -1e+20 
   65800    2.0204205   -4.7617111    4905.0854            1 
   65900    2.0177001   -4.7549675    4955.1421            1 
   66000    1.9858938   -4.7395286    4955.1096            1 
   66100    2.0194528   -4.7994827    4920.9428            1 
   66200    1.9671951   -4.7972502    4916.2121       -1e+20 
   66300    2.0037874   -4.7788095    4942.8068            1 
   66400    2.0091811   -4.8089266    4893.5299            1 
   66500    1.9873885   -4.8224421     4915.269            1 
   66600    2.0205956   -4.8459718    4901.0715            1 
   66700    1.9682963   -4.8460123    4888.7634            1 
   66800    2.0065598   -4.8261181    4921.8759            2 
   66900    2.0281924    -4.779089     4913.235            1 
   67000    1.9413146   -4.7880791    4936.8129            1 
   67100    2.0156741   -4.7871148    4912.7348       -1e+20 
   67200    2.0037944   -4.7891729    4933.7546            1 
   67300    2.0019174   -4.7750746    4940.4582            1 
   67400     1.988198   -4.8118691    4910.4324            2 
   67500    2.0182155   -4.7871761    4946.2728            2 
   67600    2.0404327   -4.8431932    4908.7428            1 
   67700    1.9901852   -4.8092924    4915.9933            1 
   67800    2.0141429   -4.7466663    4950.2604            1 
   67900    2.0194946   -4.7578438    4937.3728       -1e+20 
   68000    2.0098715   -4.8055676    4925.7114            1 
   68100    1.9650374   -4.7836601    4906.8141            1 
   68200    2.0107772   -4.7580938    4946.4446       -1e+20 
   68300     1.990644   -4.7639658     4931.291            2 
   68400    1.9869894   -4.8277894    4913.6926            2 
   68500    2.0331804   -4.8041625    4921.2522            1 
   68600    1.9738877   -4.8143933    4925.2532            2 
   68700      1.99649   -4.8692379    4880.0983            1 
   68800    2.0243033   -4.8357405    4903.1683       -1e+20 
   68900     1.999156   -4.7698602    4917.0307            1 
   69000    1.9934016   -4.8023167    4921.5562       -1e+20 
   69100    1.9716361   -4.7912021    4893.3271            1 
   69200    1.9922733    -4.765803    4918.8394            1 
   69300    2.0115575   -4.7760487    4942.0964            2 
   69400    1.9861181   -4.8231141    4902.8959            1 
   69500      2.01833   -4.8392271     4905.072            1 
   69600    2.0142121   -4.7825305    4950.6756            2 
   69700     2.010284   -4.8103948    4932.2031            1 
   69800     1.994938   -4.8295484    4901.1943            1 
   69900    2.0300146   -4.7973781    4934.0262            1 
   70000    2.0053821   -4.8062181    4927.6711            1 
   70100    1.9839074   -4.7671012    4928.5738            1 
   70200      2.02555   -4.7783933    4925.2803            1 
   70300     2.007243   -4.8237561    4940.7341            1 
   70400    2.0070596   -4.7845508    4918.6813            4 
   70500    2.0060981   -4.8342883    4885.3242       -1e+20 
   70600    2.0136452   -4.8260815    4939.6002            2 
   70700    2.0330759   -4.7978979    4923.4851       -1e+20 
   70800    1.9617126    -4.776503    4929.4301       -1e+20 
   70900    2.0508242   -4.8177472    4928.1592            1 
   71000    1.9864505    -4.830045    4903.9105            1 
   71100     2.000109   -4.8944802    4917.7762            1 
   71200    2.0184878   -4.7839744    4922.0352       -1e+20 
   71300    1.9951564   -4.8009032    4920.2421            1 
   71400    2.0492213   -4.8021735    4939.5291            1 
   71500    1.9569728   -4.7718695    4930.0649            1 
   71600    2.0069138   -4.8137067    4915.9868       -1e+20 
   71700    1.9933538   -4.7729182    4911.4495            2 
   71800    2.0057061   -4.7504209    4965.9337            1 
   71900     1.976017   -4.7778462    4925.9602            1 
   72000    1.9954201   -4.7668271    4920.6926       -1e+20 
   72100    2.0245395   -4.7467145    4964.0462            1 
   72200    1.9884959    -4.741663     4910.612            1 
   72300    2.0045512    -4.784008    4941.7549            3 
   72400    1.9443831   -4.7595626    4933.5524       -1e+20 
   72500     2.031248   -4.7779058    4907.3767            1 
   72600    1.9724261   -4.8112757    4936.1125            1 
   72700    2.0233457   -4.8096115    4887.4994            1 
   72800    1.9846483   -4.8014911    4941.1181       -1e+20 
   72900    2.0231857   -4.8247433    4921.1839            2 
   73000    2.0236295   -4.8391315    4889.3164            1 
   73100    1.9613699   -4.8178496     4915.596            3 
   73200    2.0108308   -4.7981144    4910.9089            2 
   73300    1.9305396   -4.7930671    4892.8955            1 
   73400    2.0220262   -4.8421443    4903.7645            1 
   73500    2.0051187   -4.7872711    4914.9927            1 
   73600    1.9433974   -4.8266351    4914.3314            1 
   73700    2.0078516   -4.8375796    4892.3818            1 
   73800    2.0107356   -4.8071628    4889.6632            1 
   73900    1.9862022   -4.7856748    4942.2576            1 
   74000    2.0374413    -4.795929    4938.8365            1 
   74100    2.0102875   -4.7961834     4908.051            1 
   74200    1.9995808   -4.8272395    4930.2875            2 
   74300    1.9668612   -4.7813259      4937.54            1 
   74400    2.0505854   -4.7910324     4889.038            1 
   74500    1.9568573   -4.7759832    4959.1148            1 
   74600    2.0135657   -4.7918441    4924.9919            1 
   74700    2.0371606   -4.7933595    4937.8644            1 
   74800    1.9874391   -4.7772376    4961.8997       -1e+20 
   74900    2.0282135   -4.8166771    4916.0885            1 
   75000      1.98436   -4.8316472    4915.5207            1 
   75100    2.0338738   -4.8403632    4901.9394            1 
   75200    1.9793533    -4.804866    4904.0862            2 
   75300    1.9966738   -4.7961057    4947.0655       -1e+20 
   75400    2.0100138   -4.7462318    4924.0766            1 
   75500    1.9996883   -4.8151702     4943.057       -1e+20 
   75600     2.000687   -4.8368889    4930.7897       -1e+20 
   75700    2.0316244   -4.7916145    4907.5927            1 
   75800    1.9761664   -4.7972357    4926.9268       -1e+20 
   75900    1.9612727   -4.8586953    4899.3505            1 
   76000    2.0240547   -4.8677521    4894.5156            1 
   76100    1.9907141   -4.8069858    4910.1371       -1e+20 
   76200    2.0547403   -4.8221281    4938.2462            2 
   76300    1.9657684   -4.7400401    4940.2115            1 
   76400    2.0462265   -4.7934002     4910.095            1 
   76500    1.9663959   -4.7940695    4941.0144            1 
   76600    2.0274193   -4.7897892     4928.574            3 
   76700    2.0036038    -4.818506    4934.9788            1 
   76800    2.0106033   -4.8219064    4932.5102            1 
   76900    2.0230252   -4.8318304    4874.2249            1 
   77000    1.9233293   -4.8345133    4913.1363            1 
   77100    2.0107172   -4.8444885    4918.9506            2 
   77200    2.0001918   -4.7641038    4918.9721       -1e+20 
   77300    2.0013111   -4.7915616    4944.5767            1 
   77400    1.9994864   -4.8126797    4899.0243            1 
   77500    2.0468357    -4.786633    4928.9602            1 
   77600    2.0067357   -4.8041871    4941.6307            1 
   77700    1.9884841   -4.8218991    4887.8158            2 
   77800     2.010291    -4.817675    4902.5254            1 
   77900    2.0118422   -4.8229628    4948.1288            1 
   78000    2.0199833    -4.807409    4930.4422            1 
   78100     2.016258   -4.7894882    4923.0498            1 
   78200    1.9665095   -4.7759672     4941.222            1 
   78300    1.9776701   -4.7595146    4899.7977            1 
   78400    2.0314755   -4.8068135    4918.8005            1 
   78500    1.9595302    -4.830636    4948.8246            1 
   78600    2.0539179   -4.8375843    4886.7863            1 
   78700    1.9816633   -4.7989957    4929.5727            1 
   78800    1.9931494   -4.7895934    4938.9912            1 
   78900     2.006261   -4.7285744    4884.9305            1 
   79000    1.9393008   -4.8008214    4961.5451            1 
   79100    2.0100235    -4.775568     4904.233            1 
   79200    2.0163364   -4.7959669     4905.866            1 
   79300    1.9545706   -4.7749234     4952.305            1 
   79400    2.0326967   -4.7723271    4911.0081            1 
   79500    1.9438586   -4.7651714    4925.9936            2 
   79600    1.9963608    -4.790763    4927.2816       -1e+20 
   79700    2.0063195   -4.8263406    4901.5473            1 
   79800    1.9918663   -4.8438679    4898.3417            1 
   79900     2.003758   -4.7981117    4925.3179            1 
   80000    2.0177447   -4.8203581    4903.1218            1 
   80100    2.0140551   -4.8565931    4907.0268       -1e+20 
   80200    1.9849683   -4.8427479    4882.2601            1 
   80300     1.983004   -4.8195654     4902.072            1 
   80400    2.0221049   -4.8550621    4918.6597            1 
   80500    1.9974116   -4.7951498    4914.8689            1 
   80600    1.9923877   -4.7786333    4931.6092            1 
   80700    1.9651515   -4.7937942    4905.8471       -1e+20 
   80800    2.0112375   -4.8340808    4913.3556            1 
   80900    1.9805713   -4.7272692    4940.7951       -1e+20 
   81000     2.011248   -4.8197451    4907.6036            1 
   81100    1.9723717   -4.8082933     4930.345            1 
   81200     1.986564   -4.7301615    4937.6694            1 
   81300    2.0208101   -4.7620345    4922.2879            1 
   81400    1.9669969   -4.7969715    4939.0375            2 
   81500    2.0198844   -4.7817029     4917.093            1 
   81600    1.9975645   -4.8228746    4924.9099            1 
   81700    1.9568867     -4.79214    4901.4832            1 
   81800    2.0275929   -4.7885608    4881.7361            1 
   81900    1.9822599    -4.805822    4929.0277       -1e+20 
   82000    2.0142609    -4.812712    4929.8092            1 
   82100    1.9971974   -4.8042347    4920.9216            1 
   82200    2.0243453   -4.7886954     4948.533            1 
   82300    2.0304875   -4.7820361    4967.0862            1 
   82400    1.9872722   -4.7871971    4911.2537            2 
   82500    2.0221677   -4.8332526    4912.7201       -1e+20 
   82600    1.9345463    -4.820051    4907.7489            1 
   82700    2.0184831   -4.8295411    4908.5675            1 
   82800    1.9904187   -4.8532966    4914.2735            1 
   82900    1.9879659   -4.8224071    4895.4661            1 
   83000    1.9995469   -4.7818612    4945.7811            1 
   83100    1.9994633   -4.7635149    4955.4089            1 
   83200    2.0722635   -4.7661814    4930.3165            1 
   83300    2.0073167   -4.8226695    4944.0657            1 
   83400    1.9871835   -4.8453209    4904.5267            2 
   83500    2.0051853   -4.8245377    4886.3489            1 
   83600    1.9830952   -4.8290729    4916.3928            1 
   83700    2.0211114   -4.8128193    4923.5336            1 
   83800    2.0188884   -4.7583302    4898.4577       -1e+20 
   83900    1.9743626    -4.827506    4939.4629            1 
   84000    1.9839402    -4.789649    4931.8948       -1e+20 
   84100    2.0068281   -4.7449061    4926.6984            1 
   84200    2.0055794   -4.7496333    4942.1796            1 
   84300    2.0143612   -4.8337339    4913.6832            2 
   84400     1.974763   -4.8200062    4915.4731            1 
   84500    2.0299701   -4.8252245    4896.6291            1 
   84600    1.9616044   -4.7354102    4940.9259       -1e+20 
   84700    2.0133933   -4.7849025    4908.5838            1 
   84800    1.9829729    -4.790454    4907.3219            1 
   84900    1.9783222   -4.8066611    4944.3959            1 
   85000    2.0405236   -4.7689299    4901.9962            1 
   85100     1.975707   -4.7919813    4949.6517       -1e+20 
   85200    1.9627858   -4.7544904    4917.8458            1 
   85300    2.0049831   -4.7911501    4903.0049            1 
   85400    1.9707151   -4.7992907    4940.1761       -1e+20 
   85500    2.0326923   -4.7663551    4899.6288            1 
   85600    1.9957782   -4.8177738    4918.4754            1 
   85700    1.9661209   -4.8230397    4923.5394            1 
   85800    2.0428168   -4.8075048    4883.9034            3 
   85900    1.9432885   -4.7677836    4938.0725            2 
   86000    2.0255255   -4.7822372    4923.9623            1 
   86100    1.9885619   -4.7416662    4944.2889            1 
   86200     2.012584   -4.7839991    4969.3294            1 
   86300    1.9998545   -4.8122799    4898.9842            1 
   86400    1.9723505   -4.8116318    4914.6204            1 
   86500    1.9936425   -4.7740645    4930.7572            1 
   86600    1.9836072   -4.7603241     4912.887       -1e+20 
   86700    2.0276391   -4.7603482     4962.962            1 
   86800    2.0317774   -4.8100812    4916.8341            1 
   86900    1.9815566   -4.7866697    4933.2106            2 
   87000    2.0166398   -4.7605964    4942.1506       -1e+20 
   87100    1.9546899   -4.7641822    4916.4543            1 
   87200    2.0448119   -4.8056146    4939.5439            1 
   87300    1.9917535   -4.8038462    4931.8615            1 
   87400    2.0099753   -4.7941202    4913.0702       -1e+20 
   87500    1.9751075   -4.8420165    4902.2062            2 
   87600    1.9889996   -4.8260768    4906.4207       -1e+20 
   87700    2.0201378   -4.8035017    4923.0017            1 
   87800    1.9670089   -4.7829012    4949.8024            1 
   87900    2.0172844   -4.7693165    4942.2027            1 
   88000    2.0023579   -4.7975566    4904.4633       -1e+20 
   88100    1.9762727   -4.8272044    4914.0189            1 
   88200    2.0296177   -4.8717526    4887.4488            1 
   88300     2.017211   -4.8223437    4924.3066       -1e+20 
   88400    1.9992106   -4.8178496    4929.9841            1 
   88500    2.0566038   -4.8102387    4902.1394       -1e+20 
   88600    1.9851126   -4.7972633    4960.1753            1 
   88700     1.992718    -4.821632    4920.1646            1 
   88800     2.012438   -4.8219004    4878.8547            1 
   88900     2.002104   -4.7655859    4947.3182            1 
   89000    2.0083286   -4.7705271    4947.1888            1 
   89100    2.0005298   -4.7816132    4906.0465            1 
   89200    2.0155992   -4.8105357    4911.3999       -1e+20 
   89300    1.9651072   -4.8014898    4933.9234            1 
   89400    2.0033313   -4.7557076     4923.144            1 
   89500     2.024591   -4.7979998    4958.5117            1 
   89600    2.0163431   -4.7471309    4967.7357       -1e+20 
   89700    2.0022247   -4.7644522    4903.1134            1 
   89800    1.9946462   -4.8461612    4914.1249            1 
   89900    2.0045293   -4.8136949    4919.2825            1 
   90000    1.9666311    -4.836528    4899.9273            1 
   90100    2.0103917   -4.8159787    4881.4029            1 
   90200    1.9704249   -4.8201412    4947.8353            1 
   90300    2.0130205   -4.7807222    4922.2606            2 
   90400     1.991089   -4.7426173    4917.7041            1 
   90500    1.9921576   -4.7673522    4987.6176            1 
   90600    2.0173918   -4.6907539     4938.068            1 
   90700    2.0146446   -4.7863855    4936.6739            1 
   90800    1.9667537   -4.8076708    4915.6745            1 
   90900    1.9967874    -4.830219    4883.2476       -1e+20 
   91000    1.9985018   -4.7881291    4923.1918            1 
   91100    1.9883961   -4.7515311    4937.5079            1 
   91200    2.0162552   -4.8025737    4918.9724            2 
   91300    1.9970668   -4.8417478    4896.8596            1 
   91400    2.0258049   -4.8067585    4905.7609       -1e+20 
   91500    2.0094106   -4.7794249    4955.7852            1 
   91600    2.0263794   -4.7901946    4921.1863            1 
   91700    1.9715094   -4.7727909    4916.3778            1 
   91800    2.0420762   -4.8030417    4925.7407            2 
   91900    1.9424511   -4.7798963    4938.3403            1 
   92000    2.0294347   -4.7817249    4898.2885            1 
   92100     1.956314    -4.786351    4939.3674            1 
   92200    2.0082747   -4.8012686    4913.1431            2 
   92300      2.00312   -4.7878993    4910.0699            1 
   92400    1.9906504   -4.8001451    4943.7319            1 
   92500    1.9823875   -4.8014545    4916.0912            3 
   92600    2.0102948   -4.8296691    4885.4327       -1e+20 
   92700    1.9861775   -4.7454633    4929.5592            1 
   92800      2.01414   -4.7774568    4922.3411            1 
   92900    1.9640415   -4.7861561    4926.0117            1 
   93000    2.0248746   -4.7905214    4910.1181            1 
   93100    1.9756475   -4.7762566    4910.9652            1 
   93200    1.9394686   -4.8085492    4901.2825            1 
   93300    2.0254024   -4.8196736     4889.849            1 
   93400    1.9624349    -4.781471    4952.6615            1 
   93500    2.0345382   -4.8038847    4913.0494            1 
   93600    1.9828245   -4.7969497    4914.0575       -1e+20 
   93700    2.0050902   -4.8364521    4913.6694            1 
   93800    2.0292364   -4.8643178    4900.9135            1 
   93900    1.9942363   -4.8572879    4928.3087       -1e+20 
   94000    1.9870646   -4.7517658    4912.6801            1 
   94100    2.0354024   -4.7661716    4907.4125       -1e+20 
   94200    1.9683586   -4.8132059    4928.7177            1 
   94300     2.032883   -4.8315113     4916.844            1 
   94400    1.9784687   -4.7628591    4916.9543            1 
   94500    1.9870996   -4.8005804    4925.1954            1 
   94600    2.0155387   -4.8159056    4883.8732            1 
   94700    1.9722631   -4.8203871    4929.6288            1 
   94800    2.0132005   -4.7951181    4940.2349            1 
   94900    2.0114927   -4.8309287    4902.2571            1 
   95000    1.9418326    -4.809078    4903.0676            1 
   95100    2.0077445   -4.8031244    4918.4021            1 
   95200    2.0114693   -4.7716052    4944.2665            2 
   95300    2.0423732   -4.7661627    4961.1048            1 
   95400    2.0191146   -4.8009789    4897.4308            2 
   95500    1.9624395   -4.7916238    4920.8076       -1e+20 
   95600    1.9931542     -4.78274    4922.5792            1 
   95700     1.997961   -4.7704286    4918.4746       -1e+20 
   95800    1.9819485   -4.7953893    4933.9004            1 
   95900    2.0279434   -4.8068194    4905.1648            1 
   96000     1.988539   -4.8326378    4918.1409            1 
   96100    1.9936516    -4.791135    4890.7969            1 
   96200    1.9736644   -4.7833535    4925.1556            1 
   96300    1.9979955   -4.7809861    4948.7583            1 
   96400    2.0471215    -4.780492    4934.9466            1 
   96500    1.9865394   -4.7944235     4893.717            1 
   96600    1.9940234    -4.786309    4921.4826            1 
   96700    1.9975604     -4.78907    4951.8459            1 
   96800    2.0737288    -4.819564    4909.8378            1 
   96900    1.9388198   -4.7876795    4934.2436            2 
   97000    2.0038035   -4.7692606    4907.9321            1 
   97100    1.9678965   -4.7855186    4911.4913            2 
   97200    2.0101986   -4.7853561    4933.8234            1 
   97300     2.028262   -4.7363447    4937.2329            1 
   97400    1.9643645   -4.7446755    4908.0492            1 
   97500    2.0323826   -4.7949185    4928.8491            1 
   97600    1.9601921   -4.8105742    4944.4346            1 
   97700    2.0260787   -4.8130154    4901.2096            1 
   97800    1.9654671    -4.820957    4903.3639            2 
   97900    2.0012806   -4.7858438    4938.9811            1 
   98000     2.005863    -4.766414    4926.4156            3 
   98100    1.9655824     -4.80634    4913.6555            1 
   98200    2.0755315   -4.8156975    4907.7397            1 
   98300    1.9771909   -4.7629716      4950.14       -1e+20 
   98400    2.0340298   -4.7938574    4945.6735       -1e+20 
   98500    1.9704035   -4.7790133    4906.4123            1 
   98600    1.9948704    -4.797881    4929.0482            1 
   98700    2.0343292   -4.7886801    4949.2714            2 
   98800     2.018534   -4.7916042     4910.139            1 
   98900    1.9658081   -4.7844796    4923.5991            1 
   99000    2.0466047   -4.8234221    4933.2073       -1e+20 
   99100    2.0160909     -4.76527    4925.0392            1 
   99200    1.9773148   -4.8113765    4892.1767            2 
   99300    2.0009816   -4.7935404    4909.0498            1 
   99400    2.0386451   -4.7550755    4964.2569            1 
   99500    1.9991267   -4.7084805    4964.5981            1 
   99600    2.0252825   -4.7967422    4951.0473            1 
   99700    2.0161731   -4.8207544    4924.8193            1 
   99800    1.9982394   -4.8072602    4919.8614            1 
   99900    1.9818537   -4.8058514    4906.1071            1 
  100000    1.9686605   -4.8355364    4863.1168            1 
  100100    1.9789535   -4.8094344    4938.0692       -1e+20 
  100200     1.980092   -4.7147055    4944.8206            1 
  100300    2.0011996   -4.7849273    4922.0485            2 
  100400    1.9788157   -4.7874368    4905.8178            1 
  100500    2.0050495   -4.8079962     4907.645            1 
  100600    1.9936503   -4.7715567    4938.9653       -1e+20 
  100700    2.0049765   -4.7714548     4930.877            1 
  100800    2.0143121   -4.8055957    4903.6956            1 
  100900    1.9893138   -4.8456131    4904.5197            1 
  101000    1.9848397   -4.8452483    4881.7414            2 
  101100    1.9812191   -4.8337772    4851.8385            1 
  101200    1.9682454   -4.8203811    4935.1545            1 
  101300    1.9950952   -4.7911063    4934.0016            2 
  101400     2.024036   -4.7446912    4916.3037            1 
  101500    1.9832542   -4.8115496    4920.0501            1 
  101600     1.993686    -4.800082    4916.0274            1 
  101700    2.0331377   -4.7615754    4924.2072       -1e+20 
  101800    1.9807549   -4.7988382    4924.1708            1 
  101900    2.0054618   -4.7952786    4929.9295            1 
  102000    2.0241052   -4.7538966    4931.1706            1 
  102100    2.0154726   -4.8402052    4931.1753            1 
  102200    1.9372095   -4.7986065    4914.2501            1 
  102300    2.0244292   -4.8023247    4897.0134            1 
  102400    2.0101858   -4.8420987    4926.7534       -1e+20 
  102500    1.9981322   -4.8310297    4923.5354            1 
  102600    1.9796004    -4.796522    4900.0746            2 
  102700    2.0101421   -4.8121263     4904.492            1 
  102800     1.971623   -4.7997533    4932.4431            1 
  102900     2.014222   -4.7655944    4934.3462            1 
  103000    1.9743252   -4.7716006    4934.1051            1 
  103100    2.0319052   -4.7575121    4967.8432            1 
  103200    1.9996497   -4.7579691    4920.3774       -1e+20 
  103300     1.992086    -4.785102    4934.6237            1 
  103400    1.9984642    -4.801301    4906.8554            1 
  103500    1.9989189   -4.8232325    4894.3147            1 
  103600    2.0053817   -4.8104267    4912.3238            1 
  103700     2.022653   -4.7709157    4943.5089            1 
  103800    1.9921887   -4.8101141    4918.5418            1 
  103900    2.0144611   -4.8224801    4892.0863            1 
  104000    1.9742584   -4.8437724    4917.8193            1 
Loop time of 268.122 on 18 procs for 100000 steps with 4000 atoms

Performance: 64448.367 tau/day, 372.965 timesteps/s
99.6% CPU use with 18 MPI tasks x no OpenMP threads

MPI task timing breakdown:
Section |  min time  |  avg time  |  max time  |%varavg| %total
---------------------------------------------------------------
Pair    | 31.11      | 32.514     | 34.237     |  16.4 | 12.13
Neigh   | 6.1806     | 6.327      | 6.5436     |   3.5 |  2.36
Comm    | 12.566     | 15.4       | 19.432     |  55.2 |  5.74
Output  | 5.7272     | 5.7284     | 5.7433     |   0.2 |  2.14
Modify  | 202.33     | 205.95     | 209.83     |  15.0 | 76.81
Other   |            | 2.206      |            |       |  0.82

Nlocal:        222.222 ave         235 max         209 min
Histogram: 1 1 1 3 2 2 5 2 0 1
Nghost:        2089.39 ave        2104 max        2073 min
Histogram: 1 1 1 1 4 4 2 1 1 2
Neighs:        20641.2 ave       22510 max       18890 min
Histogram: 2 1 1 2 1 5 3 2 0 1
FullNghs:      41282.3 ave       43721 max       38423 min
Histogram: 2 1 0 1 3 3 4 1 2 1

Total # of neighbors = 743082
Ave neighs/atom = 185.77050
Neighbor list builds = 8328
Dangerous builds = 306

#clear
#
#next RN
#
#jump SELF
Total wall time: 0:04:30
