
units lj                  # Use reduced LJ style units
atom_style atomic         # Uncharged point particles
atom_modify map hash      # Needed for indexing of clusters etc
                          # Used to be able to find where atoms are in relation to each other.

# Define a lattice with which to populate the simulation cell. With units
# set to 'lj' the second argument to the lattice command is the reduced
# density rho* and the spacings are multiples of that required to acheive
# that density. Also define a simulation cell called 'box' in lattice units
# and fill it with atoms. Here we're creating a box which is ten lattice
# constants in each direction.
lattice fcc 1.0 spacing 1 1 1                 # All equal sizes - gives the right reduced density.
Lattice spacing in x,y,z = 1.5874011 1.5874011 1.5874011

region box block 0 10 0 10 0 10 units lattice # Defines a region, "box", in lattice units
create_box 1 box                              # Creates a simulation box as specified above,
Created orthogonal box = (0.0000000 0.0000000 0.0000000) to (15.874011 15.874011 15.874011)
  3 by 4 by 4 MPI processor grid
                                              # with one type of atom
create_atoms 1 box                            # Creates particles on lattice points
Created 4000 atoms
  using lattice units in orthogonal box = (0.0000000 0.0000000 0.0000000) to (15.874011 15.874011 15.874011)
  create_atoms CPU = 0.003 seconds


# Set the mass of the first (and only) atom type.
mass 1 1.0

# Lennard-Jones interactions between particles, 3.5 sigma cut-off. Apply
# long range tail corrections to energy and pressure and set all coefficients
# to unity since we work in reduced units here. Note that this doesn't shift
# the potential such that it goes to zero at the cutoff. That would require
# pair_modify('shift', 'yes').
pair_style lj/cut  3.5      # non-GPU version
pair_modify tail  yes
pair_coeff 1  1  1.0  1.0   # Intearaction between 1 and 1 set with epsilon = 1 and sigma = 1

write_data data.*
System init for write_data ...
Neighbor list info ...
  update every 1 steps, delay 10 steps, check yes
  max neighbors/atom: 2000, page size: 100000
  master list distance cutoff = 3.8
  ghost atom cutoff = 3.8
  binsize = 1.9, bins = 9 9 9
  1 neighbor lists, perpetual/occasional/extra = 1 0 0
  (1) pair lj/cut, perpetual
      attributes: half, newton on
      pair build: half/bin/atomonly/newton
      stencil: half/bin/3d
      bin: standard

#############################
#   M E L T   S Y S T E M   #
#############################

velocity all create 2.4 9580093 mom yes dist gaussian # Assign velocities
                                                    # Temperature 2.4, random number seed, zero linear momentum
						                                                        # Gaussian distribution

timestep 0.002   # simulation timestep
thermo 1000       # output thermodynamic data every 1000 steps

# Define a fix  in this case with index 1 applied to all
# particles in the simulation. This fix is for simulations
# in the anisotropic NPT ensemble. Note that we use the MTK
# correction.
fix 1 all npt temp 2.4 2.4 0.1 iso 5.68 5.68 0.5 mtk yes tchain 5 pchain 5 # Use NPT ensemble
                                                                         # Set temperature and pressure and damping
                                                                         # Numbers of thermostats in chain and in barostat
run 1000         # run for 10000 steps
Per MPI rank memory allocation (min/avg/max) = 3.642 | 3.644 | 3.648 Mbytes
Step Temp E_pair E_mol TotEng Press Volume 
       0          2.4   -8.3859253            0   -4.7868253   -2.2405722         4000 
    1000    2.3310961   -4.4126417            0  -0.91687173     5.740376    5176.6007 
Loop time of 0.253816 on 48 procs for 1000 steps with 4000 atoms

Performance: 680807.292 tau/day, 3939.857 timesteps/s
98.9% CPU use with 48 MPI tasks x no OpenMP threads

MPI task timing breakdown:
Section |  min time  |  avg time  |  max time  |%varavg| %total
---------------------------------------------------------------
Pair    | 0.092632   | 0.10141    | 0.1189     |   1.5 | 39.95
Neigh   | 0.018197   | 0.019016   | 0.02199    |   0.6 |  7.49
Comm    | 0.062713   | 0.080987   | 0.09371    |   2.2 | 31.91
Output  | 2.4636e-05 | 2.5296e-05 | 3.2906e-05 |   0.0 |  0.01
Modify  | 0.047216   | 0.050691   | 0.056408   |   1.1 | 19.97
Other   |            | 0.001691   |            |       |  0.67

Nlocal:        83.3333 ave          94 max          75 min
Histogram: 3 1 4 14 9 10 3 2 0 2
Nghost:        1387.96 ave        1410 max        1370 min
Histogram: 7 5 5 3 9 4 1 6 5 3
Neighs:        7369.90 ave        8711 max        6410 min
Histogram: 1 4 8 11 10 6 5 2 0 1

Total # of neighbors = 353755
Ave neighs/atom = 88.438750
Neighbor list builds = 87
Dangerous builds = 20

# Equilibrate just above the melting temperature to avoid step fn in T

fix 1 all npt temp 1.25 1.25 0.1 iso 5.68 5.68 0.5 mtk yes tchain 5 pchain 5
run 1000
Per MPI rank memory allocation (min/avg/max) = 3.642 | 3.644 | 3.648 Mbytes
Step Temp E_pair E_mol TotEng Press Volume 
    1000    2.3310961   -4.4126417            0  -0.91687173     5.740376    5176.6007 
    2000    1.2492981   -5.8103729            0   -3.9368942    5.8537892    4340.8265 
Loop time of 0.225743 on 48 procs for 1000 steps with 4000 atoms

Performance: 765471.690 tau/day, 4429.813 timesteps/s
99.6% CPU use with 48 MPI tasks x no OpenMP threads

MPI task timing breakdown:
Section |  min time  |  avg time  |  max time  |%varavg| %total
---------------------------------------------------------------
Pair    | 0.096136   | 0.1009     | 0.11152    |   1.0 | 44.70
Neigh   | 0.01562    | 0.01625    | 0.017802   |   0.4 |  7.20
Comm    | 0.066886   | 0.079904   | 0.087476   |   1.5 | 35.40
Output  | 2.4026e-05 | 2.4779e-05 | 3.4895e-05 |   0.0 |  0.01
Modify  | 0.022392   | 0.02668    | 0.034553   |   1.9 | 11.82
Other   |            | 0.001986   |            |       |  0.88

Nlocal:        83.3333 ave          91 max          76 min
Histogram: 2 0 5 3 17 6 10 1 2 2
Nghost:        1556.00 ave        1579 max        1538 min
Histogram: 4 6 4 6 8 9 5 3 2 1
Neighs:        8770.42 ave        9624 max        7882 min
Histogram: 2 2 3 6 9 11 6 6 2 1

Total # of neighbors = 420980
Ave neighs/atom = 105.24500
Neighbor list builds = 74
Dangerous builds = 7


# Small amount of linear quench

fix 1 all npt temp 1.25 ${temp} 0.1 iso 5.68 5.68 0.5 mtk yes tchain 5 pchain 5
fix 1 all npt temp 1.25 1 0.1 iso 5.68 5.68 0.5 mtk yes tchain 5 pchain 5
run 2000
Per MPI rank memory allocation (min/avg/max) = 3.643 | 3.645 | 3.648 Mbytes
Step Temp E_pair E_mol TotEng Press Volume 
    2000    1.2492981   -5.8103729            0   -3.9368942    5.8537892    4340.8265 
    3000    1.1266367   -6.0397962            0   -4.3502636     5.671862    4252.5129 
    4000   0.98723797   -6.2207088            0   -4.7402221    5.6744066    4170.6386 
Loop time of 0.463874 on 48 procs for 2000 steps with 4000 atoms

Performance: 745029.205 tau/day, 4311.512 timesteps/s
99.6% CPU use with 48 MPI tasks x no OpenMP threads

MPI task timing breakdown:
Section |  min time  |  avg time  |  max time  |%varavg| %total
---------------------------------------------------------------
Pair    | 0.19948    | 0.21656    | 0.25228    |   2.3 | 46.69
Neigh   | 0.027796   | 0.029235   | 0.034351   |   0.8 |  6.30
Comm    | 0.12749    | 0.1664     | 0.18311    |   3.1 | 35.87
Output  | 4.7197e-05 | 4.8412e-05 | 6.1232e-05 |   0.0 |  0.01
Modify  | 0.040336   | 0.046944   | 0.052632   |   1.7 | 10.12
Other   |            | 0.004684   |            |       |  1.01

Nlocal:        83.3333 ave          90 max          77 min
Histogram: 3 4 4 7 4 8 10 3 3 2
Nghost:        1594.08 ave        1614 max        1574 min
Histogram: 2 4 3 8 8 5 5 5 6 2
Neighs:        9118.27 ave        9847 max        8409 min
Histogram: 3 5 6 2 7 10 4 4 4 3

Total # of neighbors = 437677
Ave neighs/atom = 109.41925
Neighbor list builds = 128
Dangerous builds = 0

#############################
# F R E E Z E  S Y S T E M  #
#############################

# Define solid atoms. This closely follows ten Wolde  Ruiz-Montero and Frenkel  Faraday Discuss  1996  104  93-110
# Compute components of the per-atom q6 vector
compute q6 all orientorder/atom degrees 1 6 components 6 nnn NULL cutoff 1.3 # compute the Q6 parameter.
                                                                             # Use all neighbours within 1.3 unit cell.

# get number of connections
compute coord_number all coord/atom orientorder q6 0.5

# An atom is solid if it has 8 or more connections (of a possible 14)
variable is_solid atom c_coord_number>=8
group solid dynamic all var is_solid    # Must be dynamic to update
dynamic group solid defined

# do clustering
compute cluster solid cluster/atom 1.3 # Create a cluster where all atoms within are solid and max 1.3 units from another member

# define chunks one chunk per cluster
compute clus_chunks solid chunk/atom c_cluster nchunk every compress yes  # Says which atoms are in which chunk

# count the size of each chunk
compute size_chunks solid property/chunk clus_chunks count


# Find the maximum entry in the vector of chunk sizes
variable max_n equal max(c_size_chunks)


# Thermo style which includes this variable
thermo_style custom step temp pe vol v_max_n

thermo ${N}  # Print the thermo information every 100 steps
thermo 1000  

# Reset the npt fix at a lower temperature (below freezing)
fix 1  all npt temp  ${temp} ${temp}  0.1  iso  5.68  5.68  0.5  mtk yes tchain  5  pchain  5
fix 1  all npt temp  1 ${temp}  0.1  iso  5.68  5.68  0.5  mtk yes tchain  5  pchain  5
fix 1  all npt temp  1 1  0.1  iso  5.68  5.68  0.5  mtk yes tchain  5  pchain  5

dump dmp2 all dcd ${N} traj_${rand}.dcd
dump dmp2 all dcd 1000 traj_${rand}.dcd
dump dmp2 all dcd 1000 traj_462431.dcd


# fix rnuntil all halt ${N} v_max_n >= 3980 error soft message no   # Stop when solidified


run 1000000 # 5000000  # Run for this many steps
Neighbor list info ...
  update every 1 steps, delay 10 steps, check yes
  max neighbors/atom: 2000, page size: 100000
  master list distance cutoff = 3.8
  ghost atom cutoff = 3.8
  binsize = 1.9, bins = 9 9 9
  4 neighbor lists, perpetual/occasional/extra = 1 3 0
  (1) pair lj/cut, perpetual
      attributes: half, newton on
      pair build: half/bin/atomonly/newton
      stencil: half/bin/3d
      bin: standard
  (2) compute orientorder/atom, occasional
      attributes: full, newton on
      pair build: full/bin/atomonly
      stencil: full/bin/3d
      bin: standard
  (3) compute coord/atom, occasional
      attributes: full, newton on
      pair build: full/bin/atomonly
      stencil: full/bin/3d
      bin: standard
  (4) compute cluster/atom, occasional
      attributes: full, newton on
      pair build: full/bin/atomonly
      stencil: full/bin/3d
      bin: standard
Per MPI rank memory allocation (min/avg/max) = 9.364 | 9.368 | 9.376 Mbytes
Step Temp PotEng Volume v_max_n 
    4000   0.98723797   -6.2207088    4170.6386            5 
    5000    1.0082339   -6.2675617    4157.1512           19 
    6000    1.0039729   -6.3075514    4146.7804           10 
    7000   0.96816745   -6.2913392    4144.4857            8 
    8000    1.0256851    -6.262917    4161.9128            6 
    9000    0.9927918   -6.2714611    4150.5975            7 
   10000    1.0194982    -6.273557    4155.7827           13 
   11000   0.97442493   -6.2528451    4175.1903            6 
   12000   0.98811178   -6.2540822    4163.0793            8 
   13000    1.0225031   -6.2989488    4157.0761            3 
   14000   0.98988767   -6.2576085    4142.0968            5 
   15000    1.0070759   -6.2829016     4149.594            4 
   16000    1.0087913   -6.2811843    4145.4356            3 
   17000   0.99106998   -6.2785523    4163.1933            2 
   18000   0.98317991   -6.2658963    4163.6727            7 
   19000    1.0028571   -6.2840744    4139.3401            7 
   20000   0.97687276   -6.3172708    4132.5033            5 
   21000    1.0093301   -6.2483837    4154.9908            7 
   22000    1.0243986   -6.3194195    4147.3226           15 
   23000      1.00636   -6.2835498    4145.0111           13 
   24000    1.0089783   -6.2868972    4146.2714            3 
   25000   0.98971413   -6.2461556    4177.9674            7 
   26000    1.0039411   -6.2605495    4150.7906            7 
   27000   0.98559615    -6.265061    4165.9388           17 
   28000    1.0054889   -6.2710676     4160.059           10 
   29000    1.0120303   -6.2304216      4141.75            6 
   30000     1.004167   -6.2602833    4161.5259            9 
   31000    1.0020519   -6.2824308    4153.8141            4 
   32000   0.98675263   -6.2879825    4148.8955            7 
   33000    1.0147202   -6.2391062    4145.0714            5 
   34000   0.98085244   -6.2375185     4158.351            5 
   35000   0.99520285    -6.276665    4146.3821            8 
   36000    1.0111206   -6.2883391    4146.3778            6 
   37000    1.0307239   -6.2655257     4152.457            4 
   38000   0.99333266   -6.2838329    4152.7298            7 
   39000   0.99590737   -6.2464697    4162.1925            8 
   40000   0.97393245   -6.2500643    4173.4073            8 
   41000   0.99490911   -6.2632916    4151.9611            4 
   42000    1.0009479   -6.2517967    4145.5005            6 
   43000   0.99700276   -6.2825882     4140.763           10 
   44000   0.99255072   -6.2576239    4146.1419           13 
   45000     1.009618   -6.2792471    4157.1269            3 
   46000    1.0058537   -6.2524848    4157.7242            4 
   47000   0.98991223   -6.2687561    4165.1912            3 
   48000   0.98015835   -6.2564959    4152.9845            3 
   49000   0.99977129   -6.2642096    4140.9158            6 
   50000    1.0041002   -6.2514303    4155.7993            4 
   51000     1.009427   -6.3331915    4145.3641            4 
   52000    1.0153889   -6.2680988    4156.8124            8 
   53000   0.99117739   -6.2759845    4141.5886            7 
   54000    1.0029426   -6.2586333    4139.8591            8 
   55000   0.99594268   -6.2866001    4137.9362           10 
   56000    1.0094332   -6.3141473    4148.2972           10 
   57000   0.98563947   -6.2990269    4149.3618            5 
   58000   0.98612139   -6.2900627    4160.5854           10 
   59000   0.99820351    -6.272911    4155.4532            7 
   60000    1.0121493   -6.2659574    4147.8905            6 
   61000   0.98792761   -6.2628756    4153.3298           14 
   62000   0.97984259   -6.2719978    4154.8781           10 
   63000    0.9862231    -6.274412    4151.8038           12 
   64000    0.9933912   -6.2902883    4154.8744            2 
   65000      1.01587   -6.2827034    4147.6371            6 
   66000   0.97318825   -6.2329187    4142.7874            9 
   67000    1.0197239   -6.2847247    4151.2231           11 
   68000    0.9814334    -6.250522    4153.7298           15 
   69000    1.0070633   -6.2712438     4158.532           15 
   70000    1.0014573   -6.2544198    4158.9875            6 
   71000   0.99757374   -6.2603258    4163.2099           12 
   72000   0.99873841   -6.3140743    4147.2136            7 
   73000   0.98962682   -6.2175532    4163.8052            7 
   74000   0.98998259   -6.2579663    4164.8916           11 
   75000   0.99807533    -6.247572    4155.3671            7 
   76000    1.0122749   -6.2876877    4131.4139           10 
   77000   0.99699952   -6.3104326    4139.4404           11 
   78000   0.97530686   -6.2507206     4146.968            6 
   79000    1.0050568   -6.2490649    4164.1012            5 
   80000    1.0073555   -6.2539325    4150.6957            7 
   81000   0.98176095   -6.2958381    4154.4399            6 
   82000   0.99971605   -6.2672751    4139.6591           10 
   83000   0.99666847   -6.2606586     4141.428            4 
   84000    1.0215753   -6.2852433    4157.4492            6 
   85000    1.0308019   -6.2740264     4161.857            6 
   86000   0.99766417   -6.2904995    4139.0928            7 
   87000    1.0041064   -6.2910949    4157.9852            6 
   88000    1.0049279   -6.2524142    4159.1976           10 
   89000    1.0010696   -6.2870979    4145.8433           12 
   90000    1.0095752   -6.2619809     4149.239            8 
   91000    1.0129034   -6.2621003      4147.16            5 
   92000   0.98907053   -6.2674896    4140.1545            4 
   93000    1.0051331   -6.2533397    4152.7478           11 
   94000   0.99809672   -6.2691363    4141.4851            6 
   95000    1.0142887   -6.2675246    4149.6497            6 
   96000   0.98695403   -6.2642204    4152.9829            7 
   97000    1.0050467   -6.2662523    4143.2914            5 
   98000   0.98297592   -6.2655246    4147.6479            7 
   99000   0.98410392     -6.28607    4147.9829            8 
  100000   0.99547086   -6.2724474    4148.1833            8 
  101000    1.0042113   -6.2408562    4167.3158           13 
  102000   0.98783928   -6.3026791    4153.7095            5 
  103000    1.0058089    -6.200293    4149.5168            6 
  104000    1.0065188   -6.2693955    4157.7861           14 
  105000    1.0058646    -6.264463    4142.0397            5 
  106000   0.97265461   -6.2505238     4170.649            5 
  107000    1.0079587   -6.2628098    4155.6669            4 
  108000    1.0167618   -6.2944345    4141.7248            7 
  109000    1.0093687   -6.2591417    4174.6738           12 
  110000    1.0180027   -6.2544672    4149.2135            4 
  111000    1.0111621   -6.2776018    4141.7632            3 
  112000    1.0039913    -6.247439    4154.8877            6 
  113000    1.0318237   -6.2850346    4147.6414            6 
  114000    1.0065145   -6.2578936    4147.8035            3 
  115000   0.99986867   -6.2717809    4157.3733            4 
  116000    1.0068737   -6.2761191    4135.4114           11 
  117000    0.9842956   -6.2914995    4137.5687            6 
  118000    1.0254372   -6.3018457    4163.9165           10 
  119000    1.0001869   -6.2771274    4136.1899            9 
  120000   0.97658048   -6.2775993     4148.123            5 
  121000   0.99283454   -6.2586578    4144.8609            6 
  122000   0.98244452   -6.2671335    4131.7269            7 
  123000   0.99408237   -6.3043491    4153.1762           11 
  124000   0.99942087   -6.2843703    4161.8253            7 
  125000   0.98849605   -6.2721783    4167.3957            5 
  126000    1.0028174   -6.2945822    4157.4965            7 
  127000   0.98665685   -6.2888222    4154.3237            8 
  128000    1.0092755   -6.2697612    4156.7028           16 
  129000    0.9995513   -6.2596374    4150.0631           21 
  130000   0.99643164   -6.2887204    4149.1005           10 
  131000   0.98368683   -6.2609671    4143.7767            5 
  132000   0.98532181   -6.2596978    4148.7328           10 
  133000     1.007338   -6.2846441    4146.9657            7 
  134000   0.99613849   -6.2998542    4160.8196            2 
  135000    1.0126248   -6.2926144    4139.2451            5 
  136000    1.0299035   -6.2664629    4149.9509            9 
  137000   0.99556804   -6.2903231     4147.892           21 
  138000   0.99744079   -6.2756389     4144.001            3 
  139000    1.0101325   -6.2751659    4153.0451            4 
  140000   0.99295802   -6.2327721    4172.5407            4 
  141000     1.004698   -6.2788918    4148.9357            5 
  142000    1.0239989   -6.2547711    4153.8841            7 
  143000     1.023997   -6.2672992    4166.6367            3 
  144000   0.99401227   -6.2568413    4157.1463            5 
  145000   0.99461156   -6.2361216    4147.8923            5 
  146000   0.99373726   -6.2787761    4153.8679            4 
  147000    1.0067487   -6.3072661    4139.6592            9 
  148000    1.0029188   -6.2496379    4155.4852            6 
  149000    1.0226568    -6.260771    4136.8998            6 
  150000    1.0099898   -6.2719054    4173.0632            6 
  151000     1.013704   -6.2844997    4134.8911           13 
  152000    0.9859055   -6.2636021     4150.007            7 
  153000   0.99039296   -6.2675008    4143.8422            8 
  154000   0.99655493   -6.2683072    4164.9463            6 
  155000   0.99102562   -6.2961485    4160.4109            6 
  156000   0.99610434   -6.2613882    4174.7653            4 
  157000   0.99884541   -6.2552549    4170.2708            5 
  158000   0.98430322    -6.248503    4160.5113            8 
  159000   0.99672039   -6.2815611    4147.8253            7 
  160000   0.95877992   -6.3013653    4149.3368            8 
  161000    1.0002091   -6.3012717    4152.8848            7 
  162000   0.99299891   -6.2829183    4155.1858            5 
  163000    1.0046493   -6.2764904    4135.5763            5 
  164000    1.0038854   -6.2856171    4153.1939            9 
  165000    1.0003482   -6.2922682    4147.6913            7 
  166000   0.99999245   -6.2576447     4163.031            9 
  167000    1.0020217   -6.2750625    4147.9418            9 
  168000    1.0093812   -6.2721628    4152.7676            7 
  169000    1.0151505   -6.2458351     4151.656            5 
  170000    1.0244072   -6.2640921    4168.8804            5 
  171000   0.98835179    -6.264411    4151.3378            6 
  172000     1.001542   -6.2605221    4165.5999            8 
  173000   0.99942347   -6.2788786    4149.4107           10 
  174000    1.0212543   -6.2570338    4151.8508            6 
  175000    1.0031062    -6.283519    4140.1747            7 
  176000   0.99719008   -6.2733088    4147.3844            4 
  177000   0.98272496   -6.2853097    4128.0338            9 
  178000   0.99353921   -6.3002158    4142.9444            8 
  179000    1.0076433   -6.2941645    4158.1531            8 
  180000     1.008498   -6.2781247    4141.4534            8 
  181000   0.99564019   -6.2770534    4133.0993            4 
  182000    0.9972361   -6.2633691    4155.1091           14 
  183000    0.9934665    -6.294118    4156.4927            7 
  184000   0.98787923   -6.2739798    4136.3687            6 
  185000   0.99814088   -6.2414895    4143.8024            4 
  186000    1.0180881   -6.2818609     4149.054           16 
  187000    0.9930024   -6.2717694    4136.7496            5 
  188000    1.0102398   -6.2598103    4150.8175            6 
  189000   0.98425475   -6.2585505    4150.7053            4 
  190000    1.0151037   -6.2754173    4157.1965            5 
  191000     1.001934   -6.2784566    4157.7218            8 
  192000   0.99762323   -6.3000466    4146.7699           12 
  193000    1.0137777   -6.2596632    4155.6242            5 
  194000   0.98748651   -6.2841162    4137.6414            5 
  195000    1.0128777   -6.2908613    4139.7951            6 
  196000    1.0026354   -6.2527255    4158.2986            7 
  197000   0.98768169   -6.2561528    4152.7043            6 
  198000    1.0100695   -6.2938716    4164.8644           11 
  199000    1.0040326   -6.2508771    4153.8717            6 
  200000    1.0110154   -6.2410938    4157.1141            4 
  201000    1.0157749   -6.2686165    4140.7224           12 
  202000    1.0035064   -6.2460504    4153.9479           13 
  203000    0.9985626   -6.2709985    4151.2814            6 
  204000    1.0089436   -6.2758955    4143.2562           10 
  205000    1.0128203   -6.2396664     4154.931            6 
  206000   0.98344739   -6.2630009    4143.1918           10 
  207000    1.0172534   -6.2584073    4149.2774            6 
  208000   0.97982528   -6.2965432    4149.5627            6 
  209000    1.0063559   -6.2639123    4148.7998            5 
  210000    1.0210501   -6.2854896     4143.077            8 
  211000   0.98623322   -6.2962049    4153.7303            9 
  212000    1.0004423   -6.2840328    4138.7942            7 
  213000    1.0089896   -6.2488169     4149.432            5 
  214000    1.0106313   -6.2523924    4142.7132           12 
  215000   0.96649705   -6.2816667    4141.7841            4 
  216000   0.99225563   -6.2364043    4169.1074            6 
  217000    1.0246674   -6.2585328    4162.1982            4 
  218000     1.000794   -6.2688072    4162.4598            4 
  219000    1.0082477    -6.275673    4145.1859           10 
  220000   0.99859024   -6.2759946    4135.0677            6 
  221000   0.99836904   -6.2508162    4174.8098            8 
  222000    1.0007491   -6.2890117    4152.4089            7 
  223000   0.99867648   -6.2669526     4137.812           20 
  224000    1.0008531   -6.2678723    4163.8175            8 
  225000    1.0090671   -6.2112908    4168.1406            3 
  226000   0.98835759    -6.268552    4138.6524            6 
  227000   0.98768214   -6.2534827    4150.8037            8 
  228000   0.98696107   -6.2932642    4154.1552            3 
  229000     1.000301   -6.2775997    4148.9374            5 
  230000    1.0031997   -6.2475924    4167.1457           19 
  231000   0.97785397   -6.3077034    4147.9363            6 
  232000   0.96809534   -6.2843614    4158.1159            7 
  233000    1.0000951   -6.2726793     4170.787           10 
  234000    1.0081039   -6.2863834    4135.3624            5 
  235000   0.99101056   -6.2734282    4148.2294            6 
  236000   0.99621129   -6.2571037    4140.7128            8 
  237000    1.0130141    -6.276222    4155.1712            8 
  238000    1.0167992   -6.2718696    4147.8133            6 
  239000    0.9970091   -6.2918294    4150.9376            7 
  240000    1.0146836   -6.2833355    4139.3912            9 
  241000   0.99249654   -6.3014571     4136.404            5 
  242000    1.0066642   -6.2667714    4141.1512            4 
  243000   0.97184224   -6.2716945    4170.6706            4 
  244000   0.99154083   -6.2216865    4164.0422            6 
  245000    1.0054873    -6.257802    4156.3554            4 
  246000   0.97632992   -6.2863514    4161.5846            5 
  247000    1.0072675   -6.2843156    4161.7115            7 
  248000   0.98642629   -6.2458695    4159.5575            3 
  249000   0.98476972   -6.2670716     4139.552            6 
  250000    1.0161555   -6.2531174    4157.7733            7 
  251000   0.99023018   -6.2970755    4159.4715            4 
  252000    1.0026325   -6.2761356    4149.1704            3 
  253000    0.9982765   -6.2289193    4162.2852            4 
  254000   0.98845548   -6.2666078    4168.4745           10 
  255000   0.98751955     -6.23057    4158.9899           11 
  256000   0.99428539    -6.251805     4150.254            3 
  257000    1.0321227   -6.2672512    4166.7519            4 
  258000     1.014041   -6.2485325    4138.6534            5 
  259000   0.98871764   -6.2440717    4159.5182            9 
  260000      1.00179   -6.2736494    4159.8621            7 
  261000    1.0072858   -6.2880751    4154.2627            4 
  262000    1.0188391   -6.2415328    4150.1654            4 
  263000    1.0110324   -6.2855387     4159.532           10 
  264000    1.0005622   -6.2386546    4162.6592           12 
  265000      1.00388   -6.2682482    4154.8066            4 
  266000   0.96346854   -6.2782907    4145.6307            6 
  267000    1.0062708   -6.2868321    4133.3543            5 
  268000      1.00949   -6.2698795    4144.8872            6 
  269000    1.0188659   -6.2739187    4159.2038            8 
  270000     1.008643   -6.2619748    4142.1738            9 
  271000    1.0101109   -6.2517095    4141.7199            8 
  272000    1.0038612   -6.2757142    4141.6109            5 
  273000   0.98548203   -6.2565459    4141.3811            8 
  274000    1.0099471   -6.2744399    4142.1487            9 
  275000   0.99134241   -6.2731618    4137.0926           12 
  276000    0.9754481   -6.2671594    4145.4396            9 
  277000    1.0055741   -6.2685785    4157.4987            6 
  278000   0.99592804   -6.2393298    4146.4048           16 
  279000    1.0085569   -6.2694979    4149.5623            9 
  280000     1.005721   -6.2420897    4156.9474            3 
  281000    1.0095638   -6.2501333    4144.6731            6 
  282000     1.020238   -6.2812878      4151.76           12 
  283000     1.008606   -6.2638643    4176.9978            4 
  284000    1.0042087   -6.2891127    4145.5922            4 
  285000   0.98289844   -6.3033839    4151.7243           17 
  286000   0.99327769   -6.2687284    4151.2887            7 
  287000     1.016457   -6.2469252    4153.4915            5 
  288000   0.98525182   -6.2929671    4148.0557           14 
  289000    0.9928774   -6.2905067    4165.7166            5 
  290000    1.0138121   -6.2284813    4159.0371            2 
  291000     1.009099   -6.3197251    4145.7256           15 
  292000    1.0042928   -6.2696095    4162.8735           12 
  293000    1.0103539    -6.274542    4163.8438            9 
  294000   0.99766489   -6.2475589    4152.0162           10 
  295000    1.0267818   -6.2457242    4168.8892            5 
  296000    1.0025521   -6.2501083    4161.7084            4 
  297000    1.0000399   -6.2672669     4153.308           11 
  298000   0.99074651   -6.3102094    4155.2715            6 
  299000    1.0088017   -6.2662519     4162.997            5 
  300000    1.0148417   -6.2863941    4133.0981            6 
  301000    1.0043585   -6.2676297    4159.5571           13 
  302000   0.99697154    -6.258875     4148.755            4 
  303000   0.99279515   -6.2583208     4143.765           10 
  304000   0.99812537   -6.2402813    4164.6028            4 
  305000   0.97871221   -6.2672208    4174.7822            8 
  306000    1.0009947   -6.2433514    4155.5416            9 
  307000   0.98045923   -6.2683534    4154.8787            5 
  308000    1.0035279   -6.3027219    4145.9072            5 
  309000    1.0147332   -6.2701962    4138.8849           12 
  310000   0.99786713    -6.263361    4164.7937            5 
  311000    1.0114344   -6.2870942    4158.0552            4 
  312000   0.99032122   -6.2551019    4152.2392            3 
  313000    0.9869547   -6.2839423    4138.0612           13 
  314000   0.97925135   -6.2615109    4156.6543            7 
  315000   0.98529242      -6.2662    4148.2334            8 
  316000   0.98400007   -6.2771371    4152.2063            5 
  317000    1.0034613   -6.2673444    4156.1711           14 
  318000   0.98155362   -6.2812274    4164.9647           10 
  319000    1.0063964   -6.2633333    4149.5806            5 
  320000    1.0083859   -6.2904977    4153.6557           13 
  321000   0.96723654   -6.2916247    4145.9888            6 
  322000   0.99480992   -6.2934522    4164.0944            7 
  323000   0.99293684   -6.2330353    4159.6211            5 
  324000    1.0132809   -6.2747877    4159.8413            4 
  325000    1.0165247   -6.2563792    4172.0439            5 
  326000    1.0241008   -6.2796032    4159.5027            5 
  327000   0.98508424   -6.2499989    4138.9632           10 
  328000    1.0090073   -6.2229495    4170.3202            5 
  329000     1.005917   -6.2622514    4138.0902            8 
  330000   0.98842204   -6.2343667    4154.8062            4 
  331000   0.99163242   -6.2788031    4149.4609            6 
  332000    1.0143887   -6.2226886    4156.1757            8 
  333000    0.9665739   -6.2726439    4146.8062            4 
  334000   0.98967558    -6.270514    4137.0834            4 
  335000    1.0123016   -6.2714928    4141.2312           10 
  336000    1.0178349   -6.2607437    4153.6468            4 
  337000    1.0072394   -6.3042531    4152.3889            6 
  338000   0.98697721   -6.2557713    4153.4999            6 
  339000    1.0004128   -6.2775587    4157.7464           11 
  340000   0.98982989   -6.3037147    4146.5057            9 
  341000   0.99607822   -6.2495505    4144.4841           11 
  342000    0.9867718   -6.2936346    4173.7113            7 
  343000    1.0002587   -6.2346767    4156.5211            6 
  344000   0.99829145   -6.2738666    4145.2311            4 
  345000    1.0017263   -6.2951919    4146.5677            9 
  346000   0.98481373   -6.2567203    4149.2135            9 
  347000   0.98545377     -6.23647    4167.8681            5 
  348000    1.0166933   -6.2359222    4155.8752           10 
  349000    1.0206415   -6.2301161     4159.424            2 
  350000    1.0117584   -6.2759339    4162.5577            7 
  351000   0.98303951   -6.2588263    4156.6336           10 
  352000    1.0090033   -6.2310897    4157.1464           10 
  353000   0.97909677   -6.2325384    4160.7872            6 
  354000    1.0032751   -6.2342157    4166.5284           10 
  355000    1.0042298   -6.2474679    4151.4435            4 
  356000    1.0049361   -6.2709751    4173.0208            5 
  357000    1.0317131   -6.2591729     4159.272            6 
  358000      1.00363   -6.2831976    4147.4471           10 
  359000   0.99800371    -6.280567    4135.8313            5 
  360000   0.98657812   -6.2674757    4159.1985            4 
  361000    1.0056948   -6.2580443    4140.6069            5 
  362000   0.99483105   -6.2376734    4145.8744            6 
  363000    0.9940312   -6.2751933    4139.1643            6 
  364000   0.99675996   -6.2513717    4166.7778            5 
  365000    1.0084961   -6.2662932    4157.6386            3 
  366000   0.99632535   -6.2496858     4147.978           14 
  367000   0.99006722   -6.2580387    4156.9722            8 
  368000   0.99737466   -6.2442721    4151.9728            4 
  369000   0.98770939   -6.2545585    4166.3321            8 
  370000    1.0156906   -6.2622492    4146.4168            9 
  371000    1.0137352   -6.2631237    4147.9794           11 
  372000   0.99187434   -6.2691361    4151.0069            8 
  373000   0.98655922   -6.3049854    4138.2542            4 
  374000   0.99108828   -6.2943211    4149.5286           12 
  375000     1.002134   -6.2823648    4141.4858            8 
  376000   0.99680894   -6.2928777    4140.8793           18 
  377000    1.0128809   -6.2670373    4160.6384            8 
  378000   0.99416322   -6.2830822    4158.9082            7 
  379000    1.0072911   -6.2816278    4146.0323           17 
  380000   0.99646078   -6.2497716    4168.0131            6 
  381000   0.98423664   -6.2336365     4154.675            6 
  382000   0.99500014   -6.2521952      4139.89            7 
  383000    1.0179315    -6.261337    4169.9968            3 
  384000   0.99795192   -6.2763816    4139.2905            4 
  385000    1.0095055   -6.2689022    4159.5182            7 
  386000   0.98385514   -6.2544367    4154.0448            4 
  387000    1.0131615   -6.3054832     4166.104            7 
  388000    1.0029213   -6.2714583    4147.4771            8 
  389000    1.0028497   -6.2652403    4157.2975           10 
  390000    1.0148904   -6.2613692    4161.5331            7 
  391000    1.0050262    -6.253355    4157.5931            5 
  392000    1.0170016   -6.2717081    4160.5296            5 
  393000    1.0213028   -6.2788094    4140.6148            8 
  394000     0.988943   -6.2807574     4146.743            7 
  395000   0.99826687   -6.2388714    4155.7717            8 
  396000   0.98834319   -6.2821507    4145.5942            8 
  397000    1.0035354   -6.2669196    4150.6569            5 
  398000    0.9841348   -6.3002322    4147.6772            6 
  399000    0.9866879   -6.2736239     4158.392            7 
  400000    1.0015377   -6.2822169    4147.0442           11 
  401000   0.97085312   -6.2685368     4133.406           12 
  402000    1.0165681   -6.2624641    4167.3706            8 
  403000    1.0191217   -6.2852488    4161.2438            3 
  404000    1.0036379   -6.2731314    4151.4763           10 
  405000   0.98418063   -6.2597839     4153.243           14 
  406000   0.99848475    -6.273024    4167.9076            7 
  407000    0.9965779   -6.2659541    4147.4696            4 
  408000    0.9864034   -6.2824239    4169.0207            4 
  409000   0.96519307   -6.2405965    4177.1209           16 
  410000    1.0394463   -6.2862142    4144.5838           10 
  411000    1.0257871   -6.2542554    4165.6176            7 
  412000    1.0121394   -6.2989073     4169.249           11 
  413000   0.97372831   -6.2654984    4153.6611            7 
  414000    1.0017069   -6.2932986    4131.1043            8 
  415000    1.0050959   -6.2512644    4168.3061            6 
  416000    1.0082527   -6.2315472    4163.8055            7 
  417000    1.0046897   -6.2734525    4173.0457            7 
  418000    1.0188819    -6.259918    4148.9321            5 
  419000    0.9803225   -6.2635612    4141.7787           11 
  420000   0.99792026   -6.2562945    4160.6873            3 
  421000   0.98833301   -6.2398498    4171.8301           14 
  422000   0.99948951   -6.2825273    4141.6563            5 
  423000   0.97676154   -6.2909241    4154.3122            3 
  424000    1.0318019   -6.2791909    4158.4253            6 
  425000   0.96564247   -6.2612863    4171.3537            3 
  426000   0.98233584   -6.2633186    4141.5799            4 
  427000   0.96776241   -6.2681781    4138.2372            7 
  428000    1.0029353    -6.252599     4156.963           10 
  429000    1.0022065   -6.2405062    4162.4249           10 
  430000   0.99761492   -6.2545607    4156.0913            9 
  431000    1.0001565   -6.2754481    4165.1073           10 
  432000   0.98695981   -6.2336137    4160.9177            4 
  433000   0.99428908   -6.2670841    4165.7429            7 
  434000   0.96548879   -6.2459675    4141.6683            6 
  435000   0.99673074   -6.2707255    4153.9775            6 
  436000   0.98735807   -6.2578514    4168.8415            8 
  437000   0.98137834   -6.2590748    4165.0518            3 
  438000   0.98065164   -6.2736468    4155.2367            3 
  439000    1.0079022   -6.2942484    4149.4639            6 
  440000    1.0126807   -6.2518659     4150.007            8 
  441000    1.0067603   -6.2418076     4152.493            4 
  442000   0.97939665   -6.2598444    4145.8176            8 
  443000   0.96553361   -6.2706741    4160.2911            8 
  444000    1.0039579    -6.251036    4138.5717            6 
  445000   0.99083026   -6.2972209    4154.4439            3 
  446000   0.98299063   -6.2778607    4136.4855            9 
  447000    1.0211191   -6.2990542    4150.8719            5 
  448000   0.99597245   -6.2400804    4151.4325            7 
  449000   0.99264374   -6.2786658    4142.6145            4 
  450000   0.99848872   -6.2714882    4148.2311            7 
  451000    1.0133776   -6.2477699    4167.0693           10 
  452000    1.0019177   -6.2914548    4145.3825            6 
  453000     0.998314   -6.2643775    4151.9634            7 
  454000    1.0166017   -6.2613274    4152.1902            8 
  455000   0.99503882   -6.2803067    4147.3456            5 
  456000   0.99204733   -6.2737304    4131.4533            5 
  457000   0.98877623   -6.2927019    4144.3423           10 
  458000   0.99003542   -6.2600891    4153.5521           12 
  459000   0.99476724   -6.2837323    4145.0359           17 
  460000    1.0098745   -6.2694154    4158.4148            4 
  461000   0.99207283   -6.2919862    4165.6437            5 
  462000    1.0148068   -6.2641909    4167.7775            5 
  463000    1.0070712   -6.2664436    4156.2654            5 
  464000     0.989692   -6.2687308    4160.6322           13 
  465000    1.0189558   -6.2742917    4142.8256           11 
  466000   0.99354969   -6.3110613    4147.1379           15 
  467000   0.98884764    -6.284551    4158.8826            7 
  468000    1.0061766   -6.2963294    4147.7671           20 
  469000   0.99607566   -6.2851897    4158.1214            5 
  470000    1.0136021     -6.26413    4163.2389            6 
  471000    0.9882858   -6.2596362    4165.7982            2 
  472000   0.99909253   -6.2635633    4169.1444            9 
  473000    1.0196304   -6.2585937     4157.265            5 
  474000   0.97846443   -6.2426625    4169.6266            8 
  475000   0.97705721   -6.3004867     4162.348            6 
  476000   0.99291301   -6.2691164     4154.113            8 
  477000    1.0067882    -6.269006    4161.0974            3 
  478000    1.0015049   -6.2456585    4159.2071            2 
  479000    1.0017132    -6.252901    4152.0766            6 
  480000    1.0168824   -6.2851298    4153.0912            7 
  481000   0.99669067   -6.2758006    4146.1833           12 
  482000    1.0043747   -6.2870846    4155.8935            5 
  483000    1.0034163   -6.2713984    4146.5635            8 
  484000    1.0307505   -6.2696486    4160.7556            7 
  485000     1.004283   -6.2764062    4165.5882            6 
  486000    1.0096324   -6.2805448    4150.0418            9 
  487000     1.002158   -6.2924103    4160.5341           10 
  488000   0.97658555   -6.2779551    4143.6045            9 
  489000    1.0133656   -6.2972096    4147.1665            5 
  490000   0.99761708   -6.2807501    4162.6708           17 
  491000   0.99542262   -6.2665196    4156.9127            7 
  492000    1.0208913   -6.2504229    4164.0866            9 
  493000    1.0236495   -6.2653835     4139.287            8 
  494000   0.99826598   -6.2603307    4157.2068            9 
  495000   0.99042014    -6.280941    4155.2247            8 
  496000    1.0140501   -6.2510689     4157.454            2 
  497000    1.0240923   -6.2568726    4145.6546            6 
  498000     1.006673   -6.2688007    4123.7759            6 
  499000    1.0168644   -6.2749225    4173.7646            6 
  500000    1.0074106   -6.2777188    4149.3646            6 
  501000   0.97014473   -6.3024888    4159.8751           14 
  502000    1.0056481   -6.2497653    4149.9832            7 
  503000    1.0121731   -6.2738516    4152.2587           12 
  504000   0.99116701   -6.2890518    4140.2216           10 
  505000     1.021041   -6.2510836    4149.3048            5 
  506000   0.99456892   -6.2579094     4160.623           11 
  507000    1.0074983   -6.2900997    4133.8937           17 
  508000   0.99845963   -6.2945396    4148.5013           16 
  509000   0.97873249   -6.2708704    4160.1591            6 
  510000    1.0121969   -6.2569171    4160.5366           10 
  511000    1.0097899   -6.2810836    4146.2896            6 
  512000    1.0078178   -6.2561737    4165.4181            8 
  513000   0.99344874   -6.2326868    4159.2197            5 
  514000   0.99523727   -6.2606838    4165.9932            4 
  515000   0.99536696   -6.2792618    4157.5294            3 
  516000   0.98853981   -6.2623468    4151.8594           13 
  517000    1.0104311   -6.2501193    4160.2315            4 
  518000    1.0077094   -6.2862731    4155.6016           13 
  519000    1.0007872   -6.2589885    4151.4261            8 
  520000    1.0055624   -6.2960149    4132.7795           10 
  521000    1.0076039     -6.27438    4144.2304            8 
  522000   0.99926482   -6.2876772    4142.2488            8 
  523000    1.0385601   -6.2842129    4150.5044            3 
  524000   0.99269395   -6.2576407    4152.6177            5 
  525000   0.98249357   -6.2859963    4148.4923           11 
  526000    1.0044179   -6.2760251    4155.2126            7 
  527000     1.014662   -6.2701139    4154.9668            8 
  528000    1.0188475    -6.246981    4155.4448            5 
  529000    1.0198284   -6.2368739    4169.3026            4 
  530000   0.99763085   -6.2793586    4160.2053            4 
  531000   0.99237241   -6.2954974    4156.2505            8 
  532000    1.0174953   -6.2873777    4159.4571            7 
  533000    1.0185122   -6.2405493    4175.8423           10 
  534000    1.0000078   -6.2678333    4136.5426            4 
  535000   0.99133889   -6.2412872    4167.8258            9 
  536000    1.0056196   -6.2902244    4143.4337           18 
  537000     1.013786   -6.3032695    4160.7685           20 
  538000    1.0082897     -6.29651    4156.8042            8 
  539000    1.0106502   -6.2622127    4154.9847           11 
  540000   0.99042035   -6.2631625    4149.3838           10 
  541000    1.0202622   -6.2748214    4157.5554            6 
  542000   0.99464375   -6.2897764    4157.8484            5 
  543000   0.99789156   -6.2422468    4151.9508            4 
  544000    1.0285181   -6.2704748    4151.2812           11 
  545000    1.0223395   -6.2664778    4140.4601           10 
  546000   0.99590291   -6.2863657    4141.7366            4 
  547000   0.99295554   -6.2947844    4162.8962            5 
  548000   0.99901273   -6.2729189    4163.6481            7 
  549000    1.0169886   -6.2542881    4161.1036            5 
  550000    1.0215465   -6.2587249    4151.6708            4 
  551000     1.013216   -6.2577517    4154.9413            4 
  552000   0.99201198   -6.2264302    4167.6763            4 
  553000    1.0133521   -6.2743886    4138.9216            4 
  554000   0.97803135    -6.277967    4155.8449            5 
  555000    1.0059875   -6.2768334    4147.3027            8 
  556000   0.99942005   -6.2923539    4137.6313            8 
  557000   0.99148401   -6.2711087    4136.0655            9 
  558000    1.0087971    -6.272129    4139.8143            3 
  559000   0.99222473   -6.2703983    4157.6857            3 
  560000    1.0030991   -6.2737652    4142.7099           17 
  561000    1.0035449   -6.2896827    4156.1434           12 
  562000    1.0154266   -6.2962883    4139.1807           12 
  563000   0.99505598   -6.2859005    4157.1097            5 
  564000    1.0300433   -6.2498576    4166.4085           10 
  565000    1.0028467   -6.2781201    4136.8104            7 
  566000   0.98691541   -6.2891755    4161.4839            9 
  567000    1.0151438   -6.2782909    4140.7833            4 
  568000     1.029683   -6.3229152    4150.7214            6 
  569000   0.97773606   -6.2422774    4147.9338            9 
  570000    1.0006436   -6.2524925    4166.2247            9 
  571000    1.0109348   -6.2467063    4157.3153            3 
  572000    1.0091099   -6.2478752    4165.7131            6 
  573000    1.0360752   -6.2555515    4152.2399            7 
  574000   0.99867846   -6.3082982    4139.0857            7 
  575000    1.0093068    -6.304548    4138.2856            5 
  576000   0.98772537   -6.2698856    4143.1616            4 
  577000    1.0081143   -6.2580005    4159.4456           10 
  578000    1.0119304   -6.2963164    4149.0339            4 
  579000    1.0118904   -6.2726897    4151.1601            6 
  580000    1.0001081   -6.2542966    4156.2111            5 
  581000    1.0068176   -6.2617399    4146.9312            6 
  582000    1.0123716    -6.282178    4142.9197            8 
  583000   0.99115539   -6.2540446    4146.6563           13 
  584000   0.99439498   -6.2433298    4165.1214            8 
  585000    1.0048745   -6.2471407    4153.3094            9 
  586000    1.0025356   -6.2591997    4163.4166            6 
  587000    1.0215794   -6.2366274    4172.4797            4 
  588000    1.0154977   -6.2394748    4150.0206            7 
  589000    1.0046029   -6.2773695    4145.7863            5 
  590000   0.99865538   -6.2678964    4149.9063            7 
  591000   0.99493468   -6.2673195    4152.5808            5 
  592000    1.0121869   -6.2720986    4154.2884            5 
  593000    1.0097304   -6.2528258    4168.1424           13 
  594000    1.0058979   -6.2755317    4149.0775           10 
  595000   0.99471907   -6.3046403    4147.8584            3 
  596000   0.98313577   -6.2979492    4141.6948           10 
  597000   0.98089977   -6.2955149    4125.5715           11 
  598000    1.0184133   -6.2613764    4149.3556           17 
  599000   0.97685372   -6.2700468    4160.1748            7 
  600000    1.0098334   -6.2613669    4158.9359            6 
  601000   0.99738886   -6.2820551    4133.5735            5 
  602000    1.0103186   -6.2538062    4164.6241            6 
  603000    1.0006486   -6.2353778    4159.0847            5 
  604000    1.0105218   -6.3046742    4155.6855            9 
  605000    0.9791011   -6.2602226    4133.0813           15 
  606000    1.0130767   -6.2933113    4164.1052            5 
  607000    1.0172672   -6.2386353    4156.6721            3 
  608000   0.96972849   -6.2485502     4149.251            5 
  609000    1.0115818    -6.287677    4137.9057           10 
  610000   0.98987506   -6.2790273    4149.9641           10 
  611000    1.0014514   -6.2588516    4149.1076            7 
  612000     1.019479    -6.247273    4167.9651            4 
  613000   0.98715759   -6.2694181    4163.9937            3 
  614000    1.0208648   -6.2680693     4172.174            6 
  615000    1.0127194   -6.2718865    4138.0789           11 
  616000    1.0078663   -6.2573728    4154.9747            5 
  617000    1.0108546   -6.2326889    4164.4688            4 
  618000   0.98742799    -6.280216      4155.52            6 
  619000    1.0064203   -6.2590747    4163.5805            5 
  620000    1.0062964   -6.2792819    4138.4822           16 
  621000   0.97521664   -6.2546061    4162.4186           10 
  622000    1.0017307   -6.2384938    4165.1751            7 
  623000   0.99708967   -6.2878145    4161.4224            6 
  624000   0.99193245   -6.3061646    4152.3747            6 
  625000    1.0039853   -6.2992316    4150.3771           10 
  626000    0.9939574   -6.2634944    4156.5759           14 
  627000    1.0051346   -6.2476023    4142.1207            5 
  628000    1.0032302    -6.267408    4156.9245            6 
  629000   0.98965839   -6.2340827    4153.9105            4 
  630000   0.99308382    -6.282108    4149.1156            8 
  631000    1.0251924   -6.2632205    4158.2298            6 
  632000   0.99105871   -6.2585075    4142.0932           14 
  633000    1.0012499   -6.2731506    4159.4265           13 
  634000    1.0025368   -6.2969285    4134.1132            9 
  635000   0.99484921    -6.290481    4154.1567            9 
  636000   0.99715296   -6.2721348     4157.883           11 
  637000   0.98867591   -6.2837348    4145.1395            8 
  638000    1.0050784   -6.2655072    4149.0413            5 
  639000    1.0020814   -6.2823411    4151.8583            7 
  640000    1.0087227    -6.294127    4144.1281            6 
  641000   0.99547099   -6.2790188    4164.1973            2 
  642000    0.9836169   -6.2734417    4148.4668           11 
  643000    1.0027681   -6.2832854    4148.1739            5 
  644000   0.99824855   -6.2710458    4147.7174           11 
  645000    1.0180381   -6.2513093    4167.0781            7 
  646000    1.0179865   -6.2406674    4158.2158           11 
  647000    1.0092938   -6.2414322    4148.1409            5 
  648000    1.0125234   -6.2524244    4161.4054            4 
  649000    1.0073791   -6.2846048    4154.4491            4 
  650000   0.99095399     -6.27055    4150.6654            7 
  651000   0.97699566   -6.2613555    4153.1217            8 
  652000    1.0216309   -6.2879412    4151.2352            6 
  653000   0.98861411     -6.27714    4160.4669            4 
  654000    1.0065345   -6.2584492    4142.9131            9 
  655000    1.0025239   -6.2389704    4150.9153            3 
  656000    1.0115344   -6.2617105    4160.7021           15 
  657000    1.0039162   -6.2537778    4151.0511            7 
  658000    0.9863041   -6.2582493     4163.799            5 
  659000   0.99573802   -6.2728229    4167.6069           14 
  660000     1.000637   -6.2915223    4151.5246            6 
  661000   0.98844329   -6.3210972    4158.0267            6 
  662000     0.994264   -6.2584801    4160.6237            5 
  663000   0.99428932   -6.2424287    4152.6554            7 
  664000   0.99135414    -6.304485    4136.3298           14 
  665000    1.0089588   -6.2479714    4159.2102            5 
  666000    1.0218941   -6.2810169    4152.0411            6 
  667000    0.9874133   -6.2745681    4156.5205            8 
  668000    1.0031349   -6.2756621    4145.2664            6 
  669000    0.9824904   -6.2632452    4140.1968           11 
  670000   0.98344459    -6.267929    4162.7765            7 
  671000   0.99641104   -6.2645883     4165.271            9 
  672000   0.99990101   -6.2716419    4154.3338            5 
  673000    1.0193016   -6.2520424    4144.2099            6 
  674000   0.98924638   -6.2620236    4136.6265            5 
  675000     1.005938   -6.2896493    4134.4197            5 
  676000   0.99515208     -6.26461    4151.3516            7 
  677000   0.98951959   -6.2851897    4152.2046            9 
  678000   0.98562615   -6.2814802    4159.1269            8 
  679000   0.98316601   -6.2816641    4161.4804           12 
  680000   0.99722008   -6.2813661    4148.6783            6 
  681000   0.97032964   -6.2800778    4147.0407            8 
  682000   0.99406951   -6.2915717    4130.9882            6 
  683000    0.9788919   -6.2971844    4141.0358            7 
  684000   0.99968453   -6.2734168     4153.701           10 
  685000    0.9884922   -6.2612582    4169.4392            6 
  686000    0.9975156   -6.2800238    4159.7538            7 
  687000    1.0035324   -6.2704819    4160.3295            8 
  688000   0.99267862   -6.2625369    4155.6186            8 
  689000    1.0019199   -6.2758069     4172.724            4 
  690000    1.0045475   -6.3059934    4149.6291            5 
  691000    1.0296795   -6.2890213    4148.3704            7 
  692000   0.99768587   -6.2888192    4161.5882            8 
  693000    1.0053279   -6.2818658    4146.5439            6 
  694000    1.0049346    -6.274604    4162.1717           10 
  695000    1.0002812   -6.2973254    4148.8722            5 
  696000   0.99947104   -6.2798928    4143.2388            4 
  697000   0.98070512   -6.2748047    4154.4401            7 
  698000    1.0026763   -6.2752249    4160.9622            6 
  699000    1.0055799   -6.2784204    4171.8847            4 
  700000   0.99335476   -6.2600124    4155.1602            6 
  701000    1.0057312   -6.2641963    4145.0819            6 
  702000     1.009927   -6.2597357    4165.2835           14 
  703000    1.0014357   -6.2977827     4142.754           10 
  704000   0.98495389   -6.2601015    4123.2512            7 
  705000     1.015168   -6.2532807    4156.6988            7 
  706000   0.98695467   -6.2647337    4159.3855            8 
  707000   0.98340813   -6.2955883    4152.6267            4 
  708000    1.0179429    -6.240829    4147.1937            6 
  709000   0.99627599   -6.2498134    4176.9996           16 
  710000    1.0005379   -6.2416419    4151.3339            8 
  711000    1.0097769   -6.2574685    4148.9747            6 
  712000   0.99460233   -6.2984489    4144.1499           13 
  713000   0.99758254   -6.3259797    4146.7605           11 
  714000    1.0064226   -6.2633308    4148.1956            6 
  715000    1.0133915   -6.2736046    4156.8736            6 
  716000    1.0036549   -6.2980853    4152.7533           10 
  717000   0.99944454   -6.2623952     4154.856            4 
  718000   0.99093148    -6.271927     4145.796            7 
  719000    1.0125363   -6.2665132    4157.9075           10 
  720000    1.0155872   -6.2622523    4162.1963            8 
  721000     1.010247   -6.2971554    4154.1965           12 
  722000   0.97654534     -6.27935    4140.9145            6 
  723000    1.0087271   -6.2550559    4151.1925            7 
  724000   0.99268103   -6.2713642     4152.716            4 
  725000    1.0133646    -6.255441    4152.4412            7 
  726000    1.0073872   -6.3070189     4136.677            5 
  727000    0.9940517   -6.2739004    4155.7524            5 
  728000    1.0288686   -6.2789251    4145.0115            5 
  729000    1.0166547   -6.2836076     4140.031            5 
  730000   0.99141789   -6.2769233    4145.6927            7 
  731000    1.0056883   -6.2776372    4140.0836            7 
  732000   0.99320537   -6.2755128     4163.469            5 
  733000    1.0205394   -6.2649845    4158.3073            9 
  734000   0.99341851   -6.2514578    4161.2969            9 
  735000   0.99998667   -6.2770219    4160.4617            8 
  736000    1.0032405    -6.259123    4146.1959            6 
  737000    1.0096033   -6.2527526    4149.6278            6 
  738000   0.98114835   -6.2810668    4149.4608            5 
  739000    1.0003541   -6.2747091    4150.7637            3 
  740000   0.98517525   -6.2888552    4149.2357           19 
  741000   0.98284054   -6.2562416    4159.5199            7 
  742000     1.001198   -6.2761265    4153.8813           11 
  743000    1.0063391   -6.2594151    4139.2672            7 
  744000     1.002479   -6.2884085     4143.379           10 
  745000    1.0020881   -6.2620668    4153.2087            3 
  746000    1.0020269   -6.2700742    4166.5724            6 
  747000     1.012417   -6.2476664    4155.6599            5 
  748000    1.0141796   -6.2520576    4138.8194           18 
  749000    1.0061184   -6.2536282    4141.1701            7 
  750000   0.99696802   -6.2872002    4155.4069            5 
  751000    1.0149119   -6.2504282    4156.1966            6 
  752000    1.0065458   -6.2659354    4144.1364           10 
  753000   0.98963732   -6.2768458    4158.8512            8 
  754000    1.0143268   -6.2606315    4155.4116            9 
  755000    1.0070934   -6.2556544    4160.2023            4 
  756000    1.0067625   -6.2924179    4149.8215            9 
  757000    1.0067137   -6.2555442    4150.4466            7 
  758000    1.0141508    -6.293445    4145.6517            3 
  759000    1.0045151   -6.2647739    4146.0033            8 
  760000   0.99238363    -6.253272    4150.1376           10 
  761000    1.0001594   -6.2786613    4161.8407           11 
  762000   0.98918199   -6.2675342    4153.0136            8 
  763000    1.0077428    -6.265497    4145.2345            7 
  764000   0.99202244   -6.3154537    4158.6043            5 
  765000   0.97933148   -6.2676643     4147.544            9 
  766000   0.98477837   -6.2861862    4154.5535            5 
  767000   0.99350468   -6.2914473    4150.6853            8 
  768000   0.98971951   -6.2488983    4147.0012            3 
  769000   0.99194159   -6.2918194    4144.1136            4 
  770000    1.0020157   -6.2638288    4156.3923            4 
  771000    1.0067835   -6.2817534    4164.2275            9 
  772000   0.99309048   -6.2600033    4167.4141            5 
  773000   0.99027919   -6.2568207    4166.8557            3 
  774000    1.0143471   -6.2610837     4143.039            9 
  775000    1.0258753   -6.2898003    4137.8397            5 
  776000    1.0182891   -6.2816734    4151.9303            6 
  777000    1.0026412    -6.281878    4149.9365            8 
  778000    1.0018304   -6.2491073    4146.3242            7 
  779000    1.0222218   -6.2636121    4143.5549            5 
  780000    1.0019086   -6.2605515    4150.6681            4 
  781000     0.998954    -6.284615    4153.1312            7 
  782000   0.98672151   -6.2631533    4163.9618            4 
  783000    1.0140338   -6.2592706    4147.1522            8 
  784000   0.99438897   -6.2330535    4166.8962            7 
  785000   0.98979126   -6.3020003    4168.4191           12 
  786000   0.99661001   -6.2722744    4154.7618            7 
  787000    1.0138005    -6.293616    4161.3566            9 
  788000   0.99098062   -6.2973417    4145.7339            3 
  789000   0.99778347   -6.2856465    4158.3795            8 
  790000     1.024085   -6.2284773    4159.3429            3 
  791000    1.0211473   -6.2650168    4150.6683            8 
  792000    1.0008083   -6.2739641    4135.4954            6 
  793000    1.0099493   -6.2668172    4154.8046            5 
  794000   0.98555547   -6.2879843    4145.9918            3 
  795000    1.0149952   -6.2970081    4154.9905            8 
  796000   0.98159837   -6.2798504    4148.3436            9 
  797000    1.0100507    -6.254259    4150.0635            4 
  798000   0.99109573   -6.2898612    4154.7059            7 
  799000    1.0061654   -6.2657613    4146.2475            5 
  800000    1.0135153   -6.2652751    4153.7039            4 
  801000    1.0187428   -6.2590036    4150.7144            8 
  802000    1.0043546   -6.2628881    4162.9663           10 
  803000    1.0096876   -6.2935304    4144.3204            9 
  804000   0.99879665   -6.2842631    4148.4588            4 
  805000    1.0126106   -6.2625468    4168.2836            9 
  806000    1.0000073   -6.2831522    4152.4328            3 
  807000     1.011804   -6.3078607    4129.7883           12 
  808000   0.98718178   -6.2885801    4150.8928            5 
  809000   0.97255439   -6.2687725    4154.0929            7 
  810000    1.0261005   -6.2764784    4150.3196            3 
  811000    1.0101581   -6.2855243    4144.2207            6 
  812000    0.9941785   -6.2734835    4140.2275            4 
  813000    1.0090653   -6.2777531    4150.0311            5 
  814000    1.0103769    -6.298838    4139.6338            7 
  815000   0.98276988   -6.2964151     4159.529           14 
  816000    0.9802958   -6.2808821    4152.5451            7 
  817000    1.0040134   -6.2817012    4142.4067            8 
  818000    1.0041718   -6.2693982     4146.526           19 
  819000    1.0126113   -6.2639892    4148.9892            4 
  820000   0.99861829   -6.2835188    4145.3889           10 
  821000   0.97393421   -6.2762109    4166.8428            7 
  822000   0.98504198    -6.245232    4164.0575            9 
  823000   0.99813874   -6.2877366     4130.058            3 
  824000    1.0088822   -6.2598682    4153.8315            4 
  825000    1.0020158   -6.2748078    4150.3377            6 
  826000   0.97100685   -6.2756192    4176.7559            4 
  827000    1.0158918   -6.2598384     4147.904            6 
  828000   0.99626396   -6.2675194    4164.1543            6 
  829000   0.99079218   -6.2763416    4157.2752            9 
  830000    1.0245359   -6.2884735    4147.3762           10 
  831000   0.98243323    -6.270867    4138.8664            6 
  832000    1.0135587   -6.2406421    4152.0146            8 
  833000    0.9790158   -6.3099632    4144.3554            7 
  834000   0.99491382   -6.2509714    4159.6126            4 
  835000    1.0110811   -6.2593913    4152.8213            4 
  836000    1.0030949   -6.2858476     4151.684            9 
  837000   0.99599771   -6.2982824    4135.7219           21 
  838000    1.0063689   -6.2923935    4144.8364           11 
  839000    0.9760458   -6.2839477    4153.4117            6 
  840000   0.99890219    -6.243751    4163.0117            4 
  841000    1.0088717   -6.2837242    4150.7081           12 
  842000   0.99479266   -6.2658899    4149.4745            4 
  843000   0.99210821   -6.2640942     4151.586            6 
  844000    1.0312477   -6.2652188    4165.9639            2 
  845000    1.0063391   -6.2970878    4168.0111            6 
  846000   0.99212091   -6.2450049    4159.7329           11 
  847000   0.99314797    -6.292551    4152.9632            5 
  848000   0.98459429   -6.2778853    4157.7692            4 
  849000    0.9923442      -6.2885    4165.0509            4 
  850000    1.0050723   -6.2552969    4154.4475            7 
  851000   0.98633017   -6.2675257    4156.9145            7 
  852000   0.96912178   -6.2787685    4149.7667            4 
  853000    1.0079957   -6.2748332    4154.9041            3 
  854000     1.015259   -6.2637189    4161.3655            3 
  855000   0.98880436   -6.2582092    4141.8864            5 
  856000    1.0097367   -6.2493694    4163.8917            3 
  857000   0.98087021   -6.2585732    4157.5401            5 
  858000    1.0038537   -6.2792012    4139.5195            6 
  859000   0.99440598     -6.27713    4164.1445            5 
  860000   0.99913863   -6.3042133    4138.6735            5 
  861000    0.9940637   -6.3027423    4145.0815            6 
  862000   0.99040251   -6.2316493    4159.3478            8 
  863000    1.0056592   -6.2532121    4152.1758            7 
  864000   0.99476143   -6.2730961    4153.5497            4 
  865000   0.99592758   -6.2694366    4141.3017            6 
  866000   0.98153663   -6.2056107     4161.366           12 
  867000    1.0052117   -6.2890815    4157.3443            9 
  868000    1.0044661   -6.2544906    4159.6247            7 
  869000   0.99277545   -6.2860143    4145.0412            7 
  870000   0.99618722   -6.2378789     4155.138            7 
  871000    1.0043621   -6.2815789    4147.7527            4 
  872000    1.0070973      -6.2899    4159.1014            5 
  873000    0.9830594   -6.2687516    4152.7491           15 
  874000    0.9687878   -6.2809729    4137.9496            6 
  875000   0.98265512   -6.2805364    4149.3997            3 
  876000   0.99061992   -6.2483278    4158.7196            4 
  877000    1.0040267   -6.2526371    4143.8325           12 
  878000    1.0034005   -6.2559094    4162.5059            4 
  879000   0.99491017   -6.2744583    4141.9331            6 
  880000    0.9903101   -6.2614681    4157.8733            8 
  881000   0.97857399    -6.248489    4160.3247            6 
  882000   0.96957586   -6.2692157    4146.9955           19 
  883000    1.0007435   -6.2635206    4147.7283            5 
  884000    1.0022136   -6.2762541    4168.2012            8 
  885000    1.0021498   -6.2750124    4158.7628            4 
  886000   0.98068797   -6.2682192    4159.6442            4 
  887000    0.9901326   -6.2806027    4145.5894            5 
  888000   0.99589628   -6.2784199    4158.6431            7 
  889000   0.99894978   -6.2926901    4145.4666            5 
  890000    1.0058383   -6.2721553     4141.141            5 
  891000    1.0090516   -6.2421704    4156.9225            5 
  892000    1.0249539   -6.2908563    4144.0723            5 
  893000   0.99156314   -6.2742359    4162.0864            5 
  894000    0.9879549   -6.2618846    4153.5792            4 
  895000    1.0024638   -6.2654055    4156.9043            5 
  896000    1.0071589   -6.2592463     4132.067            9 
  897000    1.0064034   -6.3037466    4155.5842            8 
  898000    1.0145867   -6.2420395    4146.5409            5 
  899000   0.99175705   -6.2701543    4163.4458           10 
  900000    1.0012211   -6.2688586    4155.3749            5 
  901000    0.9958384   -6.2681137    4164.4017           14 
  902000   0.99508694   -6.2715298    4140.0293           12 
  903000    1.0195272   -6.2892933    4150.4411            4 
  904000   0.98561856   -6.2840466    4147.7103            4 
  905000     1.016485   -6.2244037    4168.3088            6 
  906000   0.99566434   -6.2713471    4141.0551            5 
  907000   0.99597314   -6.3071287     4154.174            9 
  908000    1.0115639   -6.2471476    4141.3963            3 
  909000   0.99954289   -6.2683646     4141.588            6 
  910000   0.99407546   -6.2720898    4160.4332            5 
  911000    1.0099553   -6.2537632    4156.5301           11 
  912000    1.0026227   -6.2801134    4157.2023            5 
  913000   0.99721838   -6.2718155    4156.2591            6 
  914000     1.006721   -6.2979125    4166.5686           13 
  915000    1.0066961   -6.2784594    4160.6695           13 
  916000    1.0162765   -6.2524117    4160.1714            8 
  917000   0.99412508    -6.323246    4149.1477            5 
  918000   0.99022709   -6.2737919    4155.3817            9 
  919000    1.0134234   -6.2849933    4150.5024            7 
  920000   0.98738814   -6.2798976    4148.1669            3 
  921000    1.0127936   -6.2870291    4148.6621            5 
  922000    1.0116282   -6.2443733    4154.6322           10 
  923000   0.99278091   -6.3070828    4137.3839            3 
  924000   0.98561582   -6.2582725     4155.315            5 
  925000    1.0127304   -6.2856743    4164.5245            8 
  926000    1.0052633   -6.2887184    4140.1452            6 
  927000    1.0097334   -6.2537151    4149.9488            9 
  928000    1.0000115   -6.2802353    4146.9912           10 
  929000    1.0048304   -6.2610771    4143.6981            8 
  930000   0.99136747   -6.2591189     4144.737            7 
  931000   0.99565186   -6.2841968     4142.024            4 
  932000    1.0046563   -6.2810046    4171.0601            6 
  933000   0.98761735   -6.2885302    4142.0811            5 
  934000   0.99410848   -6.3073684     4142.472            4 
  935000   0.99649732    -6.270734    4143.7246            4 
  936000    1.0080609   -6.2680171    4144.0769            4 
  937000   0.99191409   -6.2983924    4128.9605            6 
  938000     1.024919   -6.2658954    4157.3198            4 
  939000   0.99148581   -6.3057775    4139.1784            9 
  940000   0.97278322   -6.2780292    4165.3057            5 
  941000   0.99471196    -6.255713    4146.0367            8 
  942000   0.99399112   -6.2776278    4142.6348            9 
  943000    1.0070334   -6.2632631    4162.9927            7 
  944000    1.0056362    -6.256329    4146.1575            6 
  945000    1.0001641   -6.2849165    4138.0564            5 
  946000   0.98694637    -6.298783     4150.454           10 
  947000    0.9814056   -6.2694041    4163.2147            7 
  948000   0.99144476   -6.2645223    4148.4487            6 
  949000    1.0199525   -6.2687888    4156.1652            6 
  950000   0.97873657   -6.3082043    4156.5753            8 
  951000   0.97358757   -6.3099375    4141.3265           13 
  952000    1.0045694   -6.2479103    4156.6992            7 
  953000   0.99232212   -6.2416896    4165.7432            7 
  954000    1.0013368   -6.2683419    4150.9913            7 
  955000   0.97907449     -6.28343    4159.5862            4 
  956000    1.0093193   -6.2860465    4142.1233            8 
  957000   0.99624442   -6.2782441    4154.3984            7 
  958000    1.0072034   -6.2536198    4161.3117            7 
  959000   0.99166923   -6.2800259    4166.9889            8 
  960000    1.0028966   -6.2787825    4140.6458            7 
  961000    1.0006405   -6.3043221    4155.8771            7 
  962000    1.0188454   -6.2742206    4151.3208            5 
  963000    1.0237178   -6.3023494    4139.8167            4 
  964000   0.99082918   -6.2852186    4146.8058            5 
  965000    0.9929272   -6.3052465    4150.7407           10 
  966000    0.9991698   -6.2722215    4148.3526            4 
  967000   0.98316182   -6.2180268    4163.8045            3 
  968000   0.98601647   -6.2945399    4145.2345            9 
  969000   0.98290748   -6.2525032    4160.4927            5 
  970000   0.98421532   -6.2974524    4155.8689            7 
  971000    0.9810812    -6.237001    4146.1761            8 
  972000   0.99360187   -6.2449996    4166.7656            3 
  973000     1.009517    -6.266086    4142.0991            4 
  974000    1.0008723   -6.2637222    4167.7088            8 
  975000    1.0069674   -6.2928731    4136.4943           14 
  976000    1.0051687   -6.2766376    4151.0891            6 
  977000    1.0172999   -6.2973433    4151.7084            8 
  978000    1.0020439   -6.2848005    4148.4396            5 
  979000   0.99698385   -6.2773513    4154.5776            6 
  980000   0.97537151   -6.2974179    4147.1341            8 
  981000    1.0241407   -6.2752874    4138.8645            3 
  982000    1.0107559   -6.3001001    4139.2508            9 
  983000    1.0242516   -6.2880847    4164.1797            8 
  984000   0.99154647     -6.25508    4148.8601            3 
  985000    0.9858387   -6.2749124     4142.772            8 
  986000   0.98906267   -6.2513449    4148.9296            4 
  987000    1.0082591   -6.2592014    4149.5984            6 
  988000   0.98037601   -6.2481587    4157.4303            5 
  989000    0.9755887   -6.2609563    4143.8031            6 
  990000   0.99719565   -6.2577566    4152.5193            4 
  991000   0.98746989   -6.2885034    4145.0562            7 
  992000   0.98291531   -6.2424003    4165.0279            7 
  993000    0.9822902   -6.2719522    4156.0582            3 
  994000   0.99397174   -6.2428474    4162.2692            8 
  995000    1.0086986   -6.2785352    4151.7836            4 
  996000    1.0075365   -6.2825843    4146.6328            7 
  997000    1.0036364   -6.2586214    4155.3095            6 
  998000   0.98493901   -6.2608901    4149.7625            3 
  999000   0.97688439   -6.2514367     4155.283            6 
 1000000    1.0034725   -6.2789608    4142.4296            8 
 1001000    1.0130237   -6.2500359    4154.0636            6 
 1002000   0.97721433   -6.2768985    4141.5571            7 
 1003000   0.99505916   -6.2883824    4141.5974           12 
 1004000   0.98534508   -6.2797078    4141.9823            6 
Loop time of 2078.11 on 48 procs for 1000000 steps with 4000 atoms

Performance: 83152.395 tau/day, 481.206 timesteps/s
99.4% CPU use with 48 MPI tasks x no OpenMP threads

MPI task timing breakdown:
Section |  min time  |  avg time  |  max time  |%varavg| %total
---------------------------------------------------------------
Pair    | 123.77     | 133.51     | 144.02     |  44.9 |  6.42
Neigh   | 14.775     | 14.923     | 15.06      |   1.8 |  0.72
Comm    | 110.66     | 121.37     | 129.03     |  40.2 |  5.84
Output  | 1.308      | 1.3095     | 1.3255     |   0.2 |  0.06
Modify  | 1778.9     | 1787.1     | 1796.3     |  10.9 | 86.00
Other   |            | 19.88      |            |       |  0.96

Nlocal:        83.3333 ave          90 max          78 min
Histogram: 7 6 5 3 5 7 4 5 2 4
Nghost:        1606.62 ave        1622 max        1591 min
Histogram: 1 2 4 8 8 12 5 3 2 3
Neighs:        9209.62 ave       10249 max        8394 min
Histogram: 3 4 8 7 8 3 8 6 0 1
FullNghs:      18417.8 ave       20146 max       17068 min
Histogram: 3 7 9 3 6 6 5 5 3 1

Total # of neighbors = 884056
Ave neighs/atom = 221.01400
Neighbor list builds = 59716
Dangerous builds = 0

#clear
#
#next RN
#
#jump SELF
Total wall time: 0:34:39
