
units lj                  # Use reduced LJ style units
atom_style atomic         # Uncharged point particles
atom_modify map hash      # Needed for indexing of clusters etc
                          # Used to be able to find where atoms are in relation to each other.

# Define a lattice with which to populate the simulation cell. With units
# set to 'lj' the second argument to the lattice command is the reduced
# density rho* and the spacings are multiples of that required to acheive
# that density. Also define a simulation cell called 'box' in lattice units
# and fill it with atoms. Here we're creating a box which is ten lattice
# constants in each direction.
lattice fcc 1.0 spacing 1 1 1                 # All equal sizes - gives the right reduced density.
Lattice spacing in x,y,z = 1.5874011 1.5874011 1.5874011

region box block 0 10 0 10 0 10 units lattice # Defines a region, "box", in lattice units
create_box 1 box                              # Creates a simulation box as specified above,
Created orthogonal box = (0.0000000 0.0000000 0.0000000) to (15.874011 15.874011 15.874011)
  2 by 2 by 7 MPI processor grid
                                              # with one type of atom
create_atoms 1 box                            # Creates particles on lattice points
Created 4000 atoms
  using lattice units in orthogonal box = (0.0000000 0.0000000 0.0000000) to (15.874011 15.874011 15.874011)
  create_atoms CPU = 0.001 seconds


# Set the mass of the first (and only) atom type.
mass 1 1.0

# Lennard-Jones interactions between particles, 3.5 sigma cut-off. Apply
# long range tail corrections to energy and pressure and set all coefficients
# to unity since we work in reduced units here. Note that this doesn't shift
# the potential such that it goes to zero at the cutoff. That would require
# pair_modify('shift', 'yes').
pair_style lj/cut  3.5      # non-GPU version
pair_modify tail  yes
pair_coeff 1  1  1.0  1.0   # Intearaction between 1 and 1 set with epsilon = 1 and sigma = 1

write_data data.*
System init for write_data ...
Neighbor list info ...
  update every 1 steps, delay 10 steps, check yes
  max neighbors/atom: 2000, page size: 100000
  master list distance cutoff = 3.8
  ghost atom cutoff = 3.8
  binsize = 1.9, bins = 9 9 9
  1 neighbor lists, perpetual/occasional/extra = 1 0 0
  (1) pair lj/cut, perpetual
      attributes: half, newton on
      pair build: half/bin/atomonly/newton
      stencil: half/bin/3d
      bin: standard

#############################
#   M E L T   S Y S T E M   #
#############################

velocity all create 2.4 9622624 mom yes dist gaussian # Assign velocities
                                                    # Temperature 2.4, random number seed, zero linear momentum
						                                                        # Gaussian distribution

timestep 0.002   # simulation timestep
thermo 100       # output thermodynamic data every 100 steps

# Define a fix  in this case with index 1 applied to all
# particles in the simulation. This fix is for simulations
# in the anisotropic NPT ensemble. Note that we use the MTK
# correction.
fix 1 all npt temp 2.4 2.4 0.1 iso 5.68 5.68 0.5 mtk yes tchain 5 pchain 5 # Use NPT ensemble
                                                                         # Set temperature and pressure and damping
                                                                         # Numbers of thermostats in chain and in barostat
run 1000         # run for 10000 steps
Per MPI rank memory allocation (min/avg/max) = 3.642 | 3.654 | 3.657 Mbytes
Step Temp E_pair E_mol TotEng Press Volume 
       0          2.4   -8.3859253            0   -4.7868253   -2.2405722         4000 
     100     1.256502   -6.5137603            0   -4.6294785    5.5061441    4089.3939 
     200    1.4710413   -6.2962202            0   -4.0902099    6.1259073    4136.4974 
     300    1.5753793   -6.0048156            0   -3.6423375    5.8881655    4269.3275 
     400     1.695533   -5.7167441            0   -3.1740804    5.9576171    4396.1624 
     500    1.7977703    -5.422775            0   -2.7267936    5.9233545    4540.2438 
     600    1.8751095    -5.133639            0   -2.3216778    5.8305819    4705.3349 
     700    2.0067687   -4.9044304            0   -1.8950299    5.8181833    4845.3775 
     800    2.1683387   -4.7479596            0   -1.4962646    5.6703181    4968.6147 
     900    2.2591539   -4.5766532            0   -1.1887696    5.5447205    5099.1514 
    1000    2.3772702    -4.449968            0  -0.88495416    5.8567059    5140.3387 
Loop time of 0.325647 on 28 procs for 1000 steps with 4000 atoms

Performance: 530635.532 tau/day, 3070.807 timesteps/s
99.3% CPU use with 28 MPI tasks x no OpenMP threads

MPI task timing breakdown:
Section |  min time  |  avg time  |  max time  |%varavg| %total
---------------------------------------------------------------
Pair    | 0.14709    | 0.16198    | 0.18003    |   2.0 | 49.74
Neigh   | 0.028848   | 0.030284   | 0.032202   |   0.5 |  9.30
Comm    | 0.089905   | 0.10629    | 0.12212    |   2.5 | 32.64
Output  | 0.00021507 | 0.00022014 | 0.00027684 |   0.0 |  0.07
Modify  | 0.021009   | 0.024651   | 0.031735   |   2.0 |  7.57
Other   |            | 0.002221   |            |       |  0.68

Nlocal:        142.857 ave         155 max         133 min
Histogram: 2 2 0 6 5 9 1 1 1 1
Nghost:        1918.21 ave        1934 max        1902 min
Histogram: 1 1 4 4 5 4 1 4 1 3
Neighs:        12690.1 ave       13892 max       11313 min
Histogram: 1 1 2 4 5 5 3 3 2 2

Total # of neighbors = 355324
Ave neighs/atom = 88.831000
Neighbor list builds = 87
Dangerous builds = 18

# Equilibrate just above the melting temperature to avoid step fn in T

fix 1 all npt temp 1.25 1.25 0.1 iso 5.68 5.68 0.5 mtk yes tchain 5 pchain 5
run 1000
Per MPI rank memory allocation (min/avg/max) = 3.643 | 3.655 | 3.658 Mbytes
Step Temp E_pair E_mol TotEng Press Volume 
    1000    2.3772702    -4.449968            0  -0.88495416    5.8567059    5140.3387 
    1100    1.9123587   -4.6299409            0     -1.76212    5.7356352    5010.0317 
    1200     1.748463   -4.9742749            0   -2.3522361    5.6314428    4809.1156 
    1300    1.5839166   -5.2240149            0    -2.848734     5.537847    4676.3458 
    1400    1.4493602   -5.3637066            0   -3.1902097    5.9258711    4553.5937 
    1500    1.3475159   -5.4905275            0   -3.4697589    5.8595912    4492.3019 
    1600    1.3105851   -5.6398502            0   -3.6744639     5.695843    4436.2068 
    1700    1.2621862   -5.7135111            0   -3.8207051    5.6775847    4398.9832 
    1800    1.2554554   -5.7810045            0   -3.8982922     5.797944     4358.617 
    1900    1.2634776   -5.8544833            0   -3.9597407    5.6933777     4339.129 
    2000    1.2398732   -5.8281233            0   -3.9687785    5.8601907    4332.3676 
Loop time of 0.312125 on 28 procs for 1000 steps with 4000 atoms

Performance: 553624.745 tau/day, 3203.847 timesteps/s
99.7% CPU use with 28 MPI tasks x no OpenMP threads

MPI task timing breakdown:
Section |  min time  |  avg time  |  max time  |%varavg| %total
---------------------------------------------------------------
Pair    | 0.15274    | 0.16154    | 0.1707     |   1.2 | 51.76
Neigh   | 0.025579   | 0.026487   | 0.027436   |   0.3 |  8.49
Comm    | 0.089151   | 0.098904   | 0.11058    |   1.6 | 31.69
Output  | 0.00020576 | 0.0002107  | 0.00025676 |   0.0 |  0.07
Modify  | 0.019857   | 0.022436   | 0.025816   |   1.2 |  7.19
Other   |            | 0.002543   |            |       |  0.81

Nlocal:        142.857 ave         151 max         135 min
Histogram: 2 2 0 6 4 4 5 3 1 1
Nghost:        2132.14 ave        2154 max        2113 min
Histogram: 3 1 3 2 7 5 3 1 2 1
Neighs:        15062.4 ave       16238 max       13803 min
Histogram: 1 1 3 3 6 5 3 3 1 2

Total # of neighbors = 421746
Ave neighs/atom = 105.43650
Neighbor list builds = 76
Dangerous builds = 11


# Small amount of linear quench

fix 1 all npt temp 1.25 ${temp} 0.1 iso 5.68 5.68 0.5 mtk yes tchain 5 pchain 5
fix 1 all npt temp 1.25 0.98 0.1 iso 5.68 5.68 0.5 mtk yes tchain 5 pchain 5
run 2000
Per MPI rank memory allocation (min/avg/max) = 3.644 | 3.655 | 3.658 Mbytes
Step Temp E_pair E_mol TotEng Press Volume 
    2000    1.2398732   -5.8281233            0   -3.9687785    5.8601907    4332.3676 
    2100    1.2894722   -5.8662441            0   -3.9325193     5.667409    4339.8052 
    2200    1.2552388   -5.8913147            0   -4.0089272    5.7696762    4315.1797 
    2300    1.2196067   -5.9164318            0    -4.087479    5.6204064    4317.0603 
    2400    1.1914123   -5.9252677            0    -4.138596    5.5698785     4312.488 
    2500    1.2034451   -5.9408005            0   -4.1360841     5.558748    4306.9665 
    2600    1.1677648   -5.9477401            0   -4.1965308    5.7125267    4287.2725 
    2700    1.1599246   -5.9793388            0   -4.2398869    5.5914405    4285.0837 
    2800    1.1405629    -6.019837            0   -4.3094203     5.538225    4273.0923 
    2900     1.142378   -6.0309404            0   -4.3178017    5.5314332    4267.6353 
    3000     1.109604   -6.0323801            0   -4.3683902     5.614836    4258.8322 
    3100    1.1065708   -6.0538105            0   -4.3943693    5.6712032    4247.3425 
    3200    1.0968537   -6.0656816            0   -4.4208123    5.7710964    4231.8628 
    3300    1.0766048    -6.089925            0   -4.4754215    5.8411312    4214.5722 
    3400    1.0656403   -6.1237249            0   -4.5256641    5.7689694    4207.1225 
    3500    1.0481914   -6.1532021            0    -4.581308    5.8326798    4191.4889 
    3600    1.0632491   -6.1792171            0   -4.5847422    5.7297625    4189.0962 
    3700    1.0268404   -6.1938043            0   -4.6539287    5.6305054    4186.5141 
    3800     1.017955   -6.2332688            0    -4.706718    5.4257023    4187.3788 
    3900   0.97766422   -6.2248128            0   -4.7586831    5.3956512    4189.1675 
    4000   0.99902284   -6.2675409            0   -4.7693813    5.5574823    4163.5486 
Loop time of 0.65117 on 28 procs for 2000 steps with 4000 atoms

Performance: 530737.193 tau/day, 3071.396 timesteps/s
99.7% CPU use with 28 MPI tasks x no OpenMP threads

MPI task timing breakdown:
Section |  min time  |  avg time  |  max time  |%varavg| %total
---------------------------------------------------------------
Pair    | 0.32288    | 0.3463     | 0.36235    |   1.7 | 53.18
Neigh   | 0.043585   | 0.045301   | 0.047604   |   0.4 |  6.96
Comm    | 0.18785    | 0.20746    | 0.23941    |   2.5 | 31.86
Output  | 0.00042013 | 0.00043096 | 0.00054519 |   0.0 |  0.07
Modify  | 0.037481   | 0.0457     | 0.050763   |   2.3 |  7.02
Other   |            | 0.005983   |            |       |  0.92

Nlocal:        142.857 ave         151 max         135 min
Histogram: 1 2 3 6 4 1 4 2 4 1
Nghost:        2181.04 ave        2212 max        2162 min
Histogram: 2 4 4 3 9 1 3 1 0 1
Neighs:        15704.7 ave       17506 max       14453 min
Histogram: 1 4 4 6 4 2 5 0 1 1

Total # of neighbors = 439731
Ave neighs/atom = 109.93275
Neighbor list builds = 125
Dangerous builds = 0

#############################
# F R E E Z E  S Y S T E M  #
#############################

# Define solid atoms. This closely follows ten Wolde  Ruiz-Montero and Frenkel  Faraday Discuss  1996  104  93-110
# Compute components of the per-atom q6 vector
compute q6 all orientorder/atom degrees 1 6 components 6 nnn NULL cutoff 1.3 # compute the Q6 parameter.
                                                                             # Use all neighbours within 1.3 unit cell.

# get number of connections
compute coord_number all coord/atom orientorder q6 0.5

# An atom is solid if it has 8 or more connections (of a possible 14)
variable is_solid atom c_coord_number>=8
group solid dynamic all var is_solid    # Must be dynamic to update
dynamic group solid defined

# do clustering
compute cluster solid cluster/atom 1.3 # Create a cluster where all atoms within are solid and max 1.3 units from another member

# define chunks one chunk per cluster
compute clus_chunks solid chunk/atom c_cluster nchunk every compress yes  # Says which atoms are in which chunk

# count the size of each chunk
compute size_chunks solid property/chunk clus_chunks count


# Find the maximum entry in the vector of chunk sizes
variable max_n equal max(c_size_chunks)


# Thermo style which includes this variable
thermo_style custom step temp pe vol v_max_n

thermo ${N}  # Print the thermo information every 100 steps
thermo 100  

# Reset the npt fix at a lower temperature (below freezing)
fix 1  all npt temp  ${temp} ${temp}  0.1  iso  5.68  5.68  0.5  mtk yes tchain  5  pchain  5
fix 1  all npt temp  0.98 ${temp}  0.1  iso  5.68  5.68  0.5  mtk yes tchain  5  pchain  5
fix 1  all npt temp  0.98 0.98  0.1  iso  5.68  5.68  0.5  mtk yes tchain  5  pchain  5

dump dmp2 all dcd ${N} traj_${rand}.dcd
dump dmp2 all dcd 100 traj_${rand}.dcd
dump dmp2 all dcd 100 traj_462431.dcd


# fix rnuntil all halt ${N} v_max_n >= 3980 error soft message no   # Stop when solidified


run 100000 # 5000000  # Run for this many steps
Neighbor list info ...
  update every 1 steps, delay 10 steps, check yes
  max neighbors/atom: 2000, page size: 100000
  master list distance cutoff = 3.8
  ghost atom cutoff = 3.8
  binsize = 1.9, bins = 9 9 9
  4 neighbor lists, perpetual/occasional/extra = 1 3 0
  (1) pair lj/cut, perpetual
      attributes: half, newton on
      pair build: half/bin/atomonly/newton
      stencil: half/bin/3d
      bin: standard
  (2) compute orientorder/atom, occasional
      attributes: full, newton on
      pair build: full/bin/atomonly
      stencil: full/bin/3d
      bin: standard
  (3) compute coord/atom, occasional
      attributes: full, newton on
      pair build: full/bin/atomonly
      stencil: full/bin/3d
      bin: standard
  (4) compute cluster/atom, occasional
      attributes: full, newton on
      pair build: full/bin/atomonly
      stencil: full/bin/3d
      bin: standard
Per MPI rank memory allocation (min/avg/max) = 9.377 | 9.382 | 9.387 Mbytes
Step Temp PotEng Volume v_max_n 
    4000   0.99902284   -6.2675409    4163.5486            3 
    4100   0.98044584   -6.2919207      4159.65            4 
    4200    0.9750572   -6.3102081    4149.6669            6 
    4300    0.9692666    -6.321669    4142.8888            5 
    4400   0.97525697   -6.3062973    4147.9233            9 
    4500   0.97650717   -6.2777559    4161.4823            7 
    4600    0.9738515   -6.3077551     4152.585            8 
    4700    0.9725662   -6.3202444    4142.0298            5 
    4800   0.99584381   -6.3288729    4135.2144            7 
    4900    0.9452055    -6.277255    4140.6518            5 
    5000   0.98242829   -6.2927267    4146.0012            4 
    5100   0.97605281    -6.305352    4141.7958            9 
    5200   0.97786032   -6.3466707     4138.475           10 
    5300   0.98395756   -6.3382624    4144.0409            7 
    5400    0.9741144   -6.3024135    4153.2986            5 
    5500   0.97231516   -6.2972468    4150.4575            5 
    5600   0.97860164   -6.3205727    4140.6806           11 
    5700   0.97124137   -6.3107048    4138.8954            4 
    5800   0.99493778   -6.3273829    4146.6288            5 
    5900   0.99204508   -6.2924704    4151.9516           11 
    6000   0.98817891   -6.3115913     4135.038            5 
    6100   0.98442458   -6.2958604    4130.6844            8 
    6200   0.98512819   -6.2779618    4128.0884            5 
    6300   0.98160269   -6.3119312    4123.7832            8 
    6400   0.96688775   -6.2989133    4118.0839           13 
    6500   0.98837875   -6.2970997    4142.3079            9 
    6600   0.97443265   -6.2801809    4143.5401            4 
    6700   0.98828512   -6.2839466    4142.2549            5 
    6800   0.96601857   -6.2938318    4132.7101            8 
    6900     1.010041   -6.3017845    4128.2123            4 
    7000   0.98705893   -6.2963491    4126.3216            5 
    7100   0.97879947   -6.3264049    4118.5293            9 
    7200   0.98584409   -6.3198981    4120.3005            7 
    7300   0.96803235   -6.3030666    4121.4979           11 
    7400   0.99025842   -6.3222764    4124.0517            5 
    7500   0.99520264   -6.3080763    4128.3459            8 
    7600   0.97754048    -6.325348    4135.1033            9 
    7700   0.99193538   -6.2936907    4128.3676            7 
    7800   0.97639109   -6.3090717    4126.4126           13 
    7900   0.97204495   -6.2925888    4127.0033           10 
    8000   0.98668228   -6.3145907    4142.5019            3 
    8100   0.99309757   -6.3135018    4141.0847            8 
    8200    0.9659528   -6.3190927    4138.1982            9 
    8300   0.99185607    -6.326839     4133.845           13 
    8400   0.97023739    -6.319546    4115.9941           12 
    8500    1.0005924   -6.3257084    4127.6037            6 
    8600    1.0023309    -6.334538    4129.7239            9 
    8700   0.97542669    -6.301155    4125.7229            6 
    8800   0.99941937   -6.2903054    4127.2258            6 
    8900    1.0073957   -6.2651245    4133.4681           13 
    9000   0.98074047   -6.2825582    4136.0537            9 
    9100   0.97898436   -6.2988506    4137.3421            4 
    9200   0.97856841   -6.2788401    4145.5925            5 
    9300   0.98461408   -6.3233823    4132.9367            9 
    9400   0.97574706   -6.2972097    4133.5797            6 
    9500     1.012938   -6.3028004    4141.6751            8 
    9600   0.97141873   -6.3067571    4138.1657            6 
    9700   0.98007784    -6.307005    4144.4637           11 
    9800   0.98301922   -6.3006517    4149.6281            5 
    9900   0.99054877   -6.3370763     4137.651           14 
   10000   0.98139346   -6.2896046    4141.5141            5 
   10100   0.97668904   -6.2957902    4143.6294            7 
   10200    0.9682476   -6.3221751    4142.8031           10 
   10300   0.97620361   -6.3085482    4147.2648           14 
   10400    1.0065451   -6.3013912    4140.9349            5 
   10500   0.96674819   -6.3148913    4136.9303            5 
   10600   0.96846393    -6.287439    4138.1866           12 
   10700   0.99799633    -6.297157     4147.583            6 
   10800   0.97700075   -6.3032547    4136.8537           10 
   10900   0.97401551   -6.2904412    4134.0515            3 
   11000   0.99690166   -6.2959616    4147.9072            6 
   11100   0.99744639   -6.3345888    4139.1163            3 
   11200   0.97291725   -6.3231121    4147.4902           11 
   11300   0.97973599    -6.305759    4148.4566            5 
   11400   0.97649825   -6.3095719     4145.212            5 
   11500   0.97552501   -6.3317697    4130.8366            6 
   11600   0.97960506   -6.3460322    4140.8991            7 
   11700   0.99343503   -6.3415586    4134.5615            8 
   11800   0.97654901   -6.3125124    4129.8865            5 
   11900   0.97132021   -6.3123219    4138.8176            6 
   12000   0.98369367   -6.2879663    4140.1813            5 
   12100   0.97568142   -6.3145791    4141.9785            6 
   12200   0.97859942   -6.3408044     4141.195            6 
   12300   0.96281352   -6.3501071    4123.5102            4 
   12400   0.96765693   -6.3103404    4140.2847            3 
   12500    0.9910464   -6.3062447     4143.833            8 
   12600   0.96665194   -6.3060341    4146.9383            5 
   12700   0.95990738   -6.3449119    4136.2543            4 
   12800    0.9670557   -6.3338468    4146.0068            6 
   12900   0.98721666   -6.3323678    4146.9886            4 
   13000   0.96095692   -6.3366574    4139.9502            6 
   13100   0.98404336   -6.3302714    4137.4708            6 
   13200   0.99915676   -6.3152893     4138.078            9 
   13300    0.9833927    -6.299254    4126.0029           10 
   13400   0.97932597   -6.3034581    4127.9602            8 
   13500   0.98119841   -6.2653285    4152.2358            4 
   13600   0.99211855   -6.2759091    4137.9324            8 
   13700   0.99568448   -6.3254292    4130.1252            7 
   13800   0.95285099   -6.2887955    4135.6688            8 
   13900   0.98990199   -6.3291547    4136.3812            6 
   14000   0.96970628   -6.3428842    4125.8043           15 
   14100    0.9684858   -6.3353739     4132.743           14 
   14200   0.98656444   -6.3165427    4133.2642            4 
   14300    1.0076903   -6.3194738    4142.1184            6 
   14400   0.96236477   -6.2906179    4147.0701            6 
   14500   0.98573486   -6.2993321    4140.4123            7 
   14600   0.95283687   -6.3097586    4132.6115            5 
   14700   0.96880203   -6.2829496    4135.3419           18 
   14800   0.98808837   -6.2865454    4136.6579            5 
   14900   0.96963135   -6.3107353    4127.0675           12 
   15000    1.0016386   -6.3238768    4137.1664            6 
   15100   0.99118456   -6.3011928    4127.2492            8 
   15200     0.968281   -6.2843985    4127.8437            6 
   15300   0.98549618   -6.3035545    4129.9874           14 
   15400   0.97112767   -6.3332961    4120.0109           10 
   15500    0.9720432   -6.3279142    4126.7902            9 
   15600   0.98846992     -6.30916    4127.1577            7 
   15700   0.97637076   -6.3282961    4125.3746            9 
   15800   0.95154907   -6.3157851    4116.1468            7 
   15900     1.005297   -6.3474995     4124.786           10 
   16000    0.9717349   -6.2740252    4128.3057            4 
   16100   0.99835711   -6.2871612    4141.6308            3 
   16200   0.97301661    -6.292302    4129.2764            5 
   16300   0.97700792   -6.2995452    4130.6125            3 
   16400   0.99985695   -6.3053362    4152.8806            4 
   16500   0.98806119   -6.2867723    4145.0537            5 
   16600   0.98024035   -6.3180667    4146.0358            7 
   16700   0.97598766   -6.2978234      4149.45            5 
   16800   0.96399549   -6.2926255    4157.4138            5 
   16900   0.98712975   -6.2894569    4144.6771            3 
   17000   0.96986161   -6.3017078    4125.6042            4 
   17100   0.98335539   -6.3016489     4132.164            5 
   17200   0.98347395    -6.289908    4130.6765            7 
   17300   0.98724626   -6.3069709    4129.4925           15 
   17400   0.98031411   -6.3113845    4119.7838            7 
   17500     0.976127    -6.315854    4122.1804           11 
   17600   0.97415992   -6.3007578    4143.8059            7 
   17700   0.97346321   -6.3017916    4143.8748            7 
   17800   0.98300702   -6.3144518    4135.9485            8 
   17900   0.99107882   -6.2842718    4155.9441           15 
   18000   0.96969204   -6.2844711     4152.265           12 
   18100   0.96830729   -6.2914694    4147.9448            9 
   18200   0.96376113   -6.3252501    4139.0259           15 
   18300   0.97517131   -6.3203534    4118.8598            9 
   18400   0.99979592   -6.3134711     4131.919           11 
   18500    0.9753574   -6.3212802    4121.6383           13 
   18600   0.98650855   -6.3330256    4112.9752            7 
   18700   0.99381778    -6.311185    4126.5886           11 
   18800     0.991481   -6.3053843    4137.3758            4 
   18900     0.986126   -6.2966778    4137.5128           12 
   19000    0.9732024   -6.3180176    4137.4902           22 
   19100   0.98053488   -6.2715089    4148.4435            5 
   19200   0.98192029   -6.2997789    4141.6481            7 
   19300    0.9996813   -6.3373163    4130.5967           15 
   19400   0.96748263   -6.3055352      4130.47            5 
   19500   0.97545137   -6.3068122    4144.8354            7 
   19600   0.98274422   -6.2944545    4152.3309            4 
   19700   0.97963901   -6.3120161    4150.2843            7 
   19800    0.9884878   -6.2945941     4145.149            5 
   19900    0.9611217     -6.28903    4147.1373            7 
   20000   0.98791761   -6.2845168    4144.6292            4 
   20100   0.97699591   -6.2782201    4143.7199            8 
   20200    0.9762315   -6.3067998     4135.583            5 
   20300   0.97461271    -6.281853    4142.5149            4 
   20400   0.99262283   -6.3127663    4146.6695            6 
   20500   0.96394766   -6.3070692    4136.7717            7 
   20600   0.97356431   -6.3410823    4125.0468           15 
   20700   0.98019246   -6.3094558    4126.2691            8 
   20800   0.98252358   -6.2768673     4131.374            7 
   20900    1.0162146   -6.2720917    4145.5714           12 
   21000   0.98504254   -6.2897355    4147.9478           14 
   21100   0.97184457   -6.3234189    4145.1652           12 
   21200   0.99172573   -6.3341379    4147.1379           13 
   21300   0.97379713   -6.3571154    4139.1197            7 
   21400   0.95666801   -6.3412587    4136.2198            6 
   21500   0.96209321   -6.2977349    4148.1646            9 
   21600    0.9862177   -6.3159682    4145.6383            8 
   21700   0.97498438   -6.3491075    4138.2113           11 
   21800   0.97645439   -6.3412168     4135.352            4 
   21900   0.97713103   -6.3287705    4128.1064           15 
   22000   0.96344015   -6.3073341    4144.7358            8 
   22100   0.99870085   -6.3009142    4146.2196            5 
   22200   0.96720931   -6.2816279    4136.7603            8 
   22300   0.96265183   -6.3232787    4135.1024            7 
   22400   0.95636438   -6.3200277    4135.0745            7 
   22500   0.98597709   -6.3104077    4139.1363            6 
   22600   0.95115763   -6.2938871    4145.0278            6 
   22700   0.97828273   -6.2883981    4153.5441            6 
   22800   0.98242896   -6.2996665    4143.2253            6 
   22900    0.9897978   -6.3159739     4137.555            6 
   23000   0.99187996   -6.2760469    4141.3461           14 
   23100   0.99728411    -6.300146    4143.2031           11 
   23200   0.96040257   -6.2952166     4146.943            9 
   23300   0.97757435   -6.3331534    4145.7561           13 
   23400   0.95905511   -6.3161396    4137.0039            5 
   23500   0.96663738   -6.2964405    4144.4131           11 
   23600   0.98018032   -6.2907928    4148.9382            5 
   23700    1.0061429   -6.2854142    4151.8551           12 
   23800   0.98290241   -6.2890109    4137.5917            5 
   23900   0.97636565   -6.3026739    4132.6548            3 
   24000   0.99058516   -6.3106534    4127.7738            6 
   24100    0.9811694   -6.2656314    4142.8235            8 
   24200     1.000702   -6.3104634    4135.1968            9 
   24300   0.98117332   -6.3156829    4132.3854            4 
   24400   0.99143741   -6.2830833    4139.0829            6 
   24500   0.98914896   -6.3009835    4142.4826            4 
   24600   0.97819565   -6.3250014    4128.3874           10 
   24700   0.97408375   -6.3254489    4136.9438            5 
   24800   0.98157849   -6.3053255    4147.7357            4 
   24900   0.95641291   -6.3173865    4141.7595            5 
   25000   0.96507805   -6.3148931    4147.3897            6 
   25100   0.99190501    -6.335318    4161.9705            6 
   25200   0.99901986   -6.2886975    4156.4762            7 
   25300   0.97146201   -6.2900362    4143.9093            8 
   25400   0.95011589   -6.2818682    4143.7425           14 
   25500   0.99567989   -6.2923915    4143.8595           15 
   25600   0.97908422   -6.2947005    4136.1008            6 
   25700    1.0108869     -6.30585    4133.7511            6 
   25800   0.96820598   -6.2944897    4135.4606            7 
   25900    0.9940298   -6.3030946    4133.3731            8 
   26000    1.0031059    -6.285297    4150.9981            4 
   26100    0.9894426   -6.2961866    4144.1865            7 
   26200   0.96878223   -6.3039451    4134.3936            6 
   26300    0.9810193   -6.3235304      4120.57           15 
   26400   0.96228166   -6.3320375    4119.6815            5 
   26500   0.96927616   -6.3044412    4133.4315            5 
   26600   0.98212545   -6.2822827    4136.2648            6 
   26700   0.98338154   -6.3059161    4138.8918            4 
   26800   0.96177591   -6.3066341    4140.4095            6 
   26900   0.98945985   -6.2938076     4137.503            3 
   27000   0.97281177   -6.3143934    4128.8617            5 
   27100   0.98070239   -6.2845075    4127.0151            5 
   27200    1.0006831   -6.2733386    4132.8935            7 
   27300   0.97564376   -6.2906305    4128.8462            6 
   27400    1.0044446   -6.3155724    4131.0768           17 
   27500   0.97217291   -6.3013532    4145.2933            7 
   27600   0.99175967   -6.2958915    4144.8933            9 
   27700   0.97497459   -6.3087187    4131.1098            7 
   27800   0.95977873   -6.2961542    4140.0008           10 
   27900   0.99251187    -6.300513    4155.8476           11 
   28000   0.97631569   -6.2856999    4149.1851            9 
   28100   0.95885449   -6.3183718    4152.9312           10 
   28200   0.98143706   -6.3017174    4159.7143            9 
   28300   0.97516218   -6.3137423    4154.6585            8 
   28400   0.94925725   -6.3039027    4143.1778            5 
   28500   0.98490382   -6.3038406    4144.9787            6 
   28600    0.9783959   -6.3363066    4137.5958           10 
   28700    0.9812003   -6.3384006    4138.1063            6 
   28800   0.98730539    -6.305439    4139.7971            7 
   28900   0.97008469   -6.2770581    4137.1186            7 
   29000    1.0036312   -6.2941472     4140.931            8 
   29100   0.97590533   -6.3057274     4150.424            9 
   29200   0.98547696   -6.2853625    4155.7794            5 
   29300   0.97528805   -6.3158852    4143.5786            8 
   29400   0.99221541   -6.3214793    4143.7756            5 
   29500   0.97710623   -6.2993889    4153.8029            7 
   29600   0.95601331    -6.291703    4152.3853            9 
   29700   0.98055417   -6.3214244    4140.1226            4 
   29800   0.99172907   -6.3264821    4140.3609           19 
   29900   0.99149731   -6.3001017    4150.6468           10 
   30000   0.97910895   -6.3039596    4143.7701            8 
   30100   0.97009883   -6.3373276    4132.0684            6 
   30200   0.97527029    -6.298721    4141.3663            7 
   30300   0.99575882   -6.3177073    4141.0999           11 
   30400   0.98255881   -6.3283522    4137.2367            5 
   30500    1.0050123   -6.3204175     4141.218            4 
   30600   0.97968791   -6.3063769     4136.572           10 
   30700   0.98915561   -6.3212655    4137.2958            5 
   30800   0.98159327   -6.2655487    4157.2269            3 
   30900   0.98251176   -6.3104454    4141.1724            4 
   31000   0.96761009   -6.3314838    4137.2459            7 
   31100   0.98832987   -6.3236764    4140.2937           11 
   31200    1.0098399   -6.3202479    4141.2526            7 
   31300   0.97121425   -6.3197835    4133.0401            6 
   31400   0.98755505   -6.3050214    4132.8108            7 
   31500   0.96329092   -6.3337039      4123.63            7 
   31600   0.99006982   -6.3130091    4124.1877            7 
   31700   0.97207343   -6.2930455    4128.5343            5 
   31800   0.98977224   -6.2743062    4133.2401            7 
   31900    0.9806849   -6.3139236    4138.2782            7 
   32000   0.97908257   -6.3439593    4145.4442            5 
   32100   0.97323748   -6.3161084    4155.8689            3 
   32200   0.95925912   -6.2996906    4158.0517            6 
   32300   0.95648286   -6.3262775    4145.4574            8 
   32400   0.96731824   -6.3130904    4145.3076            9 
   32500    0.9904983   -6.3121928    4149.6877            6 
   32600   0.98220232   -6.2994318    4139.9716            4 
   32700   0.96674857   -6.3131424    4143.2903            5 
   32800   0.98313089   -6.3073051    4136.5112            9 
   32900   0.97710242   -6.3308356    4132.0157            7 
   33000   0.98333816   -6.3028544    4136.1135            5 
   33100    1.0012346   -6.2891158    4137.8088            8 
   33200   0.97765466    -6.304252    4128.1315           11 
   33300   0.98447487   -6.3026934    4126.7255            6 
   33400   0.96334606   -6.3332833    4130.9611           14 
   33500    0.9883272   -6.3270916     4126.808            7 
   33600   0.97081098   -6.3446733    4122.2564            5 
   33700    0.9765989   -6.3253658    4116.7269            7 
   33800    0.9818995   -6.3015872    4127.7245            6 
   33900   0.96855729   -6.3344621     4125.531            6 
   34000   0.97539002   -6.3368812    4133.7465           10 
   34100   0.98102962   -6.3056363    4138.0797            5 
   34200    0.9951528   -6.3187511    4136.8571            8 
   34300   0.96807967   -6.3217486    4129.2188            7 
   34400   0.95088783   -6.3245144    4123.5622            5 
   34500   0.97087575   -6.2988975    4131.0389            7 
   34600   0.98684593   -6.2949463    4134.7562           19 
   34700   0.98196913   -6.3121864    4131.9813           10 
   34800   0.95531172   -6.2982858    4121.0554            7 
   34900   0.99260526    -6.298314    4138.3451            8 
   35000   0.97776703   -6.2712172    4131.4736            2 
   35100    1.0088704   -6.3070328    4131.2458            4 
   35200   0.97145503   -6.3141687     4127.379            6 
   35300   0.98531533   -6.3219337    4121.8443            8 
   35400   0.96946609   -6.3363179    4124.2783            5 
   35500   0.99475565     -6.33507    4140.2699            5 
   35600   0.99014236   -6.2911813    4138.4774            6 
   35700   0.98353347   -6.2976615    4135.5776            5 
   35800   0.95871758   -6.2888253      4133.66           10 
   35900   0.98715291   -6.2965074    4142.7062            7 
   36000   0.98079224   -6.3047482    4133.1053            5 
   36100   0.98205634   -6.2920928    4131.1445            5 
   36200   0.97934565   -6.3201157    4132.7639            7 
   36300   0.95553237   -6.3366169    4132.8943           13 
   36400   0.95864931   -6.2876996    4146.4716            7 
   36500   0.98226567     -6.29168    4144.5607            4 
   36600    1.0043958   -6.2842384    4140.0772            8 
   36700   0.97810407   -6.2753704    4140.4132            9 
   36800    1.0025905   -6.2978621    4136.7011            8 
   36900   0.98209647   -6.3065435     4138.632            6 
   37000   0.98086812   -6.2981648    4147.8116           11 
   37100   0.97652906   -6.2851608    4151.8863           16 
   37200   0.96912325       -6.313    4148.4573            8 
   37300   0.98267425   -6.3002973    4151.1446            9 
   37400   0.97838526   -6.2795563    4152.0838            4 
   37500   0.97775547   -6.3186957    4145.6365            4 
   37600   0.97177673    -6.320736    4141.2813            4 
   37700   0.99933878   -6.3261527    4149.4898            5 
   37800   0.98335724   -6.2788408    4156.2789            3 
   37900     1.017263   -6.2864107    4163.6733            4 
   38000   0.97219198   -6.2681936    4143.7247            3 
   38100   0.96731586   -6.3065442    4139.1783            6 
   38200   0.97890512   -6.3114751      4137.82            5 
   38300    1.0004344   -6.2851634    4143.4791            8 
   38400   0.98834101   -6.2968913    4135.1542            9 
   38500   0.97157139   -6.3054693    4133.5674           13 
   38600   0.99262158   -6.3052586    4135.4646            6 
   38700    0.9781284   -6.3035461    4132.7728            7 
   38800   0.98992774   -6.3217553    4128.8108            7 
   38900   0.97887442   -6.3274856     4119.802            6 
   39000   0.97662434    -6.331815    4120.3994           10 
   39100   0.99158291   -6.3211033    4119.5627           10 
   39200   0.96375038   -6.3223295    4127.2663           23 
   39300   0.98941506   -6.3180299    4137.9891           17 
   39400    1.0003907   -6.3191771     4125.758           11 
   39500   0.98504866   -6.3121941     4117.458            5 
   39600   0.99776771   -6.2732631    4128.6017            8 
   39700   0.99645996   -6.3075781    4120.1347           11 
   39800   0.99761693   -6.3191766     4122.919           11 
   39900   0.98815813   -6.2930602    4131.9448           15 
   40000   0.96066042   -6.2680067    4136.1441            8 
   40100   0.99384389   -6.3044741    4128.9193            5 
   40200    0.9717903   -6.3211919    4120.6439            6 
   40300   0.98022118   -6.2970199    4123.8782           13 
   40400   0.96907037    -6.291441    4132.3877            8 
   40500   0.99890312    -6.286765    4142.3496            6 
   40600    0.9793844   -6.3007761    4143.6982            7 
   40700   0.96227717    -6.334486    4136.7496            4 
   40800   0.98231565   -6.3278085    4124.8568            9 
   40900    0.9834575   -6.3066567    4134.9937            5 
   41000   0.98933206   -6.2860127    4142.4628            5 
   41100   0.97510512    -6.306243    4135.2941            4 
   41200   0.98860714   -6.3005468    4123.6063            5 
   41300   0.98005816   -6.3375477     4117.853            6 
   41400    0.9923463   -6.3176813    4118.0954           10 
   41500   0.99238109   -6.3152987    4138.2026           10 
   41600   0.97817238   -6.3257329    4144.0485           18 
   41700   0.94141744   -6.3029781    4142.7409           14 
   41800   0.97161162   -6.3134172    4144.4973           16 
   41900   0.98964401   -6.3121478    4140.2287           10 
   42000   0.97183789   -6.3229243    4128.1655           10 
   42100   0.97172124   -6.3010314    4136.4533           13 
   42200   0.99633525   -6.3159747    4133.2997           13 
   42300   0.99401985   -6.3301848    4123.5649            9 
   42400   0.95970696   -6.3268736     4115.076            5 
   42500   0.97461463   -6.3133789    4140.9707            4 
   42600   0.99012895   -6.3023219    4141.7546            3 
   42700   0.95148139   -6.3103878    4144.3207            5 
   42800   0.98621719   -6.3082378    4147.3893            5 
   42900   0.97687088   -6.2849024    4154.6704            6 
   43000   0.99184194   -6.2936251    4159.5074           13 
   43100   0.98117895   -6.3320008    4162.8423            6 
   43200   0.94605471   -6.3012984    4149.9013            6 
   43300   0.97467338   -6.3095359    4152.0808            4 
   43400   0.96522306   -6.2904643    4149.7253            8 
   43500   0.96686224   -6.3330155    4143.3078            5 
   43600   0.97235599   -6.3178873    4137.4322            2 
   43700   0.98515458    -6.298176    4143.9175            5 
   43800   0.97257803   -6.3088867    4133.4815            7 
   43900   0.98488099   -6.3434898     4132.459            6 
   44000    0.9806359   -6.3099644    4138.9405           11 
   44100   0.97521995   -6.3199593    4137.1624           11 
   44200    0.9920522   -6.3265994    4141.7289            5 
   44300    0.9999712   -6.2914267    4151.3393            3 
   44400   0.97286656   -6.2892288    4144.9195            4 
   44500   0.97752332   -6.2965498     4141.323            6 
   44600   0.97066393    -6.294591    4139.0968            7 
   44700   0.96968851   -6.3070337    4133.4064            7 
   44800   0.97454016   -6.3090647    4129.3381            3 
   44900   0.98912291   -6.2889833    4135.0333            7 
   45000   0.98075822   -6.2777675    4147.0201            7 
   45100   0.99796414   -6.3049486    4148.4852           10 
   45200    0.9832161   -6.3167848    4132.5521            6 
   45300    1.0020355   -6.3426707    4123.5052            6 
   45400    0.9612812   -6.3288753    4117.5941           15 
   45500   0.96542406   -6.3126816     4139.677           11 
   45600   0.98183014   -6.3344184    4133.9674           11 
   45700   0.96875774   -6.2936146    4137.2903           13 
   45800   0.98132321    -6.302731    4136.6792           13 
   45900   0.97534391   -6.3178953    4130.2962            7 
   46000   0.97002711   -6.3223059    4134.0539            6 
   46100   0.97156356   -6.2870686    4149.7022            6 
   46200   0.97794575   -6.2801812    4153.2127            7 
   46300    0.9690783   -6.3222255    4135.4591            4 
   46400    0.9894748   -6.3207599    4150.5181            8 
   46500   0.97273462   -6.2975004    4153.0751            5 
   46600   0.99259444   -6.2883486    4149.2291           11 
   46700   0.95484844   -6.2837364    4140.0868            8 
   46800   0.98059631   -6.2620009    4135.7582            6 
   46900   0.96551459   -6.2578204    4133.6196            4 
   47000   0.98454428   -6.3212342    4128.2777            4 
   47100   0.98496333   -6.3456661    4113.0629            9 
   47200   0.97609834   -6.3366819    4117.2738            6 
   47300   0.99100084   -6.3274108    4123.8907            8 
   47400   0.95602773   -6.3241713     4136.327            3 
   47500   0.97332589   -6.2944929    4139.9731            2 
   47600   0.97596897   -6.2778724    4150.4159            5 
   47700   0.98316853   -6.2752311    4149.2547           14 
   47800   0.98164417   -6.3086248    4133.9669            9 
   47900   0.98175544   -6.3010199    4141.4545            9 
   48000   0.99925561    -6.309289    4140.4955           11 
   48100   0.97825779   -6.3033066    4129.3734           11 
   48200    1.0002461    -6.303905    4130.6738            5 
   48300    0.9579273   -6.3075395    4128.1465            9 
   48400   0.99678949   -6.3372696    4124.0703            8 
   48500    0.9913701   -6.3039505    4142.2492            5 
   48600   0.98728462   -6.2750729    4132.5812            7 
   48700   0.98799816   -6.3027704     4133.859            4 
   48800   0.99600959   -6.2667286    4149.7315            3 
   48900   0.97270274   -6.2594412    4146.1042            5 
   49000   0.97528281   -6.2719554    4139.1361            4 
   49100   0.98825134   -6.2671539    4140.2045            5 
   49200    0.9718484   -6.2893765    4128.2564            4 
   49300   0.97364107    -6.291403    4122.9621            5 
   49400   0.98055542   -6.3291001    4119.3768            6 
   49500   0.98252343   -6.3027051    4109.4293            5 
   49600    1.0108694   -6.2886136    4125.2916            3 
   49700   0.98398803   -6.2952827    4124.5919            5 
   49800   0.97477876   -6.3004025    4117.6275            4 
   49900   0.99489349   -6.3374532    4119.6089           11 
   50000   0.98327729   -6.3570073    4125.1417            9 
   50100   0.98907554   -6.3347361    4127.3605           14 
   50200   0.95300644   -6.3050061    4127.4372           14 
   50300   0.98040823   -6.2984015    4132.9616           13 
   50400   0.98175813   -6.2993508       4144.9            9 
   50500   0.95283663   -6.3126274    4140.7871           10 
   50600   0.98860021   -6.3196173     4134.709           15 
   50700   0.96608493   -6.3033309    4132.7788           10 
   50800   0.99043155   -6.2889072    4137.5883            5 
   50900   0.97634993   -6.2885675    4127.1054            8 
   51000   0.95825224   -6.2947285    4130.3177            5 
   51100   0.99244929   -6.3168371    4143.9797            5 
   51200     1.001016   -6.3162293    4145.2063            4 
   51300   0.98593404   -6.2845839    4162.6349           10 
   51400   0.99044344   -6.3007985    4134.4285           17 
   51500   0.98093742   -6.3106069    4130.4762           13 
   51600   0.96796798   -6.3242953    4138.7127            5 
   51700   0.97266373   -6.3028022     4145.049            7 
   51800   0.98432335   -6.2900651     4156.544            7 
   51900   0.95797659     -6.31133    4151.4134            4 
   52000   0.98074513   -6.3289806    4154.2093           10 
   52100   0.97778074   -6.3478874      4133.15            5 
   52200   0.98808699   -6.3421499     4127.282            5 
   52300   0.98864976   -6.3056261    4136.9127            7 
   52400   0.96768928   -6.2925944     4143.802            7 
   52500   0.97809889   -6.2843048    4142.3784            5 
   52600    0.9867985   -6.3047178    4140.8965            3 
   52700   0.97945069   -6.3263751    4138.9154           12 
   52800   0.97326929   -6.2977529    4137.5118           11 
   52900   0.98992181   -6.2789352      4148.52            5 
   53000   0.96476979   -6.2888894    4147.4828            4 
   53100   0.98315425   -6.3142203    4142.6352            7 
   53200   0.95853051     -6.32347    4132.9591            4 
   53300   0.98854419   -6.3212462     4135.674            7 
   53400    0.9798211   -6.3056273    4141.8208            6 
   53500   0.99384384   -6.3200636    4132.2499            9 
   53600   0.96583256   -6.3206011     4134.089            6 
   53700    1.0038404    -6.323455    4135.0261            4 
   53800   0.99694547   -6.2910843    4131.2783            8 
   53900   0.96081588   -6.2890241    4141.0806            7 
   54000   0.99616048   -6.3049547    4141.1453            2 
   54100   0.99758994   -6.2904496    4144.4378            4 
   54200   0.97217516   -6.3040644    4132.0858           14 
   54300   0.96283134   -6.3111545    4136.0274           10 
   54400   0.95990372   -6.2597669    4148.1459            8 
   54500   0.98850174   -6.2761757    4153.8878            9 
   54600   0.97770892   -6.2987571    4139.5201           13 
   54700   0.97434693   -6.3121167    4133.0695           13 
   54800   0.99208247    -6.281641    4133.0007            6 
   54900   0.98900453   -6.3007778    4127.2856            8 
   55000    0.9765462   -6.3141997    4107.4341            7 
   55100   0.96862286   -6.3135736    4125.1576            4 
   55200   0.98930193   -6.3266301    4135.7607            8 
   55300   0.97572771   -6.3364895    4132.5113            8 
   55400    1.0008246   -6.3229346    4125.1412            6 
   55500   0.98676321   -6.3178127    4127.8795            4 
   55600    0.9705718   -6.3250805    4130.8921            8 
   55700   0.98606805   -6.3248614    4140.5478            6 
   55800   0.97725522   -6.3259861     4130.682            9 
   55900   0.95354151   -6.3197459    4132.7097           15 
   56000   0.99747279    -6.330375    4132.5035           12 
   56100   0.99558757     -6.32654    4132.0284           10 
   56200   0.98180948   -6.2865543    4141.8836            7 
   56300   0.97781613   -6.3171697    4136.3763            6 
   56400   0.99731998   -6.3226123    4138.2321            4 
   56500   0.98906302    -6.276741    4145.6139            5 
   56600   0.97347794   -6.2950603     4140.371            6 
   56700    0.9562866   -6.2969373    4140.9243           10 
   56800   0.98076181    -6.309025    4144.6374            5 
   56900    0.9836351   -6.2829744    4147.0145            4 
   57000   0.98307977   -6.3247645    4139.7837            9 
   57100     0.969213   -6.3277361    4135.6814           13 
   57200   0.95778211    -6.320485    4134.4007           12 
   57300   0.97518546    -6.307999    4141.7178           16 
   57400   0.99337128   -6.3066666    4151.0853            7 
   57500   0.98685146   -6.3112214    4156.6579            4 
   57600   0.98092516   -6.3004932    4147.1247            6 
   57700   0.99154976   -6.2876372    4161.4444            4 
   57800   0.97353289   -6.2784532    4159.7452            6 
   57900    0.9789239   -6.3118074    4144.5922            5 
   58000   0.98350028   -6.3100748    4138.5335            6 
   58100   0.97090866    -6.303246    4145.9313            7 
   58200    0.9880429   -6.2891149    4161.7583           17 
   58300   0.99629744   -6.3048842    4150.3319            5 
   58400    0.9692798   -6.3151436    4145.4829           11 
   58500   0.97335155   -6.3108431    4148.3665            4 
   58600   0.96772838   -6.3196956    4150.5626            7 
   58700   0.95764579   -6.3389202    4139.3029            7 
   58800   0.98376567   -6.3247621    4143.6303            9 
   58900   0.97628143   -6.2989728    4140.5515            3 
   59000    0.9893829   -6.2764578    4138.2119            5 
   59100   0.98340978   -6.2939169    4139.1526            4 
   59200   0.97624048   -6.2765105    4132.4531            5 
   59300   0.98320291    -6.285169    4138.0709            3 
   59400   0.99003163   -6.3098503    4130.2923            5 
   59500   0.96100338   -6.3081107    4119.5012            7 
   59600   0.99495144   -6.3136896    4131.3277            7 
   59700    0.9852986   -6.3220385     4122.947            5 
   59800   0.96576264   -6.3178833    4131.5113            2 
   59900   0.99299572   -6.3326182    4133.2109            7 
   60000   0.98747275   -6.3092608    4128.8734           10 
   60100   0.96933794   -6.3022221    4125.6623            4 
   60200    0.9876726   -6.3138795    4126.0841            4 
   60300    1.0003984   -6.3179916    4134.5521            6 
   60400   0.97188164   -6.3155741    4127.3957            7 
   60500    0.9816427   -6.3278848    4124.1747            6 
   60600   0.99796398   -6.3120779    4117.4056            9 
   60700   0.98799635   -6.3471588    4113.9384            5 
   60800   0.98013142   -6.3262009    4118.0847           14 
   60900   0.97972071   -6.3109682    4134.8204           13 
   61000   0.96399725   -6.3243535    4134.7428           10 
   61100   0.98099628   -6.3129001    4136.6156            6 
   61200   0.97390957   -6.2934722    4147.9919            6 
   61300   0.97333898   -6.2980796    4133.7168           10 
   61400   0.98321929   -6.2903303    4134.2955            6 
   61500   0.97576606   -6.2877361    4134.7048            5 
   61600   0.99243301   -6.2922912    4138.3561            4 
   61700     1.001769   -6.3031538    4132.9901            6 
   61800   0.98039052   -6.3030568    4125.3612            6 
   61900   0.99058834   -6.2776948    4139.8119            7 
   62000    0.9736895   -6.2762051    4140.5096            9 
   62100   0.98604748    -6.331232     4130.973            6 
   62200    0.9879805   -6.3137099      4127.88            9 
   62300   0.99384168   -6.2949724    4123.4461            7 
   62400   0.97660891   -6.3236567    4125.5721            5 
   62500   0.99646429   -6.3156129     4126.194            6 
   62600    0.9562752   -6.3094264    4115.7701            6 
   62700    0.9788078   -6.3067759    4122.0542            7 
   62800   0.98159843   -6.3041573    4131.0925            3 
   62900   0.97882489   -6.3161601    4132.4859            4 
   63000   0.96683117   -6.3288613    4131.2261            4 
   63100   0.97518666   -6.3068883     4147.814            5 
   63200    0.9741194   -6.3199186    4150.8113            9 
   63300    1.0001315   -6.3141557    4149.1806            8 
   63400   0.98485925   -6.3352903    4150.4459           10 
   63500   0.96039071   -6.3155186     4152.902           14 
   63600   0.98138005    -6.307996    4147.7897           15 
   63700   0.95859424   -6.3033394    4142.4224            6 
   63800   0.96854989   -6.2981618    4147.7767            6 
   63900    1.0020421   -6.3066833    4147.8662           10 
   64000   0.97516739   -6.3008916    4135.3724            7 
   64100   0.97125038   -6.2994763    4135.0032           10 
   64200   0.98818125   -6.3269695    4145.7843            7 
   64300   0.97938511   -6.3425381    4138.9085            5 
   64400   0.98712572   -6.3206795    4143.1905            4 
   64500   0.99340751   -6.2935591    4159.8808            8 
   64600   0.98089997   -6.2826402    4149.7668            8 
   64700   0.96857669   -6.3068383    4150.4036            7 
   64800   0.98308822   -6.3151473    4162.0356            8 
   64900   0.96307138   -6.3095783     4163.552            7 
   65000   0.97016155   -6.3299791    4150.4296           13 
   65100    0.9903551    -6.327923    4147.6258           14 
   65200    0.9756265   -6.2734746    4154.1748           10 
   65300   0.99972545   -6.2591913       4159.5            8 
   65400   0.98967009   -6.2898449     4153.201            5 
   65500   0.97064223   -6.2842391    4149.9531            5 
   65600   0.98891329   -6.3289577    4149.6877            6 
   65700   0.97580621   -6.3443941    4138.5432            6 
   65800    0.9698723   -6.3235711     4140.544            8 
   65900   0.96736817   -6.2840478    4148.2841            6 
   66000   0.97320287   -6.3209878    4140.6228            4 
   66100   0.96688475   -6.3054834    4131.7606            8 
   66200   0.99263332   -6.2965975    4143.7905            7 
   66300   0.97613085   -6.3208198    4148.1534            5 
   66400   0.97497639   -6.3301054    4145.3923            8 
   66500   0.95103528   -6.3309585     4128.248            7 
   66600   0.98176802   -6.3311863    4133.3161            9 
   66700   0.98724945   -6.3031009    4137.4025           18 
   66800   0.99964799    -6.293385    4136.8809            7 
   66900    1.0086826    -6.334308    4126.9507           16 
   67000   0.96795985   -6.3002942    4126.2182           12 
   67100   0.97258351   -6.2905102    4131.9392           13 
   67200   0.99080228   -6.2777582    4136.5955            5 
   67300   0.99117964   -6.3284387    4125.1633            7 
   67400   0.99263656   -6.3333407    4127.2655           20 
   67500   0.98470744   -6.3043883    4132.2516            7 
   67600   0.99666023   -6.2735877    4141.1384            5 
   67700   0.98582907    -6.302077    4129.9009            4 
   67800    0.9648358   -6.2905923    4135.5873            5 
   67900    1.0030056   -6.3057292    4140.4994           10 
   68000   0.98388401   -6.2971283    4134.8629            5 
   68100   0.99889441   -6.3135249    4137.3955            7 
   68200   0.98493554   -6.3022031    4142.3221            8 
   68300   0.96393398   -6.2960028     4140.757           10 
   68400   0.98495356   -6.2876582     4141.956            3 
   68500    0.9906106   -6.2934105    4138.1745            6 
   68600   0.95963443   -6.2994045    4128.6025            4 
   68700   0.99332049    -6.323637    4133.5183            5 
   68800   0.97050715   -6.3064432    4136.8618            8 
   68900   0.97165294   -6.3007211     4134.746            5 
   69000   0.98188049   -6.2800067    4154.3493            5 
   69100   0.98210913   -6.2793414    4141.7582           13 
   69200   0.98152277   -6.2849251    4129.0788            8 
   69300   0.99750799   -6.3135663    4130.0546           12 
   69400    1.0058287   -6.3216376    4134.6131            8 
   69500   0.97335364   -6.3229997    4122.9857            4 
   69600   0.97622075   -6.3293439    4126.5235            6 
   69700   0.98888482   -6.3012452    4142.0144            9 
   69800   0.98552037   -6.2960422    4148.0422            4 
   69900   0.98034395   -6.3022127    4137.2623            5 
   70000   0.97578774   -6.2965115    4135.7602            5 
   70100   0.98987673   -6.2770054      4145.75            9 
   70200   0.96851019   -6.2969829    4135.4818            5 
   70300   0.96905066   -6.2948762    4134.2968            4 
   70400   0.98676808   -6.2848306    4149.2851            4 
   70500   0.96441094   -6.3093473    4150.3413            4 
   70600   0.98051699   -6.3101084     4145.671           10 
   70700   0.98029293   -6.2915007    4140.7677            9 
   70800   0.99653982   -6.3158867    4135.3207            6 
   70900   0.98720985   -6.3136101    4121.2451            7 
   71000   0.99971674   -6.2920793    4126.3521            4 
   71100   0.99265942   -6.2934668    4124.8983            5 
   71200   0.98136267   -6.3022016    4127.6701            5 
   71300   0.96366528   -6.3075248    4121.7844            5 
   71400   0.99230253   -6.3283106    4114.4075            7 
   71500   0.99322199   -6.2979392    4126.5339            8 
   71600   0.98915013   -6.2772284    4135.2997            8 
   71700   0.98440349   -6.3033659     4132.183            4 
   71800   0.96244661   -6.3171165    4131.1809            5 
   71900   0.99518123   -6.3288412    4144.9276            7 
   72000   0.99278653   -6.3182184     4130.671            5 
   72100    0.9724516    -6.312471    4136.6082            8 
   72200   0.98718785   -6.3382022     4137.153            6 
   72300    0.9746983   -6.3351563    4132.2015            9 
   72400   0.98485571   -6.3041805    4150.1353            6 
   72500   0.97184895   -6.2860858    4141.9913            7 
   72600   0.97993481   -6.3042454    4134.7336            4 
   72700   0.96891469    -6.298711    4136.3492            9 
   72800   0.98709801   -6.2891034    4134.2333            6 
   72900    1.0081139   -6.3030148    4138.9733            6 
   73000   0.97570769   -6.2973888     4121.563            4 
   73100   0.97360728    -6.307268    4119.2949            9 
   73200   0.98103331    -6.308159    4127.3514            7 
   73300   0.97832971   -6.2929145    4129.1737           17 
   73400   0.95941843   -6.3149773    4121.9228           11 
   73500   0.98356392   -6.3137367    4119.5562           12 
   73600   0.97962795   -6.2998783    4132.6126            4 
   73700   0.96778951   -6.2906891    4146.7179           10 
   73800   0.99802583   -6.2861156    4144.6892            6 
   73900   0.96971819   -6.2873234    4136.5815            8 
   74000    0.9862262   -6.3318007    4130.3501           10 
   74100    0.9650101   -6.3103631    4125.6352            8 
   74200   0.98260895   -6.3008176    4143.5195            3 
   74300   0.98689796   -6.3075925    4147.5286            4 
   74400   0.99382683   -6.2697785    4153.6663           12 
   74500   0.99580725   -6.2862757    4139.9035            7 
   74600   0.99494521   -6.3238055    4134.4444            9 
   74700   0.98384487   -6.3166141    4132.8672            3 
   74800   0.98247809   -6.3149783    4134.9896            7 
   74900   0.97384043     -6.33216     4137.264            9 
   75000   0.96600082   -6.3306399    4145.5807           14 
   75100   0.97144611   -6.3236787    4139.9996           11 
   75200   0.99852825   -6.3339496    4132.7851            5 
   75300    0.9755712    -6.304907    4145.3132           11 
   75400   0.97219018   -6.2797414    4140.4742           10 
   75500   0.98983664   -6.2880746    4139.7599           19 
   75600   0.97628081   -6.3184533    4132.2121            5 
   75700   0.96339386   -6.3002319    4123.9206           25 
   75800   0.98517414   -6.3018045    4129.0767           14 
   75900   0.99341308   -6.2973832    4140.6501           15 
   76000   0.96329182   -6.2880942    4146.3418           14 
   76100   0.96507861   -6.3252952    4140.5466           10 
   76200   0.98221367   -6.3457708    4140.5734           11 
   76300   0.94989861   -6.3455343    4135.8735            9 
   76400   0.96459265   -6.3250829    4143.2311            6 
   76500   0.96575098   -6.2941139    4139.5227            3 
   76600   0.96106846   -6.3233367     4131.061           12 
   76700   0.97576943   -6.3242172    4122.9789            7 
   76800   0.99157303   -6.2959256    4129.1781            7 
   76900   0.99434107   -6.3314802    4130.4569            6 
   77000   0.96346798   -6.3203477    4126.3511           10 
   77100   0.99651505   -6.3232029     4136.386            5 
   77200   0.97730917   -6.2945031    4135.9473            7 
   77300   0.98530334   -6.3129144    4143.8036            6 
   77400   0.96121157   -6.3238181    4133.3739            6 
   77500   0.97671352   -6.3316947    4133.1183            5 
   77600   0.99444224   -6.3508078    4137.3775            6 
   77700   0.96314573   -6.3104166    4130.2196           10 
   77800   0.99543806   -6.3174687    4140.4654            5 
   77900   0.97392491   -6.3301155    4132.0352            6 
   78000   0.95315187   -6.3140916    4132.2659            9 
   78100   0.99771271   -6.3374848     4134.614            5 
   78200   0.96099013   -6.3190801    4152.0488            7 
   78300   0.98411687   -6.3310791    4158.7092           11 
   78400   0.96430803   -6.3309335    4150.4031           15 
   78500    0.9697094   -6.3095737    4138.4771            8 
   78600   0.98013888   -6.3027022    4153.6048            7 
   78700   0.99633357    -6.294095     4156.709            6 
   78800   0.96804491   -6.2758151    4157.1673            6 
   78900   0.97450377   -6.2987462    4148.8403            6 
   79000   0.95759671   -6.2809529    4145.6319            6 
   79100   0.97859667   -6.2857535    4139.4412            7 
   79200   0.99278294   -6.2606898    4148.7175            5 
   79300   0.98534841   -6.2969632    4140.7313           17 
   79400   0.97114188   -6.3091238    4140.6099            5 
   79500   0.96855727   -6.3007517    4148.9018            5 
   79600   0.98264876     -6.28244    4151.3043            5 
   79700   0.97375301   -6.3116259    4140.6218           10 
   79800   0.99537128   -6.3108413    4135.7084           16 
   79900   0.97168754   -6.3097389    4139.6456            4 
   80000   0.97266847   -6.3047286    4133.8356           11 
   80100   0.96612066   -6.3041429    4132.5294            6 
   80200    0.9761606   -6.3277153    4141.4933           11 
   80300   0.98698087   -6.2902008    4147.8303            6 
   80400   0.98624437   -6.3215047    4141.2787            4 
   80500   0.97582345   -6.3237581    4146.2711            4 
   80600   0.95909768    -6.276132    4153.8454            8 
   80700    0.9809134   -6.2829235    4146.3445            8 
   80800   0.98981039    -6.322908    4137.4411            8 
   80900   0.96498195   -6.3019679     4137.195            8 
   81000   0.98658459   -6.3028449    4152.6147            8 
   81100    0.9884301   -6.3109772    4145.3852            4 
   81200   0.97849659   -6.3373119    4147.7971            5 
   81300   0.97279667   -6.3409526    4146.5314           10 
   81400   0.97907496   -6.3141136    4142.7319            5 
   81500   0.97475335   -6.3280773    4138.0566            6 
   81600   0.98474877   -6.3069438    4140.0779            3 
   81700     1.001342   -6.3018778    4143.2309            3 
   81800   0.97740121   -6.3103815    4140.4741            8 
   81900   0.98655753   -6.3036239    4153.4898            8 
   82000   0.96805452   -6.2586833    4162.3931           10 
   82100   0.97081565   -6.3239574    4140.9697            3 
   82200   0.99093588   -6.3294786    4143.3545            6 
   82300   0.98874162   -6.2760691    4159.6735           13 
   82400   0.98995741   -6.3111436     4150.565           11 
   82500   0.97122703   -6.3093011    4142.0009            9 
   82600   0.99661259   -6.2955562     4134.757            6 
   82700   0.98510368   -6.2781268    4140.5364            9 
   82800    0.9907755   -6.3207424    4131.0457            5 
   82900   0.97126118   -6.3012765     4127.765            6 
   83000   0.98010651   -6.2914086    4131.4325            5 
   83100   0.99887046   -6.2732002    4139.5574           15 
   83200   0.99492355   -6.3300838    4138.0524            4 
   83300   0.98056833   -6.3377861    4137.0825            9 
   83400   0.96667422   -6.3187536    4138.0046           11 
   83500   0.97302254   -6.3032108    4146.6987            5 
   83600    0.9592152   -6.3362956    4144.1112            6 
   83700   0.95440875   -6.3270421    4145.9425            7 
   83800   0.97720988    -6.311636     4151.745            4 
   83900   0.96779566    -6.297093     4153.965           11 
   84000   0.97456622   -6.3028298    4144.6164            5 
   84100   0.95899963   -6.3275502    4135.5554            4 
   84200   0.98093489   -6.3093378    4143.9005            9 
   84300   0.99110698   -6.3025359    4137.2337            7 
   84400   0.96582717   -6.2998508    4128.3461            5 
   84500      0.99693     -6.30837    4128.1713            6 
   84600   0.97232286   -6.3031196    4129.6529            9 
   84700   0.98634168   -6.3091426    4138.4719            4 
   84800    1.0016421    -6.302877    4132.3396            5 
   84900   0.97877524   -6.3253926    4131.3771           10 
   85000   0.97399462   -6.3189642    4131.7533            5 
   85100   0.96621062   -6.3319471    4123.3883           13 
   85200   0.98745253   -6.3548817    4125.1274           10 
   85300   0.98234332   -6.3007076      4126.89           10 
   85400   0.98571687     -6.28894    4132.1271            6 
   85500   0.99492506   -6.3049073    4137.3499            9 
   85600   0.98152996   -6.3354197    4138.9697           10 
   85700   0.97518159   -6.3083496    4136.9844            4 
   85800   0.97473654   -6.2992802    4148.4964            5 
   85900   0.95769467    -6.271155    4148.1503            4 
   86000   0.96290555   -6.3372385    4143.5455            5 
   86100   0.98358091   -6.3072194     4143.895            6 
   86200   0.99913272   -6.3137584    4137.3679            6 
   86300   0.96951314   -6.2975061    4136.1895            6 
   86400   0.97870818    -6.292152     4141.112            9 
   86500    0.9887954   -6.3123289    4138.9566            8 
   86600   0.98054592   -6.3320308    4120.6564            6 
   86700   0.98793273   -6.2866272    4125.9963           16 
   86800   0.99895034   -6.2901199      4126.05           19 
   86900   0.97922986   -6.3051646    4127.4543            8 
   87000   0.97449419   -6.3302525    4130.2913            4 
   87100   0.94803825   -6.3386867     4128.313            6 
   87200   0.98575529   -6.3406056    4145.5832            3 
   87300   0.96980347   -6.3227355    4143.8164            6 
   87400   0.98162895   -6.3138795     4141.484            9 
   87500   0.98923851   -6.3142715     4151.029            8 
   87600   0.97726848   -6.3293103    4128.6486            7 
   87700   0.97440472   -6.3314241     4130.545            8 
   87800    0.9771641     -6.33027    4140.2041            8 
   87900   0.97705531   -6.3069064    4141.8282           15 
   88000   0.96867723   -6.2966545    4147.8065           10 
   88100   0.96981914   -6.3074924    4139.0505            4 
   88200   0.97256811   -6.3072837    4132.2891            6 
   88300   0.97299545   -6.2787571     4133.822            7 
   88400   0.97701881   -6.3089239    4140.0092            5 
   88500   0.95675945   -6.3080726    4124.9459            6 
   88600   0.98705765   -6.3178198    4134.3151            7 
   88700   0.98526561   -6.2993076    4140.4103            6 
   88800   0.95909057   -6.3213968    4132.6688            8 
   88900   0.97522558   -6.3466014    4136.6988            9 
   89000     0.963295   -6.3347451    4151.8863            6 
   89100   0.97452034   -6.3100795    4143.1613            4 
   89200    1.0005321   -6.3281679    4150.4485            4 
   89300   0.96922494   -6.2657273    4154.7918            6 
   89400   0.97499568   -6.2899305    4142.3486           10 
   89500   0.96609284   -6.3155946     4137.721            8 
   89600   0.99960113   -6.3142727    4150.5252           10 
   89700   0.97724623   -6.3032865      4148.82            6 
   89800   0.97490384   -6.3539779    4141.9303            7 
   89900   0.97630749   -6.3281644     4141.303           10 
   90000   0.97541562   -6.2978781      4152.87            9 
   90100   0.96992159   -6.3167591    4152.6713            3 
   90200   0.94851474   -6.3328883    4140.6718            8 
   90300   0.97726042   -6.3327389    4139.6829            6 
   90400   0.98630597   -6.3632822    4135.0144            6 
   90500   0.97676635   -6.3468138    4129.1475            9 
   90600   0.98851624   -6.3284358    4130.9343           16 
   90700   0.99480279   -6.2911363    4134.9899           10 
   90800   0.97063717   -6.3093958    4135.3489           15 
   90900   0.97146525   -6.2950649    4133.1011            9 
   91000   0.99579856   -6.2819607    4134.4949            8 
   91100   0.98311002   -6.2888612    4136.2501            6 
   91200   0.98498238   -6.3017716    4134.5491           11 
   91300   0.96464073   -6.3114748    4126.1737            9 
   91400   0.99186958   -6.3207145    4134.9456           11 
   91500   0.99163137   -6.2787749    4140.3727           12 
   91600   0.99556117   -6.3036179    4133.6113            6 
   91700   0.97622766   -6.3029189    4131.5924           11 
   91800   0.99086637   -6.2768311    4152.4758            5 
   91900   0.97786302   -6.2857383    4142.0489           11 
   92000   0.97811565   -6.2985907    4136.1883            7 
   92100   0.95524231   -6.3109003    4145.3334            4 
   92200   0.96873411   -6.2960298    4147.2314            4 
   92300     1.002867   -6.2924313    4157.8842            7 
   92400   0.97940166   -6.2752308    4151.7039            4 
   92500    1.0008725   -6.3024241    4143.5362            5 
   92600   0.97094491   -6.2798852    4142.6718           12 
   92700    1.0047016   -6.2860144    4153.6006            7 
   92800    0.9678133   -6.2729448    4148.2426            6 
   92900   0.98428414   -6.2974789    4143.5509            7 
   93000   0.97926349   -6.3164566    4137.0401            6 
   93100   0.96360631   -6.3229346    4130.5168            9 
   93200    0.9807927   -6.3147086    4135.5694            4 
   93300   0.98228815   -6.3299582    4142.4903            5 
   93400   0.98100314   -6.3246802    4129.6184            3 
   93500    1.0049864   -6.3178446    4136.9221            4 
   93600   0.97441432   -6.3031391    4129.8095            9 
   93700   0.98131556   -6.2732745    4137.5018            8 
   93800   0.98914675   -6.3100012    4128.6464            8 
   93900   0.98010652    -6.331953    4119.9623           10 
   94000    0.9844115   -6.3123357    4123.5386           15 
   94100    0.9867684   -6.2978552    4125.3459            7 
   94200   0.98090537   -6.3096196    4119.6239            9 
   94300   0.98991833   -6.3179767     4129.078            7 
   94400   0.96573878   -6.2840038    4136.6673           10 
   94500     1.001927   -6.3217353    4140.3102            7 
   94600   0.97770671   -6.3274876    4124.2347           12 
   94700    0.9795317   -6.3367493     4127.652           13 
   94800   0.96280197    -6.301969    4135.4371            9 
   94900   0.97093723    -6.279739    4132.8936           15 
   95000   0.97568042   -6.2817008     4143.306           13 
   95100    1.0043506   -6.2992572    4151.9544            6 
   95200   0.96587373   -6.2933298    4135.8416            6 
   95300   0.99443278   -6.2954137     4131.263            9 
   95400   0.97972329   -6.3327926    4123.7206            9 
   95500   0.94643626   -6.3114764    4125.7814            3 
   95600   0.98235614   -6.3232812    4127.8115            6 
   95700   0.95760466     -6.29081    4132.2745            6 
   95800   0.99313824   -6.3071788    4147.4752            7 
   95900   0.99617629   -6.3246539    4145.6854            5 
   96000    0.9600758   -6.3174345    4134.6357            5 
   96100   0.97840002   -6.2970846    4138.7776           10 
   96200   0.96179511   -6.2851501    4141.5305            7 
   96300    1.0020899   -6.3045921    4139.0083            4 
   96400   0.98859543   -6.3175001    4112.1821            7 
   96500   0.97732966   -6.3007857    4118.6895            8 
   96600   0.97963543    -6.318413     4116.743            5 
   96700   0.96803303   -6.2906585    4124.6113            5 
   96800   0.98302788   -6.2915434    4129.7794           14 
   96900   0.96762173   -6.3221364    4130.0739            9 
   97000   0.96877503   -6.2955084    4129.9209            6 
   97100   0.98898327   -6.2961274    4134.1708            5 
   97200   0.96853876   -6.3106452    4119.1399            6 
   97300   0.99220273    -6.336727     4120.614           12 
   97400    1.0039557   -6.3240163      4128.68           12 
   97500   0.99253572   -6.3198529    4130.7748            5 
   97600   0.96572057   -6.3267214    4131.7218            7 
   97700   0.98176713   -6.3046684    4147.0311           14 
   97800    0.9740029    -6.328445    4150.9003            6 
   97900   0.96243269   -6.3099887    4134.6004            6 
   98000   0.97790102   -6.3385258    4127.5926            9 
   98100   0.98118086   -6.3216306    4130.0572            5 
   98200   0.96964956   -6.2884963    4140.5359            6 
   98300   0.98103037   -6.3074111    4145.1188            5 
   98400   0.96524638   -6.3178305    4140.1139            5 
   98500   0.98532812    -6.311855    4140.0137            5 
   98600   0.98444021    -6.298797    4145.1285           11 
   98700   0.95603599   -6.2824082    4139.0209            7 
   98800   0.98641786   -6.2728445    4140.7256            4 
   98900    0.9905795   -6.2948447    4145.0152           19 
   99000   0.96108877   -6.2853288    4131.8526           11 
   99100   0.98505564   -6.2883686     4133.802            5 
   99200   0.98020889   -6.2692643    4131.9464            6 
   99300   0.99487331   -6.2863488    4132.7171           12 
   99400    0.9652611   -6.2946264    4128.8866            9 
   99500   0.99408827   -6.2922452    4145.9087            4 
   99600      0.97705   -6.2993366    4141.6482            7 
   99700   0.96521181   -6.3200184    4129.3959            7 
   99800   0.97687088   -6.3497898    4120.9253           12 
   99900   0.97843132   -6.3089829    4129.1803            5 
  100000   0.98205689   -6.3047764    4131.5857            7 
  100100   0.96524932   -6.3188406    4128.5225           13 
  100200   0.97541157    -6.294973    4139.7504           10 
  100300   0.97319114   -6.2861827    4145.9356            7 
  100400   0.99989695   -6.3132213    4149.1663            6 
  100500   0.96516728   -6.2948599    4141.5737            6 
  100600   0.96769029   -6.2913881    4136.9311            7 
  100700   0.97372024   -6.2776123    4148.1075            6 
  100800   0.95187463   -6.2953788    4144.2106            9 
  100900   0.97320075   -6.2851949    4139.5514           11 
  101000   0.98256047   -6.2872019    4146.5411            5 
  101100   0.96915646   -6.2852421    4152.2525            6 
  101200   0.99839571   -6.3154022    4153.0015           10 
  101300   0.97371541   -6.3311364    4135.3605            7 
  101400   0.96858576   -6.2944421    4139.7721           14 
  101500   0.98556876   -6.3078821    4137.8895            8 
  101600   0.97103526   -6.3090797    4138.8175           10 
  101700   0.98656855   -6.2772423    4157.0108           10 
  101800    0.9768359   -6.2877615    4139.0824            9 
  101900   0.98766215   -6.3021593     4133.042           16 
  102000    0.9953778   -6.2928758    4136.8365           13 
  102100   0.99168396    -6.287977    4136.6394            7 
  102200   0.97884015    -6.311476    4130.7712            5 
  102300   0.98842168   -6.2980615    4134.6586           11 
  102400    1.0188666   -6.3099686    4141.8522           10 
  102500   0.97362511   -6.3206777    4136.6918            7 
  102600   0.98801635   -6.3059403    4137.9848            6 
  102700   0.98396042   -6.3148077    4145.6134            9 
  102800   0.98374653   -6.3114012     4135.721            7 
  102900   0.96871812   -6.3188069    4122.2726            5 
  103000   0.98658246   -6.2920006    4127.2504            7 
  103100   0.99086362   -6.2794383    4134.6354            5 
  103200   0.97948658   -6.2793988    4131.2124           10 
  103300   0.97725053    -6.325051    4128.8498            6 
  103400   0.98816285   -6.2955451    4143.5666            4 
  103500   0.98772954   -6.2745593    4152.1781            4 
  103600   0.97922958   -6.3136296    4141.3141            8 
  103700   0.96747647   -6.2989911    4132.2873            9 
  103800   0.96263082   -6.3239015    4133.0366           17 
  103900   0.98546351   -6.3120662    4135.8052            8 
  104000    1.0023772   -6.3209491    4141.4835            8 
Loop time of 183.09 on 28 procs for 100000 steps with 4000 atoms

Performance: 94379.560 tau/day, 546.178 timesteps/s
99.7% CPU use with 28 MPI tasks x no OpenMP threads

MPI task timing breakdown:
Section |  min time  |  avg time  |  max time  |%varavg| %total
---------------------------------------------------------------
Pair    | 17.383     | 18.302     | 19.331     |  10.2 | 10.00
Neigh   | 2.1417     | 2.1698     | 2.2047     |   1.4 |  1.19
Comm    | 11.164     | 13.177     | 14.938     |  29.0 |  7.20
Output  | 4.6827     | 4.6836     | 4.6949     |   0.1 |  2.56
Modify  | 139.31     | 141.64     | 145.24     |  18.1 | 77.36
Other   |            | 3.116      |            |       |  1.70

Nlocal:        142.857 ave         152 max         134 min
Histogram: 1 1 3 7 2 4 7 0 1 2
Nghost:        2187.79 ave        2204 max        2170 min
Histogram: 1 2 3 5 1 6 1 4 3 2
Neighs:        15813.2 ave       17057 max       14617 min
Histogram: 1 5 2 3 5 2 2 4 2 2
FullNghs:      31627.0 ave       33736 max       29582 min
Histogram: 1 1 3 7 2 5 5 1 1 2

Total # of neighbors = 885557
Ave neighs/atom = 221.38925
Neighbor list builds = 5902
Dangerous builds = 0

#clear
#
#next RN
#
#jump SELF
Total wall time: 0:03:04
