
units lj                  # Use reduced LJ style units
atom_style atomic         # Uncharged point particles
atom_modify map hash      # Needed for indexing of clusters etc
                          # Used to be able to find where atoms are in relation to each other.

lattice fcc 1.0 spacing 1 1 1
Lattice spacing in x,y,z = 1.5874011 1.5874011 1.5874011
region box block 0 10 0 10 0 10 units lattice
create_box 2 box
Created orthogonal box = (0.0000000 0.0000000 0.0000000) to (15.874011 15.874011 15.874011)
  3 by 4 by 4 MPI processor grid
create_atoms 1 box
Created 4000 atoms
  using lattice units in orthogonal box = (0.0000000 0.0000000 0.0000000) to (15.874011 15.874011 15.874011)
  create_atoms CPU = 0.002 seconds
set type 1 type/fraction 2 0.46 78393
Setting atom values ...
  1843 settings made for type/fraction
mass 1 1.0
mass 2 1.0
pair_style lj/cut  3.5
pair_modify tail  yes
pair_coeff 1  1  1.0  1.0   # Intearaction between 1 and 1 set with epsilon = 1 and sigma = 1
pair_coeff 1  2  1.5  0.8
pair_coeff 2  2  0.5  0.88

write_data data.0
System init for write_data ...
Neighbor list info ...
  update every 1 steps, delay 10 steps, check yes
  max neighbors/atom: 2000, page size: 100000
  master list distance cutoff = 3.8
  ghost atom cutoff = 3.8
  binsize = 1.9, bins = 9 9 9
  1 neighbor lists, perpetual/occasional/extra = 1 0 0
  (1) pair lj/cut, perpetual
      attributes: half, newton on
      pair build: half/bin/atomonly/newton
      stencil: half/bin/3d
      bin: standard
WARNING: Not all mixed pair coeffs generated from mixing. Use write_data with 'pair ij' option to store all pair coeffs. (../write_data.cpp:312)


#############################
#   M E L T   S Y S T E M   #
#############################

velocity all create 2.4 6229865 mom yes dist gaussian # Assign velocities
                                                    # Temperature 2.4, random number seed, zero linear momentum
                                                                                # Gaussian distribution

timestep 0.002   # simulation timestep
thermo 1000       # output thermodynamic data every 1000 steps bf 100

# Define a fix  in this case with index 1 applied to all
# particles in the simulation. This fix is for simulations
# in the anisotropic NPT ensemble. Note that we use the MTK
# correction.
fix 1 all npt temp 2.4 2.4 0.1 iso 5.68 5.68 0.5 mtk yes tchain 5 pchain 5 # Use NPT ensemble
                                                                         # Set temperature and pressure and damping
                                                                         # Numbers of thermostats in chain and in barostat
run 10000          # run for 10000 steps
Per MPI rank memory allocation (min/avg/max) = 3.642 | 3.644 | 3.648 Mbytes
Step Temp E_pair E_mol TotEng Press Volume 
       0          2.4   -5.5244938            0   -1.9253938   -4.2019961         4000 
    1000     2.434053   -5.0297732            0   -1.3796064    5.6817362     3746.128 
    2000    2.3973812    -4.942729            0   -1.3475563    5.5725374    3791.1037 
    3000    2.4253954   -4.9344405            0   -1.2972569    5.6700717    3782.7881 
    4000    2.3628262   -5.0183795            0   -1.4750263    5.2851988    3777.7911 
    5000    2.4298536   -4.9947505            0   -1.3508813    6.1056234    3730.7389 
    6000    2.4345706   -4.9960274            0   -1.3450844    5.7838784    3752.9356 
    7000    2.4113181   -4.9987032            0   -1.3826303    5.5014713    3770.0371 
    8000     2.452336   -4.9778074            0    -1.300223    5.7864363    3753.3201 
    9000    2.4122527   -4.9907568            0   -1.3732824    5.8992937    3735.3248 
   10000    2.4200215   -4.9482948            0     -1.31917    5.5406755    3787.6814 
Loop time of 2.52442 on 48 procs for 10000 steps with 4000 atoms

Performance: 684512.627 tau/day, 3961.300 timesteps/s
99.7% CPU use with 48 MPI tasks x no OpenMP threads

MPI task timing breakdown:
Section |  min time  |  avg time  |  max time  |%varavg| %total
---------------------------------------------------------------
Pair    | 1.1621     | 1.2179     | 1.2946     |   2.1 | 48.25
Neigh   | 0.2117     | 0.21821    | 0.22255    |   0.5 |  8.64
Comm    | 0.74891    | 0.84212    | 0.89861    |   3.1 | 33.36
Output  | 0.00024879 | 0.00025296 | 0.00030878 |   0.0 |  0.01
Modify  | 0.21541    | 0.23041    | 0.24602    |   1.9 |  9.13
Other   |            | 0.01552    |            |       |  0.61

Nlocal:        83.3333 ave          94 max          72 min
Histogram: 1 5 1 4 7 14 9 2 3 2
Nghost:        1702.10 ave        1729 max        1678 min
Histogram: 5 3 5 6 7 7 4 4 5 2
Neighs:        10082.0 ave       11631 max        8370 min
Histogram: 1 2 7 3 7 9 11 3 3 2

Total # of neighbors = 483937
Ave neighs/atom = 120.98425
Neighbor list builds = 902
Dangerous builds = 187

# Equilibrate just above the melting temperature to avoid step fn in T

fix 1 all npt temp 1.25 1.25 0.1 iso 5.68 5.68 0.5 mtk yes tchain 5 pchain 5
run 2000
Per MPI rank memory allocation (min/avg/max) = 3.644 | 3.645 | 3.649 Mbytes
Step Temp E_pair E_mol TotEng Press Volume 
   10000    2.4200215   -4.9482948            0     -1.31917    5.5406755    3787.6814 
   11000    1.2423609   -7.0298835            0   -5.1668081    5.6991903    2962.2049 
   12000     1.240228    -7.121985            0   -5.2621081     5.920445     2932.181 
Loop time of 0.627555 on 48 procs for 2000 steps with 4000 atoms

Performance: 550708.721 tau/day, 3186.972 timesteps/s
99.7% CPU use with 48 MPI tasks x no OpenMP threads

MPI task timing breakdown:
Section |  min time  |  avg time  |  max time  |%varavg| %total
---------------------------------------------------------------
Pair    | 0.28216    | 0.3058     | 0.33294    |   2.3 | 48.73
Neigh   | 0.039876   | 0.04234    | 0.045183   |   0.7 |  6.75
Comm    | 0.20104    | 0.23004    | 0.25925    |   3.1 | 36.66
Output  | 5.3778e-05 | 5.4792e-05 | 6.849e-05  |   0.0 |  0.01
Modify  | 0.040096   | 0.044448   | 0.048767   |   1.3 |  7.08
Other   |            | 0.00487    |            |       |  0.78

Nlocal:        83.3333 ave          90 max          77 min
Histogram: 3 1 3 11 6 8 11 2 1 2
Nghost:        2028.94 ave        2059 max        2007 min
Histogram: 5 3 8 8 5 8 6 2 2 1
Neighs:        13009.8 ave       15139 max       11507 min
Histogram: 1 4 8 12 6 11 5 0 0 1

Total # of neighbors = 624468
Ave neighs/atom = 156.11700
Neighbor list builds = 143
Dangerous builds = 14

#############################
# L I N E A R  Q U E N C H  #
#############################

# Define solid atoms. This closely follows ten Wolde  Ruiz-Montero and Frenkel  Faraday Discuss  1996  104  93-110
# Compute components of the per-atom q6 vector
compute q6 all orientorder/atom degrees 1 6 components 6 nnn NULL cutoff 1.3 # compute the Q6 parameter.
                                                                             # Use all neighbours within 1.3 unit cell.

# get number of connections
compute coord_number all coord/atom orientorder q6 0.5

# An atom is solid if it has 8 or more connections (of a possible 14)
variable is_solid atom c_coord_number>=8
group solid dynamic all var is_solid    # Must be dynamic to update
dynamic group solid defined

# do clustering
compute cluster solid cluster/atom 1.3 # Create a cluster where all atoms within are solid and max 1.3 units from another member

# define chunks one chunk per cluster
compute clus_chunks solid chunk/atom c_cluster nchunk every compress yes  # Says which atoms are in which chunk

# count the size of each chunk
compute size_chunks solid property/chunk clus_chunks count


# Find the maximum entry in the vector of chunk sizes
variable max_n equal max(c_size_chunks)


# Thermo style which includes this variable
# thermo_style custom step temp pe vol v_max_n

thermo ${N}  # Print the thermo information every 100 steps
thermo 1000  

# Reset the npt fix at a lower temperature (below freezing)
fix 1  all npt temp  ${temp} ${temp}  0.1  iso  5.68  5.68  0.5  mtk yes tchain  5  pchain  5
fix 1  all npt temp  0.45 ${temp}  0.1  iso  5.68  5.68  0.5  mtk yes tchain  5  pchain  5
fix 1  all npt temp  0.45 0.45  0.1  iso  5.68  5.68  0.5  mtk yes tchain  5  pchain  5

dump dmp2 all dcd ${N} traj.dcd
dump dmp2 all dcd 1000 traj.dcd


compute msd all msd com yes
variable twopoint equal c_msd[4]/6/(step*dt+1.0e-6)
fix 9 all vector 10 c_msd[4]
variable fit equal slope(f_9)/6/(10*dt)
thermo_style custom step temp pe c_msd[4] v_twopoint v_fit v_max_n

fix 1 all npt temp 1.25 ${temp} 0.1 iso 5.68 5.68 0.5 mtk yes tchain 5 pchain 5
fix 1 all npt temp 1.25 0.45 0.1 iso 5.68 5.68 0.5 mtk yes tchain 5 pchain 5
run 2000000 # 5000000  # Run for this many steps
Neighbor list info ...
  update every 1 steps, delay 10 steps, check yes
  max neighbors/atom: 2000, page size: 100000
  master list distance cutoff = 3.8
  ghost atom cutoff = 3.8
  binsize = 1.9, bins = 8 8 8
  4 neighbor lists, perpetual/occasional/extra = 1 3 0
  (1) pair lj/cut, perpetual
      attributes: half, newton on
      pair build: half/bin/atomonly/newton
      stencil: half/bin/3d
      bin: standard
  (2) compute orientorder/atom, occasional
      attributes: full, newton on
      pair build: full/bin/atomonly
      stencil: full/bin/3d
      bin: standard
  (3) compute coord/atom, occasional
      attributes: full, newton on
      pair build: full/bin/atomonly
      stencil: full/bin/3d
      bin: standard
  (4) compute cluster/atom, occasional
      attributes: full, newton on
      pair build: full/bin/atomonly
      stencil: full/bin/3d
      bin: standard
Per MPI rank memory allocation (min/avg/max) = 9.835 | 9.840 | 9.845 Mbytes
Step Temp PotEng c_msd[4] v_twopoint v_fit v_max_n 
   12000     1.240228    -7.121985 7.6618115e-31 5.3207022e-33 8.3333333e+20            1 
   13000    1.2371445   -7.1433559   0.47950421 0.0030737448  0.039249646            1 
   14000    1.2489443   -7.1452566   0.90898088 0.0054106003  0.037299102            1 
   15000    1.2568368   -7.1415245    1.3116499 0.0072869436  0.036394859            2 
   16000    1.2566921   -7.1269217    1.7170241 0.0089428334  0.035177438            2 
   17000    1.2547848   -7.1582475    2.1315866  0.010448954  0.034619216            2 
   18000    1.2357964   -7.1864577     2.607175  0.012070254  0.034906358            1 
   19000    1.2401285     -7.17848    2.9638477  0.012999331  0.035094798            4 
   20000     1.229762   -7.1383224    3.3724508  0.014051878  0.034804456            1 
   21000    1.2387998   -7.1415754    3.8501009  0.015278178  0.034665994            1 
   22000    1.2651689    -7.175736    4.2087763  0.015942334  0.034774354            1 
   23000    1.2349105   -7.1548129    4.5467226  0.016473632  0.034550677            1 
   24000    1.2690114   -7.1216525    5.0030534  0.017371713  0.034299083            2 
   25000    1.2505148   -7.1332502      5.35758    0.0178586  0.034140626            2 
   26000    1.2313272   -7.1565221     5.664191  0.018154458  0.033906941            1 
   27000    1.2758946   -7.1797066    6.0758227  0.018752539  0.033685024            2 
   28000    1.2403573   -7.2057441    6.4638265  0.019237579  0.033491491            2 
   29000    1.2677534   -7.1345792    6.7333369  0.019348669  0.033253594            1 
   30000    1.2399916   -7.1739445    7.1062698  0.019739638  0.032966602            2 
   31000     1.237885   -7.1612381     7.579345  0.020374583  0.032799861            1 
   32000     1.191895   -7.1733832    8.0475176  0.020957077  0.032755339            3 
   33000    1.2420206   -7.1710702    8.5326186  0.021547016  0.032813323            1 
   34000    1.2333481    -7.166742     8.845653  0.021680522  0.032867704            4 
   35000      1.24272    -7.152961     9.263843  0.022056769  0.032881622            2 
   36000    1.2434814   -7.1289199    9.6103068   0.02224608  0.032841708            2 
   37000    1.2388039   -7.1596379    9.9218531  0.022346516  0.032793976            4 
   38000    1.2445753   -7.2065457    10.366501  0.022733554  0.032735729            3 
   39000    1.2321408    -7.195588    10.821725  0.023123344  0.032752013            2 
   40000     1.234789    -7.143336    11.222795  0.023380822  0.032762882            1 
   41000    1.2159892   -7.1562472    11.612778  0.023603207  0.032798195            2 
   42000    1.2446463   -7.2060752    11.808672  0.023429905  0.032765668            2 
   43000    1.2471706   -7.1626152    12.151308  0.023549047  0.032687516            2 
   44000    1.2073589   -7.1547652    12.738291  0.024125552  0.032635241            1 
   45000    1.2395221   -7.1907313    13.124388  0.024304421  0.032636082            2 
   46000    1.2586173   -7.1862485    13.585953  0.024612233  0.032640534            1 
   47000    1.2430888   -7.1282725    14.028774  0.024873713  0.032685752            1 
   48000     1.247147   -7.1672126    14.285758  0.024801663  0.032687082            1 
   49000    1.2365328   -7.2194263      14.7202  0.025034354  0.032672231            2 
   50000    1.2558042   -7.1739381    15.152631  0.025254385  0.032673232            3 
   51000    1.2469477   -7.1378237    15.631983  0.025542456  0.032696971            6 
   52000    1.2277674   -7.1418349    15.904682  0.025488272  0.032721702            3 
   53000    1.2451646    -7.164018    16.375134  0.025747066  0.032747287            2 
   54000    1.2266225   -7.1895827    16.752802   0.02585309  0.032765399            1 
   55000    1.2441187   -7.1936465    17.027492  0.025799231  0.032779013            1 
   56000    1.2234557    -7.181745    17.431446  0.025939651   0.03276603            1 
   57000     1.201478   -7.2158148     17.73179   0.02592367  0.032742076            4 
   58000    1.2135481   -7.2037932    18.130765  0.026049949  0.032723109            2 
   59000    1.2001091   -7.1654437    18.671805  0.026372606  0.032702949            2 
   60000    1.2291548    -7.178065    18.986382  0.026369975  0.032696594            2 
   61000    1.2564609    -7.182053    19.454097  0.026576635  0.032696697            4 
   62000    1.2097884   -7.2196565    19.804643  0.026619143  0.032718839            2 
   63000    1.2463853   -7.1756207    20.386016  0.026965629  0.032732851            2 
   64000    1.2428862   -7.1841874    20.652151  0.026890821  0.032752777            1 
   65000    1.2203168   -7.1253762    21.135037  0.027096201  0.032762321            2 
   66000    1.2440065   -7.1733381    21.323846  0.026924048  0.032755692            1 
   67000    1.2429445   -7.1836402     21.67686  0.026961269  0.032741361            1 
   68000    1.2181525   -7.1917911    22.020455  0.026985851  0.032717966            2 
   69000    1.2254747   -7.1826841    22.450758  0.027114442  0.032694806            2 
   70000    1.2390829   -7.1497378    22.936625  0.027305506  0.032689399            2 
   71000    1.2519492   -7.2192055    23.230246  0.027265546  0.032683121            2 
   72000    1.2360828   -7.1533473    23.681327  0.027408943  0.032678149            2 
   73000    1.2121175    -7.173514    24.132923  0.027548999  0.032671651            3 
   74000    1.2168308   -7.2235042    24.360043  0.027432481  0.032670009            3 
   75000    1.2329484   -7.1798544    24.708776  0.027454196  0.032653649            1 
   76000    1.2134781   -7.1958154    25.318424   0.02776143  0.032651992            2 
   77000    1.2148197    -7.199896    25.677005  0.027788966  0.032647786            2 
   78000    1.2260928   -7.1639964    26.099266  0.027883831  0.032650374            1 
   79000    1.2089596   -7.2329456     26.55049  0.028006846  0.032655657            2 
   80000    1.2188206   -7.2132502    26.924187  0.028046028  0.032665899            1 
   81000    1.2277079   -7.1716931    27.391497  0.028180552   0.03267424            2 
   82000    1.2432398   -7.2366747    27.521521  0.027969025  0.032666116            1 
   83000    1.2193117   -7.2353018    27.772423  0.027883959  0.032649404            4 
   84000    1.2018467    -7.200064    28.164175   0.02794065  0.032623274            1 
   85000    1.2093217   -7.1934432    28.566963  0.028006827  0.032607512            1 
   86000    1.2325092   -7.2264875    28.895964  0.027999965  0.032588134            2 
   87000     1.202212   -7.2180173    29.383674  0.028145281  0.032567736            1 
   88000    1.2016235   -7.1736628    29.736934  0.028159975  0.032544619            3 
   89000    1.2126016   -7.2708323    29.942421  0.028035975  0.032522287            3 
   90000    1.2308104   -7.2393659    30.263797  0.028022034  0.032487991            2 
   91000    1.2106688    -7.235067    30.500375  0.027930747  0.032455456            2 
   92000    1.1863534   -7.1882919    31.032984  0.028109587  0.032422093            1 
   93000    1.2155805   -7.2224187    31.277492  0.028026427  0.032387756            2 
   94000    1.2286414    -7.222916    31.650324  0.028058798  0.032348851            3 
   95000    1.1927656   -7.2202374    32.052071  0.028115852  0.032313673            2 
   96000    1.1923582   -7.2423658    32.372827  0.028101412  0.032281686            1 
   97000    1.2213433   -7.2343304    32.753508  0.028138752  0.032249406            2 
   98000    1.2400695   -7.2376699    33.273404  0.028293711  0.032226091            1 
   99000    1.2177473   -7.2676406    33.449641  0.028156263  0.032203853            1 
  100000    1.2154045   -7.1982768    33.971981  0.028309984  0.032179187            2 
  101000    1.2231712   -7.2544286    34.257619  0.028265362   0.03215366            2 
  102000    1.1975602   -7.2251029    34.586683  0.028257094  0.032120951            4 
  103000     1.181977   -7.1926397    34.968026  0.028291283  0.032090726            1 
  104000    1.1996402   -7.2681441    35.395007  0.028361384  0.032063125            1 
  105000    1.2209671   -7.2502469    35.846435  0.028449551  0.032042369            1 
  106000    1.1916539   -7.2440121    36.225431  0.028479112   0.03202831            2 
  107000    1.2287972   -7.1919071    36.707757  0.028588596  0.032013168            2 
  108000    1.2020394    -7.213225    36.916001  0.028484569  0.031997297            2 
  109000    1.2034042   -7.2371866    37.138459  0.028393317  0.031980908            2 
  110000    1.1993988   -7.2705756    37.344462  0.028291259  0.031956502            3 
  111000    1.2130707   -7.2462965    37.923717  0.028471259  0.031936156            2 
  112000    1.2248648   -7.1907625    38.355633  0.028538417  0.031911076            3 
  113000    1.2208424   -7.2561927    38.704174  0.028542901  0.031883792            2 
  114000    1.2363696    -7.188579    39.021115  0.028524206  0.031862316            1 
  115000    1.2082436   -7.2171249    39.278773  0.028462879  0.031839845            1 
  116000     1.193332   -7.2539607    39.713357   0.02852971  0.031813599            5 
  117000    1.1771181   -7.2420888    39.941403  0.028448293  0.031784052            2 
  118000     1.226083   -7.2563295    39.985552  0.028238384  0.031752033            4 
  119000    1.2054623   -7.2458465    40.252419  0.028187969  0.031715093            2 
  120000    1.2226482   -7.2212826    40.818864  0.028346434  0.031674628            4 
  121000    1.2328985   -7.2241441    41.142756  0.028335231  0.031636129            5 
  122000    1.2166193   -7.2727984    41.329995   0.02823087   0.03159927            2 
  123000    1.2177338    -7.256942     41.87162  0.028368306  0.031566351            3 
  124000     1.215941   -7.2327798    42.061424  0.028267086   0.03153334            3 
  125000    1.2251992   -7.2180069    42.512637  0.028341758  0.031499434            1 
  126000    1.2160627    -7.270073    42.811157  0.028314257  0.031467958            2 
  127000     1.236917   -7.2796939     43.20342  0.028348701  0.031438232            2 
  128000    1.2349048   -7.2736828    43.669576  0.028430714  0.031417478            1 
  129000    1.1880211   -7.2322357     44.38796  0.028674393  0.031400514            1 
  130000    1.2066984    -7.271074    44.712356  0.028661766  0.031382909            1 
  131000     1.203921   -7.2546345    44.774832  0.028482717  0.031361831            2 
  132000     1.196239   -7.1928659    45.299047  0.028597883  0.031339711            1 
  133000    1.1753725   -7.2948066    45.307377  0.028388081  0.031312478            2 
  134000     1.203361   -7.2265499    45.727326  0.028437391  0.031283992            2 
  135000     1.207656   -7.2564839    45.890458  0.028327443   0.03125588            3 
  136000     1.182089   -7.2664815    46.396294  0.028429102  0.031228052            2 
  137000    1.1890505   -7.2719715    46.726268  0.028422304  0.031201077            3 
  138000    1.1836054    -7.253362    47.163392  0.028480309  0.031172701            1 
  139000    1.2025529   -7.2820876    47.357616  0.028391856  0.031143641            3 
  140000    1.1740781   -7.2334984    47.868478  0.028493142  0.031116005            1 
  141000    1.2043535   -7.2217526    48.064039  0.028406642  0.031087628            1 
  142000    1.1894033   -7.2630343    47.914792  0.028119009  0.031054133            1 
  143000    1.2176845   -7.2680529    48.151359  0.028060232  0.031013012            3 
  144000    1.1622866   -7.2997348    48.699808  0.028182759  0.030976152            3 
  145000    1.1966216   -7.2688129    49.297659  0.028331988  0.030943041            4 
  146000    1.2160263   -7.2484228    49.631109  0.028328258  0.030914247            2 
  147000    1.1797269   -7.2702408    50.001661  0.028345613  0.030886384            1 
  148000    1.1747554   -7.2908567    50.200249  0.028265906  0.030858062            2 
  149000    1.1833067   -7.2945012    50.786468  0.028404065  0.030831424            2 
  150000    1.2039005   -7.2396018    51.175886  0.028431048  0.030801645            1 
  151000    1.1753711   -7.2828459    51.204594  0.028258606  0.030771343            4 
  152000    1.1882272   -7.2638145     51.47296  0.028219825  0.030741973            1 
  153000    1.1992458   -7.2880295    51.759755  0.028191588   0.03071497            2 
  154000    1.1994719   -7.2632957    52.309945  0.028306247   0.03068722            2 
  155000    1.1984149   -7.2850213    52.913713  0.028448233  0.030663492            2 
  156000    1.1782066   -7.2888226    53.219539  0.028429241  0.030641844            1 
  157000    1.1886629   -7.2692126     53.43043  0.028360101  0.030615995            3 
  158000    1.2011439    -7.274308    53.663264  0.028303409  0.030592857            3 
  159000    1.1792873   -7.2821892    53.762994  0.028177669  0.030568308            1 
  160000    1.1884548   -7.2222582    54.601988  0.028438535  0.030542809            1 
  161000    1.1725369   -7.3264902    54.629639  0.028276211  0.030518231            1 
  162000    1.1990644   -7.2750509    54.877093  0.028228957  0.030496124            1 
  163000    1.2000191   -7.2668441    55.470671  0.028359239  0.030472631            1 
  164000    1.1772419   -7.2883114    55.598885  0.028251466  0.030448468            1 
  165000    1.1668866   -7.3028838    55.870729   0.02821754  0.030425013            2 
  166000    1.2056005   -7.2987233    56.515232    0.0283711  0.030403601            1 
  167000    1.1699529   -7.2806972    56.691091  0.028288967   0.03038354            1 
  168000    1.2224005    -7.261022    57.225647  0.028385738  0.030363548            1 
  169000    1.1830543   -7.2900736     57.46031  0.028333486  0.030345263            1 
  170000    1.1830057   -7.2810667    57.845923  0.028355845  0.030325943            4 
  171000    1.1913685   -7.2986148     58.40569  0.028462812   0.03031017            2 
  172000    1.2012141    -7.276321    58.645476  0.028413506   0.03029456            1 
  173000    1.1788224   -7.2939931    59.340869  0.028584233  0.030282553            1 
  174000    1.1725159   -7.2837689    59.627495  0.028557229  0.030271389            2 
  175000    1.1863996   -7.2514071    60.229894  0.028680902  0.030264212            1 
  176000    1.1779224   -7.3069097     60.55469  0.028671728   0.03025829            2 
  177000    1.1924553   -7.2997196      60.8646  0.028655649  0.030250865            1 
  178000    1.1598907   -7.2730041    61.135596  0.028621534    0.0302431            2 
  179000    1.1821455   -7.2843632    61.590819  0.028673565  0.030237848            4 
  180000    1.1771253   -7.3083698    61.605913  0.028521256  0.030228689            1 
  181000    1.1914799   -7.2965132    62.015159  0.028552099  0.030216878            4 
  182000    1.1768173    -7.281103    62.348965  0.028548061  0.030204141            4 
  183000    1.1996874   -7.2933592     62.63845  0.028523884  0.030194872            1 
  184000    1.1992705   -7.3039469     62.93999   0.02850543  0.030185567            2 
  185000    1.1636563   -7.3195208    63.448408  0.028580364  0.030174371            1 
  186000    1.1977163   -7.2851685    63.501527  0.028450505  0.030161262            1 
  187000    1.2076556   -7.3378025    63.577151  0.028332064  0.030147005            1 
  188000     1.165551    -7.270809    64.207784  0.028460897  0.030130623            4 
  189000    1.1829828   -7.2874453    64.701766  0.028528115  0.030118484            4 
  190000    1.1912095   -7.3411327     64.85925   0.02844704  0.030106197            1 
  191000    1.1773051   -7.2786686    65.250674  0.028468881  0.030095094            4 
  192000    1.1838034   -7.2810702    65.612734  0.028477749  0.030082727            3 
  193000    1.1564349   -7.2778321    65.910161  0.028458619  0.030068963            4 
  194000    1.2008379   -7.3244055    66.185511  0.028430202  0.030052556            2 
  195000      1.16072    -7.300082    66.154155  0.028271006  0.030036056            3 
  196000    1.1844557   -7.2696977    66.659823  0.028341761  0.030017274            1 
  197000    1.1718038   -7.3276945    66.561379  0.028156251  0.029999904            1 
  198000     1.183913   -7.3437395    66.982179  0.028191153  0.029980871            3 
  199000     1.173367   -7.3271501    67.562256  0.028292402  0.029961632            2 
  200000    1.1709008    -7.312102    68.127753  0.028386564  0.029944079            1 
  201000    1.1891528   -7.3433107    68.098608  0.028233254  0.029926596            2 
  202000    1.1758295   -7.2783479     68.78678  0.028377384  0.029909115            1 
  203000    1.1624271   -7.3017185    69.043246  0.028342876  0.029892988            1 
  204000    1.1782453   -7.3119359    69.034744  0.028200467   0.02987518            3 
  205000    1.1801707    -7.321861    69.274519  0.028160374  0.029855388            2 
  206000    1.1439666   -7.3712919    69.574181  0.028144895  0.029836303            2 
  207000    1.1421659   -7.3247171    69.557305  0.028002136  0.029814303            2 
  208000    1.1858757   -7.2987671    70.334718  0.028178973  0.029791154            2 
  209000    1.1846593   -7.3740813    70.225763  0.028000703  0.029769682            2 
  210000    1.1639223   -7.3034912    70.440274   0.02795249  0.029747098            3 
  211000    1.1662815   -7.2916741    70.864411  0.027987524  0.029724826            3 
  212000    1.1938238   -7.3198914    71.039678  0.027924402  0.029701796            3 
  213000    1.1675131   -7.3531452    70.870888  0.027727264  0.029675861            4 
  214000     1.182356   -7.3443972    71.383363   0.02779726  0.029648404            1 
  215000    1.1843545   -7.3843112    71.449032  0.027693423  0.029619703            3 
  216000    1.1737779    -7.397817    71.704794  0.027663887  0.029590748            2 
  217000    1.1821533   -7.3505269    72.523541  0.027850822  0.029562434            2 
  218000    1.1591124   -7.3169398    72.922872  0.027875715  0.029536108            4 
  219000    1.1552261   -7.3226083    73.207737  0.027856825   0.02951143            6 
  220000    1.1758138   -7.3304452     73.24114  0.027742856  0.029486183            2 
  221000    1.1730939    -7.355705    73.406994  0.027679862  0.029461022            4 
  222000    1.1583189   -7.3706919    73.597833  0.027626814  0.029434078            1 
  223000    1.1855511   -7.3528846    73.779876  0.027570955   0.02940583            2 
  224000    1.1622021   -7.3590685    73.901362  0.027493066  0.029376641            1 
  225000    1.1402699    -7.343095    74.399343  0.027555312  0.029347866            4 
  226000    1.1730332   -7.3305432    75.067166  0.027679633  0.029320809            3 
  227000    1.1590227   -7.3748521    75.378799  0.027672099   0.02929511            5 
  228000    1.1460474   -7.3610198     75.67437  0.027658761   0.02927057            3 
  229000    1.1567908   -7.3248974    76.166871  0.027717202  0.029247636            2 
  230000    1.1550402   -7.3326762    76.355217  0.027664934  0.029224055            3 
  231000    1.1522624   -7.3576774    76.489722  0.027593695  0.029199041            2 
  232000    1.1716589   -7.3605385    76.659261  0.027535654  0.029175923            3 
  233000    1.1853584   -7.3793033    77.234424  0.027623184  0.029152511            1 
  234000    1.1600736   -7.3720661    77.220739  0.027500263  0.029128434            2 
  235000    1.1595664    -7.360269    77.730836  0.027564126  0.029104463            1 
  236000    1.1548322   -7.3593706    78.303359  0.027649491  0.029080772            1 
  237000    1.1692105   -7.3620559    78.459041  0.027587567  0.029058129            1 
  238000    1.1569039   -7.3119382     78.72151  0.027563554  0.029035082            3 
  239000    1.1603764   -7.3884588    78.742012  0.027455374  0.029012849            4 
  240000    1.1727017    -7.329197    79.333673  0.027546414  0.028990067            7 
  241000    1.1514565   -7.3519307    79.575073  0.027515585  0.028967535            2 
  242000    1.1282844   -7.3639636    79.875521  0.027505345  0.028944354            6 
  243000    1.1679799   -7.3732405    80.100059  0.027469156  0.028920109            2 
  244000    1.1487273   -7.3995878    79.755274  0.027238823  0.028893583            2 
  245000      1.15917   -7.3823065     80.29708  0.027311932  0.028866979            1 
  246000     1.152355   -7.3568154    80.595694  0.027302064  0.028841417            1 
  247000    1.1717947   -7.3806565    81.032392  0.027338864  0.028816976            2 
  248000    1.1407539   -7.3956013    81.252908  0.027302724   0.02879163            1 
  249000    1.1488839   -7.3524633    81.501171  0.027276161  0.028767018            2 
  250000    1.1443633   -7.3800561    81.865098  0.027288366  0.028743221            2 
  251000    1.1602141   -7.3600525    82.509701  0.027393659  0.028719939            2 
  252000    1.1534289   -7.3619039    82.829189  0.027390605  0.028698046            3 
  253000    1.1451396   -7.3625489    82.603463  0.027207992  0.028674677            1 
  254000    1.1445829   -7.3421503    82.997244  0.027230067  0.028649709            1 
  255000    1.1614763   -7.4032066    83.147683  0.027172445  0.028624768            4 
  256000    1.1406627   -7.4096605    83.477088  0.027173531  0.028601337            2 
  257000    1.1595833   -7.3965038    83.814446  0.027177187  0.028576318            2 
  258000    1.1443598   -7.3951398     84.09477  0.027162393  0.028552941            4 
  259000    1.1655902   -7.3903681    84.369219  0.027145823   0.02853018            1 
  260000    1.1304171   -7.3701789    85.072949  0.027266971   0.02850654            1 
  261000    1.1652678   -7.3787877    85.283646  0.027229772   0.02848406            2 
  262000    1.1336113   -7.3983005     85.27078  0.027121749  0.028462919            3 
  263000    1.1303041   -7.3685695    85.934672  0.027228983  0.028441144            1 
  264000    1.1409352   -7.3600709    86.366784  0.027262242  0.028420726            2 
  265000     1.143522   -7.3739253    86.635805  0.027243964  0.028399913            3 
  266000    1.1386998   -7.3565847    86.928751  0.027233318  0.028379729            2 
  267000    1.1251381   -7.4079061    86.937181  0.027133952  0.028359029            2 
  268000    1.1468283   -7.3936955    87.613963  0.027243148  0.028339448            2 
  269000    1.1605008   -7.3685707    87.929526   0.02723963  0.028319818            8 
  270000    1.1573588   -7.3951097    88.195802  0.027220927  0.028300291            1 
  271000    1.1323624    -7.435212    88.389183  0.027179945  0.028281515            1 
  272000    1.1495612   -7.4268535    88.938156   0.02724821  0.028263741            1 
  273000    1.1600737   -7.4064554    89.082768  0.027192542  0.028245443            3 
  274000    1.1537357   -7.3953562    89.362181  0.027178279  0.028227409            2 
  275000    1.1447689    -7.432949    89.319733  0.027066586  0.028209546            3 
  276000    1.1464915   -7.4097704    89.864494  0.027132999  0.028189952            1 
  277000    1.1343205   -7.4164842    90.119649  0.027111808  0.028171998            2 
  278000    1.1568583    -7.407413    90.114544  0.027012753  0.028153774            1 
  279000    1.1631646   -7.3738879     90.57289  0.027052835  0.028136057            4 
  280000    1.1585839   -7.4424199    91.095679  0.027111809  0.028117465            5 
  281000    1.1480468    -7.430477    91.247745  0.027060423  0.028098762            2 
  282000    1.1271374   -7.3488284    91.930624   0.02716626  0.028080154            1 
  283000    1.1543154   -7.4088391     91.90705  0.027063325  0.028061904            1 
  284000     1.151978   -7.3630195    92.380305  0.027106897  0.028044004            2 
  285000    1.1550564   -7.4364021     92.31332  0.026992199   0.02802642            3 
  286000    1.1366903   -7.3756831    93.044191  0.027110778  0.028007791            4 
  287000    1.1286298   -7.3951772    93.032773     0.027013  0.027990174            1 
  288000    1.1330477   -7.4365073    93.223527    0.0269744  0.027972822            2 
  289000    1.1259408    -7.406176    94.069248  0.027124927  0.027956977            2 
  290000    1.1542648   -7.4051682     94.55556  0.027171138  0.027942607            2 
  291000    1.1333246   -7.4055458    94.599891  0.027090461  0.027928626            2 
  292000     1.146588   -7.4134996    95.390516  0.027223321  0.027914908            2 
  293000    1.1281448   -7.4091206    95.088436  0.027044493  0.027901023            3 
  294000    1.1255243   -7.4351771    95.806818  0.027156128  0.027886813            3 
  295000    1.1507991   -7.4102686    96.071298  0.027138785  0.027872475            2 
  296000    1.1387045   -7.4297043    96.354707  0.027126888  0.027858966            5 
  297000    1.1212589   -7.4248186    96.660755  0.027121424  0.027846478            1 
  298000    1.1533563   -7.4262659    96.723552  0.027047973  0.027833307            1 
  299000    1.1390643   -7.4410087    97.146111  0.027075282  0.027820473            3 
  300000    1.1632552   -7.4485839    97.445724  0.027068257  0.027807811            1 
  301000    1.1370071   -7.4321869    97.744069  0.027060927  0.027794772            1 
  302000    1.1387904   -7.4360215    97.770424  0.026978594  0.027780807            1 
  303000    1.1442507   -7.3966064    98.342285  0.027046833  0.027767467            6 
  304000    1.1288968   -7.4291704    98.715356   0.02706013  0.027755108            2 
  305000    1.1173878   -7.3903621    99.029717    0.0270573  0.027742127            3 
  306000    1.1147573   -7.4498821    98.901068  0.026933842  0.027729134            3 
  307000    1.1109275   -7.4158562    99.098225  0.026899627  0.027715078            2 
  308000    1.1239823   -7.3954277    99.568831  0.026939619   0.02770106            4 
  309000     1.121647    -7.436451    99.967269  0.026959889  0.027687284            2 
  310000    1.0882584   -7.4082322    100.15785  0.026924152  0.027673231            1 
  311000    1.1382507   -7.4024034    100.15082  0.026835697  0.027658101            2 
  312000    1.1237743   -7.4586832    100.25871  0.026778501  0.027641946            1 
  313000    1.1234526   -7.4593334    100.45803  0.026746014  0.027624851            4 
  314000    1.1313867   -7.4246527    101.08243  0.026826546  0.027609397            2 
  315000    1.1172513   -7.4610646    100.84248  0.026677904  0.027593664            1 
  316000    1.1375357   -7.4361769    101.55345  0.026780972  0.027577635            2 
  317000    1.1165961    -7.424222    101.77638  0.026755094  0.027560933            2 
  318000    1.1053819   -7.4374304    101.88423  0.026699222  0.027543582            3 
  319000    1.1134962   -7.4671327    101.60647  0.026542966  0.027525842            1 
  320000    1.1026642   -7.3970882    102.32778  0.026647858  0.027508585            2 
  321000    1.1151693   -7.4682001    102.07674  0.026499674  0.027490773            1 
  322000    1.1239644   -7.4662417    102.82302  0.026610513    0.0274726            1 
  323000    1.1314533    -7.446552    102.77556  0.026515881  0.027454316            3 
  324000    1.1411263   -7.4241765    103.04093  0.026502296  0.027435294            5 
  325000    1.1361585   -7.4294279    103.08474  0.026431984  0.027415489            3 
  326000     1.138187   -7.4423616    103.79961  0.026533644  0.027396131            1 
  327000    1.1252303    -7.418629    104.26876  0.026572059  0.027377934            1 
  328000    1.1003002   -7.4943482    104.04222   0.02643349  0.027359519            2 
  329000    1.1183243    -7.449435    104.30307  0.026419216  0.027340844            2 
  330000    1.1342457   -7.4316576    104.86634  0.026481398  0.027322365            4 
  331000     1.135374   -7.4768818    105.00475  0.026436241  0.027304815            1 
  332000    1.1191846   -7.4596492    105.31819   0.02643529  0.027286892            3 
  333000     1.140552   -7.4642438    105.72816  0.026458498  0.027269348            2 
  334000    1.1079813   -7.4810399    106.21963  0.026501904  0.027251961            1 
  335000    1.1467331   -7.5110894    106.09151  0.026390922  0.027233884            3 
  336000    1.1159358   -7.4394778    106.36151  0.026379343   0.02721656            3 
  337000     1.130985   -7.4523263    107.01275  0.026462103  0.027199863            9 
  338000    1.1260547   -7.5253066     107.0167  0.026384788  0.027183618            1 
  339000    1.1161825   -7.4907809     107.3116  0.026379448   0.02716676            2 
  340000    1.1119987   -7.4969173    107.70245   0.02639766  0.027150147            2 
  341000     1.137279   -7.4932981    108.01412  0.026396413  0.027134001            1 
  342000    1.1044798   -7.4790078    108.14896  0.026352086  0.027117641            2 
  343000    1.1176903   -7.4305525    108.75119  0.026421571  0.027100737            2 
  344000    1.1090582   -7.4527286    109.09697  0.026428528  0.027085014            2 
  345000    1.0986781   -7.5141157    108.83742  0.026289232  0.027069309            4 
  346000    1.1025094   -7.4019759    109.65283   0.02640964  0.027053207            3 
  347000    1.1205155   -7.4649934    109.58702  0.026317727  0.027037399            2 
  348000    1.1246732   -7.4853401    109.72379  0.026274855  0.027021043            2 
  349000    1.1316551   -7.5305214    109.85091   0.02622992  0.027004357            1 
  350000    1.1217526   -7.4833541    109.91322  0.026169814  0.026987611            1 
  351000    1.0970835   -7.4767447    110.80201   0.02630627  0.026969978            1 
  352000    1.1142966   -7.5094356    110.19256  0.026087255  0.026952842            3 
  353000    1.1082608    -7.487608    111.09122  0.026225502  0.026935689            2 
  354000    1.0937085   -7.5331353    110.52122  0.026017236  0.026918024            1 
  355000    1.1091616   -7.4999244    111.20877  0.026105345  0.026899662            2 
  356000    1.1310626   -7.4465107    111.82809  0.026176986  0.026881543            3 
  357000    1.0946223    -7.509218    111.33954  0.025989621  0.026863189            2 
  358000    1.1136706   -7.4684243    111.63496   0.02598579  0.026844639            5 
  359000    1.1272956   -7.4963807    112.05864  0.026011756  0.026825964            1 
  360000    1.1118318   -7.5167951    112.05269  0.025938122  0.026807266            1 
  361000    1.1014229   -7.4937942    112.59029  0.025990372  0.026788267            2 
  362000    1.1068466   -7.5380666    112.45004  0.025886289  0.026769688            4 
  363000    1.0966331   -7.4735639    112.97411  0.025935288  0.026751201            2 
  364000    1.1040831     -7.49966    113.74455   0.02604042  0.026734261            2 
  365000    1.1059901   -7.5298438    113.40374  0.025891266  0.026716166            1 
  366000    1.1024436   -7.5076357    113.63548  0.025873287  0.026698498            3 
  367000    1.0911471   -7.4841304    114.31722  0.025957589  0.026680264            4 
  368000    1.1076878   -7.5229722    113.98061  0.025810828  0.026662459            4 
  369000    1.1102536   -7.4568367    115.11169  0.025996317  0.026644523            1 
  370000    1.0796762   -7.4972613    114.92369  0.025883714  0.026626904            5 
  371000    1.1169807   -7.5064612    115.14871  0.025864489  0.026609408            2 
  372000    1.1023011   -7.4904907     115.7807  0.025936536  0.026592231            1 
  373000    1.0811605   -7.4764686    116.24897   0.02597162  0.026576005            3 
  374000    1.1259421    -7.492011    116.41617  0.025939432  0.026559841            2 
  375000    1.1101732   -7.4939007    116.22691  0.025828203  0.026543161            3 
  376000    1.1010373   -7.4732389    116.93991  0.025917533  0.026526872            1 
  377000    1.0931729   -7.4973389    116.93525  0.025847756  0.026510531            3 
  378000    1.1053491   -7.5186487    117.18765  0.025835019  0.026494646            6 
  379000    1.1025029   -7.4765411    117.56158  0.025849071  0.026478522            2 
  380000    1.1147172   -7.5021875    117.96872  0.025870333  0.026462221            2 
  381000    1.1063622   -7.5055766    117.83623  0.025773453  0.026445492            1 
  382000    1.0954841   -7.5587545     117.6767  0.025671182  0.026428723            6 
  383000    1.1071482   -7.4553574    118.57006  0.025798534   0.02641309            4 
  384000    1.1165882     -7.54039    118.64827  0.025748322  0.026397691            5 
  385000    1.0463351   -7.5332881    118.99095  0.025755616  0.026382555            4 
  386000    1.1173585   -7.5109748    119.47393  0.025793162  0.026367118            3 
  387000    1.0801171   -7.5555809    120.01579  0.025843193  0.026351686            2 
  388000    1.1396894   -7.5386041    120.10912  0.025796633  0.026336105            2 
  389000    1.1108963   -7.5393606    120.22389  0.025754904  0.026321247            2 
  390000    1.0867453    -7.514632    120.80812    0.0258137  0.026307024            2 
  391000    1.0962132   -7.4669116    121.39793  0.025873387  0.026293396            1 
  392000    1.1120846     -7.48234    121.68484  0.025868375  0.026280068            2 
  393000    1.0848612   -7.4970874    121.94956  0.025858685  0.026266617            3 
  394000    1.0982743   -7.4971972    121.98374  0.025800283  0.026252754            5 
  395000     1.124793   -7.5330506    122.20325  0.025781276  0.026239251            2 
  396000    1.1047881   -7.5142695    121.90707  0.025653845   0.02622486            2 
  397000    1.0906956   -7.5175146    122.08302  0.025626158  0.026210322            1 
  398000    1.1135472   -7.5452555    122.56744  0.025663199  0.026195726            1 
  399000    1.0925466   -7.5631289    122.63518  0.025613029   0.02618109            1 
  400000    1.0817991   -7.5336236    123.02984  0.025631217  0.026165822            2 
  401000    1.0835952   -7.5364304    123.36959  0.025637903  0.026150377            2 
  402000    1.1122661   -7.5652078    123.33847  0.025567676  0.026135496            6 
  403000    1.1006926    -7.546901    123.76071  0.025591545  0.026121296            2 
  404000    1.0948911   -7.5341388    124.14289  0.025607032  0.026107046            1 
  405000    1.0771786   -7.5445894    124.63212  0.025644469  0.026092809            3 
  406000    1.0839997   -7.5666069    124.72876  0.025601141  0.026079078            2 
  407000    1.0859958    -7.529764    125.12963  0.025620317  0.026065301            2 
  408000    1.0764934   -7.5142604    125.84812  0.025704272   0.02605252            1 
  409000    1.0923437   -7.4979647    125.80375  0.025632386  0.026039508            1 
  410000    1.0957409   -7.5197731    126.16818  0.025643939  0.026026024            3 
  411000    1.0848833   -7.5270231    126.06492  0.025560609  0.026012449            1 
  412000    1.1169513   -7.5654707    126.25985  0.025537996  0.025997568            3 
  413000    1.1020808   -7.5473586    126.14341  0.025452665  0.025982652            5 
  414000    1.0760176    -7.531574     126.2398  0.025410587  0.025968013            2 
  415000    1.0639727    -7.550276    126.65087  0.025431901  0.025952805            3 
  416000    1.0727719    -7.549396    126.73303  0.025387225  0.025937816            5 
  417000     1.083421   -7.5535284     127.3507   0.02544978  0.025922263            1 
  418000    1.0711749   -7.5609561    127.37204  0.025393149  0.025906417            2 
  419000    1.0897488   -7.5167047    127.68406  0.025394603  0.025890324            2 
  420000    1.0883118   -7.5334053    127.46205   0.02529009  0.025874418            2 
  421000    1.0793949   -7.5367065    127.74924  0.025286865  0.025858028            3 
  422000    1.1130549   -7.6241083    127.27044  0.025132394  0.025841437            1 
  423000    1.0983813   -7.5644528    128.37436  0.025290456  0.025824634            1 
  424000    1.0783854   -7.5717056    128.51373  0.025258201  0.025808547            3 
  425000    1.0487361   -7.5332709    128.57298  0.025210389  0.025791884            4 
  426000    1.0672598   -7.5870373    128.42931  0.025123105  0.025774334            4 
  427000    1.0821452   -7.5612762    128.78596  0.025133871  0.025756883            2 
  428000     1.072966   -7.5835529    129.27213  0.025169807  0.025740269            2 
  429000    1.0897468   -7.5341237    129.68673  0.025191673   0.02572431            3 
  430000    1.0847215   -7.5650969    129.66205  0.025128305  0.025708089            2 
  431000    1.0795093    -7.538452     130.1325  0.025160963  0.025691852            1 
  432000    1.0877536   -7.5374788    130.26497  0.025128274  0.025675372            1 
  433000    1.0889073    -7.602608    130.06361  0.025031487  0.025658715            3 
  434000    1.0655836   -7.5801904    130.52951   0.02506327  0.025642433            2 
  435000    1.0878478   -7.5597566    131.01841  0.025099312  0.025625909            2 
  436000    1.0648435   -7.5759587    131.27838  0.025091433  0.025609717            4 
  437000    1.0754606   -7.5488256     131.7032  0.025115026  0.025593977            2 
  438000    1.0934243   -7.5427886    131.71742  0.025060392  0.025578568            2 
  439000    1.0812772    -7.591214    131.76216    0.0250118  0.025562719            2 
  440000    1.0688599   -7.5743573    132.07451  0.025014111  0.025546486            2 
  441000    1.0830163   -7.5812448    132.14118  0.024969988  0.025530169            3 
  442000     1.082466   -7.5837771    132.01136  0.024889019   0.02551373            2 
  443000    1.0650175    -7.526405    132.82934  0.024986708  0.025496842            3 
  444000    1.1044927   -7.5248103    132.33255   0.02483719  0.025479899            1 
  445000    1.0947226   -7.5777167    132.09077  0.024736098  0.025462197            5 
  446000    1.0802806   -7.5580785    132.59853   0.02477551  0.025444313            5 
  447000    1.0588663   -7.5721911    133.02404  0.024799411   0.02542614            3 
  448000    1.0713825   -7.5504021    133.09704  0.024757633  0.025407988            2 
  449000    1.0800128   -7.5624796    133.39106  0.024757064  0.025389713            2 
  450000    1.0526998   -7.5850112    133.14591  0.024656649  0.025371529            2 
  451000    1.0941728   -7.5793056     133.9291  0.024746693  0.025352914            3 
  452000    1.0692021   -7.5956267    134.12039  0.024727211  0.025334769            4 
  453000    1.0908574   -7.6172676     134.0788  0.024664973  0.025316536            2 
  454000    1.0592981   -7.6043127    134.14538  0.024622867  0.025298488            4 
  455000    1.0698994   -7.6270513    134.16129  0.024571666   0.02528036            2 
  456000    1.0670351   -7.6273297    134.43326  0.024567482  0.025262278            3 
  457000    1.0828908   -7.5579715    135.05068  0.024626309  0.025244209            3 
  458000    1.0727628   -7.6058606    135.06672  0.024575459  0.025226007            2 
  459000    1.0713669   -7.5515168    135.29312  0.024563022  0.025207841            5 
  460000    1.0559357   -7.5883623    135.39047  0.024527259  0.025189348            2 
  461000     1.075515   -7.5639428    135.81051  0.024549983  0.025171096            1 
  462000    1.0797216   -7.5827717     135.7951  0.024494066  0.025153213            2 
  463000    1.0706478   -7.5776184    135.71783  0.024427256  0.025135216            4 
  464000     1.069447   -7.6010128     136.0568  0.024435489  0.025116774            1 
  465000    1.0834767   -7.5711904    136.22836  0.024413684  0.025098168            3 
  466000    1.0853173   -7.6514655    136.44266  0.024399617  0.025079591            3 
  467000    1.0443748   -7.5914188    136.45038  0.024348746  0.025060731            1 
  468000    1.0652599   -7.5844151     137.2863  0.024445566  0.025042104            2 
  469000    1.0731759   -7.6193674    136.66305  0.024282703  0.025023188            3 
  470000    1.0622995   -7.5658792    136.89068  0.024271397  0.025003875            3 
  471000    1.0553495   -7.6440073    137.23263  0.024280366  0.024984541            3 
  472000    1.0621846   -7.5844284    137.86102  0.024339869  0.024965655            8 
  473000     1.069132   -7.6241322    137.99379  0.024311802  0.024947117            3 
  474000    1.0742283   -7.6005698    138.11426  0.024281691  0.024929249            2 
  475000    1.0778046   -7.5431611    138.70653  0.024334478  0.024910753            3 
  476000    1.0664216   -7.6035364    138.59581  0.024263972  0.024892841            3 
  477000    1.0939714   -7.5770179    138.64281  0.024221316  0.024874349            2 
  478000    1.0850989   -7.6608118    138.82669  0.024202701  0.024855804            2 
  479000    1.0587984   -7.6394626    139.15459  0.024209218   0.02483738            3 
  480000      1.04383     -7.64908    139.15457  0.024158779  0.024818601            3 
  481000    1.0518602   -7.6147724    139.22335   0.02412047  0.024799385            1 
  482000    1.0841429   -7.6430429     139.0859  0.024046663  0.024780255            2 
  483000    1.0865821   -7.6227196    139.68192   0.02409971   0.02476081            5 
  484000    1.0678496    -7.627419     139.6513  0.024044645  0.024741632            1 
  485000    1.0518188   -7.6600842    140.00976  0.024056659  0.024722602            4 
  486000    1.0790031   -7.6482165    140.05416  0.024014774  0.024703696            2 
  487000    1.0556089   -7.6065546    140.73089  0.024081262  0.024684959            1 
  488000    1.0691816   -7.6122762    140.98456  0.024075232  0.024666215            1 
  489000    1.0675886   -7.5966016    141.06106  0.024039035  0.024647522            2 
  490000    1.0776834   -7.6108876     141.6384  0.024088164   0.02462927            2 
  491000    1.0580716   -7.6123924     141.1903  0.023963051  0.024610952            1 
  492000    1.0612683   -7.6020921    142.32539  0.024106604  0.024593213            8 
  493000    1.0638126   -7.6239854    142.15505  0.024028912  0.024575538            1 
  494000    1.0544352   -7.6467829    142.18382  0.023985125  0.024557432            2 
  495000    1.0501846   -7.6273475    142.50799  0.023991244  0.024539785            2 
  496000    1.0493538   -7.6097719    142.46084  0.023934953  0.024522188            4 
  497000    1.0528099   -7.6139431    143.40044  0.024044339  0.024504381            3 
  498000    1.0679518   -7.6281686    143.29656  0.023978674  0.024486735            1 
  499000    1.0300465   -7.6345442    143.70741  0.023999233  0.024469613            4 
  500000    1.0457903   -7.5951866    144.24512  0.024040853  0.024452637            5 
  501000     1.053436   -7.6351825    144.44416  0.024025975  0.024435743            2 
  502000     1.047009   -7.6612515    144.11969  0.023924252  0.024418757            2 
  503000    1.0472751   -7.6250093    144.61354  0.023958506  0.024401934            2 
  504000    1.0599867   -7.6943138    144.24717  0.023850391  0.024384859            5 
  505000    1.0561046   -7.6867585    144.63263   0.02386677  0.024367599            3 
  506000    1.0648786   -7.6410919    145.04213  0.023887043  0.024350683            5 
  507000    1.0526012   -7.6338599    145.23266  0.023871246  0.024333458            3 
  508000    1.0636361   -7.6396989    145.56049  0.023878034  0.024316391            2 
  509000    1.0537946   -7.6397844    145.03652  0.023745338  0.024299212            2 
  510000     1.082632    -7.645317    145.15757  0.023718558  0.024281626            3 
  511000    1.0482959   -7.6504797    145.22769  0.023683576  0.024263396            2 
  512000    1.0345596   -7.6608167    145.62079    0.0237013  0.024245447            1 
  513000    1.0665597   -7.6440415     145.5061  0.023636469  0.024227811            1 
  514000    1.0377874   -7.6370765     146.1975  0.023702578  0.024210182            2 
  515000    1.0518366   -7.6552469    146.27563  0.023669196  0.024192744            1 
  516000    1.0491498   -7.6946189    146.56023  0.023669287  0.024174707            1 
  517000    1.0674345   -7.6763973    146.31341  0.023583721  0.024156352            2 
  518000    1.0100936   -7.6615996    146.69277  0.023599224  0.024138028            3 
  519000    1.0621481   -7.6502229     146.6872  0.023552857  0.024119794            2 
  520000    1.0602554   -7.6652805    147.00809  0.023558988  0.024101767            1 
  521000    1.0506695   -7.6333712    147.70159  0.023624694  0.024083689            2 
  522000    1.0538533   -7.6562629    147.00836  0.023468767  0.024065686            2 
  523000    1.0319324   -7.6824361    147.09132  0.023437113  0.024047483            6 
  524000    1.0733665   -7.6629796     147.1155  0.023396231  0.024029231            2 
  525000    1.0611874   -7.6872855    147.66927  0.023439567  0.024010892            6 
  526000    1.0322024   -7.6376739    148.25442  0.023487709  0.023992477            5 
  527000    1.0470168   -7.6230254    148.09074  0.023417257  0.023974093            3 
  528000     1.059075   -7.6527203    147.70848  0.023312576  0.023955116            4 
  529000    1.0148099   -7.6363606    147.75428  0.023275721  0.023935846            1 
  530000    1.0397418   -7.6808876     147.7232  0.023226918  0.023916596            2 
  531000    1.0343389   -7.6505108    148.43886  0.023295489  0.023897175            2 
  532000    1.0285001   -7.6777141    148.17151  0.023209824  0.023878047            2 
  533000     1.020255   -7.6863597    148.58009  0.023230157  0.023858415            2 
  534000    1.0466862   -7.6570851    148.81818  0.023223811  0.023838854            2 
  535000    1.0480883   -7.7060456    148.94894  0.023200769  0.023819319            2 
  536000    1.0399361   -7.6634947    149.13723  0.023186759  0.023800073            2 
  537000    1.0325444    -7.700402     149.5082  0.023201148  0.023780944            3 
  538000    1.0578141    -7.706199    149.33641  0.023131414  0.023761857            1 
  539000    1.0367757   -7.7188971    149.20155  0.023067648  0.023742608            5 
  540000    1.0480568   -7.6787391    149.81692  0.023119895  0.023723216            3 
  541000    1.0338221   -7.6716718    149.82485  0.023078381   0.02370389            3 
  542000    1.0411855   -7.6831883    150.30798  0.023110083  0.023684644            3 
  543000    1.0203524   -7.6951379    150.27361  0.023062249  0.023665539            2 
  544000    1.0162934   -7.6710042     150.1672  0.023003554   0.02364605            3 
  545000    1.0543554   -7.7361376    150.09575   0.02295042  0.023626279            3 
  546000    1.0090397   -7.7052969    150.50301  0.022970545  0.023606806            2 
  547000    1.0479055   -7.7148206    150.48318   0.02292553  0.023587007            3 
  548000    1.0506217   -7.6492251    151.23422  0.022997904   0.02356722            9 
  549000    1.0228271   -7.6965595     151.2261  0.022954782   0.02354795            7 
  550000     1.041239   -7.7093912    151.56135  0.022963842  0.023528831            2 
  551000    1.0622411      -7.6518    151.77206  0.022954032  0.023509697            2 
  552000    1.0469573   -7.6662957     151.8613  0.022925921  0.023490785            3 
  553000    1.0041245   -7.6703545    151.63831   0.02285086  0.023471535            2 
  554000    1.0284019   -7.6646976    152.30733  0.022910248  0.023452555            1 
  555000    1.0464468   -7.6977732    152.17359  0.022848888  0.023433602            3 
  556000    1.0446159   -7.7227063    152.22666  0.022815746   0.02341478            1 
  557000    1.0302109   -7.7040477    152.61378  0.022832702  0.023395765            3 
  558000     1.019407   -7.7199921    153.00766  0.022850607  0.023376873            2 
  559000    1.0309737   -7.7237381    153.16488  0.022833166  0.023357931            2 
  560000    1.0351279   -7.7252126    153.39652  0.022826863   0.02333927            3 
  561000    1.0312809   -7.6715554    153.60541  0.022817203  0.023320519            2 
  562000    1.0383774   -7.6823209    154.15075  0.022857465  0.023302311            2 
  563000    1.0197364   -7.7026901    153.64956  0.022742682  0.023283822            3 
  564000    1.0348966   -7.7129151     154.3747    0.0228095    0.0232653            6 
  565000    1.0213252   -7.7181215    154.27366  0.022754227  0.023246902            1 
  566000    1.0501076   -7.6732613    154.82318  0.022794933  0.023228311            4 
  567000    1.0230936   -7.6897202    154.83415  0.022756342  0.023209878            4 
  568000    1.0394752   -7.6888513    154.91188  0.022727682  0.023191706            3 
  569000      1.03434   -7.6982031    155.08648   0.02271331  0.023173649            3 
  570000    1.0187845   -7.7156137    154.90079  0.022646315  0.023155543            2 
  571000    1.0188334   -7.6618962    155.59776  0.022708371  0.023137641            2 
  572000    1.0067525   -7.7190498    155.67015  0.022679217   0.02311967            4 
  573000    1.0304626   -7.7176607    156.04621  0.022694329   0.02310155            3 
  574000   0.99718543   -7.6950554     156.5115  0.022722343  0.023084203            2 
  575000    1.0288588   -7.6929411    156.55284  0.022688818  0.023066987            1 
  576000    1.0071886   -7.7124483    156.79109  0.022683895  0.023049564            2 
  577000    1.0299972   -7.7206942    156.80034  0.022645918  0.023032127            2 
  578000    1.0370164   -7.7530991    156.97397  0.022631771  0.023015004            2 
  579000    1.0259983   -7.7010345    157.21239  0.022626999  0.022997825            2 
  580000    1.0194606   -7.7366161      157.486  0.022627299  0.022980665            3 
  581000    1.0139404   -7.6873099    158.24558    0.0226973   0.02296363            7 
  582000    1.0198822   -7.7349811    157.59822   0.02256561  0.022946886            2 
  583000    1.0076078   -7.7134946    158.20397  0.022613489  0.022929917            1 
  584000     1.001236   -7.7475813    158.17033  0.022569968  0.022913226            2 
  585000     1.013604   -7.7274088    158.83207  0.022625651  0.022896389            3 
  586000    1.0250168   -7.6983527    158.34829  0.022518244  0.022879351            5 
  587000    1.0368764    -7.716037    158.36679  0.022482509  0.022862319            3 
  588000     1.034408   -7.6911306    158.55268  0.022470618  0.022845172            2 
  589000    1.0051064   -7.7253886    158.81415  0.022469461  0.022828047            4 
  590000    1.0108475   -7.6902678     159.2449  0.022492217  0.022811052            1 
  591000    1.0112919   -7.7534013    159.43833  0.022481434  0.022794101            3 
  592000    1.0201019   -7.7224209    159.19994  0.022409901  0.022777381            1 
  593000    1.0274855   -7.6886688    159.99556  0.022483919  0.022760492            5 
  594000    1.0228837   -7.7592014    159.32136  0.022351481  0.022743808            5 
  595000    1.0310382   -7.7472966    159.91763  0.022397427   0.02272691            5 
  596000    1.0043678   -7.7762267    159.99422  0.022370557  0.022709865            2 
  597000   0.99593415   -7.7365699    160.19893  0.022361659  0.022692576            2 
  598000    1.0448037   -7.7606507    160.34627  0.022344798  0.022675489            2 
  599000    1.0393971   -7.7321223    160.66401  0.022351699  0.022658781            2 
  600000    1.0165096   -7.7266702    161.19281  0.022387891  0.022641669            2 
  601000    1.0191847   -7.7651355    160.84945   0.02230303  0.022624688            2 
  602000    1.0045636   -7.7532816    161.10224  0.022300975  0.022607785            1 
  603000    1.0206408   -7.7351043    161.08852  0.022262095  0.022591131            2 
  604000    1.0333316    -7.723783    162.07383  0.022361179  0.022574879            4 
  605000     1.011146   -7.7217375    162.13952  0.022333267  0.022558299            1 
  606000    1.0159521   -7.7201753    162.04528  0.022283454  0.022541728            3 
  607000   0.99031689    -7.765198    162.00105  0.022240672  0.022525191            2 
  608000    1.0067266   -7.7437244      162.006   0.02220477  0.022508368            3 
  609000    1.0192083   -7.7424996    162.28674  0.022206724  0.022491579            4 
  610000    1.0101761   -7.7943571    162.52701  0.022203144  0.022474933            2 
  611000    1.0081703   -7.7393114    162.60543  0.022177499  0.022457771            2 
  612000    1.0205439    -7.732295    162.69387  0.022153305   0.02244084            3 
  613000    1.0226233   -7.7773168    162.91377   0.02214706  0.022424218            4 
  614000    1.0095583   -7.7615407    163.26842  0.022159123  0.022407919            5 
  615000   0.99138038   -7.6784923    163.55464  0.022161875  0.022391841            4 
  616000    1.0063774   -7.7169041    163.76154  0.022153888  0.022375846            3 
  617000   0.99705056   -7.7648004    163.55047  0.022089475  0.022359787            2 
  618000    1.0252096   -7.7002443    164.43283  0.022172711  0.022343783            4 
  619000    1.0053657   -7.7093881    164.55209  0.022152948   0.02232795            3 
  620000     1.000052    -7.763979      163.732  0.022006989  0.022311716            2 
  621000    1.0037238   -7.7424369     164.3086  0.022048927  0.022295588            1 
  622000   0.98662058   -7.7115058    164.52454   0.02204241  0.022279489            4 
  623000   0.98861386   -7.7010596    164.92422  0.022060489  0.022263322            2 
  624000   0.99801294   -7.7774189    164.91888  0.022024423    0.0222475            3 
  625000    1.0052234    -7.767219    165.14475    0.0220193   0.02223164            2 
  626000   0.97165659    -7.750039    165.48444  0.022029345  0.022215701            3 
  627000    0.9959165   -7.7441908    165.85996   0.02204412  0.022199694            3 
  628000     1.000235   -7.7774754    165.41094  0.021949435  0.022183713            4 
  629000    1.0214502   -7.7584471     165.6874  0.021951166  0.022167753            5 
  630000   0.98289964   -7.7593483    165.94959  0.021951004  0.022151864            2 
  631000    1.0187001    -7.748155    166.51488  0.021990872  0.022136308            3 
  632000    1.0037949   -7.7775157    166.44237  0.021946515  0.022120813            4 
  633000   0.99750763   -7.7585331    166.94504  0.021978019  0.022105066            7 
  634000   0.99787004   -7.8048691    166.78744  0.021922639  0.022089446            5 
  635000   0.97322387    -7.774835    166.96386  0.021911268  0.022073952            1 
  636000    1.0078852   -7.7649538    167.31926  0.021923383  0.022058455            1 
  637000   0.99330227   -7.7553651    167.27733  0.021883481  0.022042691            3 
  638000     1.009751   -7.7888654    167.38925  0.021863799  0.022027247            4 
  639000   0.98668134   -7.7920909    167.47496  0.021840761  0.022011863            2 
  640000    1.0045271   -7.8175091    167.42258  0.021799815  0.021996241            3 
  641000   0.99767759   -7.7987136    167.69997  0.021801868  0.021980506            2 
  642000     1.006822   -7.7900647    168.32726  0.021849333  0.021965256            2 
  643000   0.96701254   -7.8006557    168.24508  0.021804702  0.021949855            2 
  644000    1.0300448   -7.7911846    168.21026  0.021766339  0.021934076            4 
  645000   0.99105257   -7.7724594    168.18686  0.021729568  0.021918293            1 
  646000   0.99682262   -7.8046672    168.15736  0.021692126  0.021902633            4 
  647000    0.9996057   -7.7707061    168.38225  0.021687565  0.021886724            6 
  648000     1.010445   -7.8098238     168.7753  0.021704643  0.021870658            6 
  649000   0.98997181   -7.7681573     168.8507   0.02168088  0.021854763            5 
  650000   0.98012819   -7.7716003    169.29181  0.021704078    0.0218391            3 
  651000   0.99478315   -7.7451809    169.46394  0.021692773  0.021823618            3 
  652000    1.0215499   -7.7860408    169.55193  0.021670747  0.021808441            3 
  653000   0.98061906    -7.835561    169.40638  0.021618987  0.021793002            4 
  654000   0.98308344   -7.8387443    169.29657  0.021571938  0.021777232            5 
  655000     1.008626   -7.8355665    169.10819  0.021515037  0.021761275            2 
  656000    1.0230123   -7.7627509    170.43235  0.021650452  0.021745563            5 
  657000     1.017337   -7.7826459    170.00707  0.021563555  0.021729787            4 
  658000     1.010739   -7.8389516    169.83662  0.021509197  0.021713871            4 
  659000   0.97934829   -7.8135964    169.98532  0.021495361  0.021698006            2 
  660000    1.0256722   -7.8710573    170.44533  0.021520875  0.021682595            3 
  661000   0.99182305   -7.8140416    171.24608  0.021589268  0.021667491            4 
  662000   0.99121148   -7.7948081    171.19298  0.021549972  0.021652311            1 
  663000     1.000481   -7.8467775    170.57859  0.021440245  0.021636893            2 
  664000    1.0023175   -7.8074729    171.11394  0.021475143  0.021621479            1 
  665000    0.9737819   -7.7889237    171.67967  0.021513743  0.021606126            1 
  666000   0.99689546   -7.8018213    171.61001  0.021472724  0.021590888            4 
  667000   0.97729704   -7.8252279    171.48563  0.021424991   0.02157581            2 
  668000   0.97950971   -7.8207189    172.15871  0.021476885  0.021560788            2 
  669000   0.98695718   -7.8124278    171.96302  0.021420407  0.021545798            1 
  670000   0.98207512   -7.8334196    172.32457  0.021433404  0.021530597            1 
  671000   0.98659533   -7.8499592    171.93307  0.021352841   0.02151511            4 
  672000   0.99359374   -7.8349118    172.70286  0.021416525  0.021499675            1 
  673000   0.99930447   -7.8032508    172.93013  0.021412845  0.021484374            2 
  674000   0.98167144   -7.7967699    173.37613  0.021436218  0.021469295            4 
  675000    1.0002449   -7.7907098    173.02661   0.02136131  0.021454398            3 
  676000   0.98570305   -7.8524278    172.84885  0.021307797  0.021439225            2 
  677000    0.9838057   -7.8341573     173.2909  0.021330736  0.021423955            4 
  678000    0.9852447   -7.8296821    172.95892   0.02125847  0.021408608            3 
  679000   0.98136829   -7.8095532    173.33634  0.021273483  0.021393335            2 
  680000    1.0143663   -7.8368134    173.49974  0.021262223  0.021378072            3 
  681000   0.96231668   -7.8598811    172.85845  0.021152527  0.021362579            3 
  682000    0.9888157    -7.801186    173.61889  0.021214429  0.021347006            2 
  683000    1.0039967   -7.8189211     173.7329  0.021197279   0.02133147            4 
  684000   0.97707478    -7.823198    174.00543  0.021199492   0.02131579            1 
  685000   0.98119921   -7.8576498    173.66728  0.021127406  0.021299882            1 
  686000   0.96924929   -7.8493169    173.89575  0.021124362  0.021284141            4 
  687000   0.96738228   -7.8192306      173.809  0.021083091  0.021268265            3 
  688000   0.97980837   -7.8362984    174.18613  0.021098126  0.021252558            6 
  689000   0.98808357    -7.820157     174.6606  0.021124891  0.021237082            2 
  690000   0.95770966   -7.8241771    174.49784  0.021074618  0.021221343            2 
  691000   0.96392256   -7.8604813    174.74617  0.021074068  0.021205693            4 
  692000   0.96534691   -7.8221897     174.9459  0.021067667  0.021190059            2 
  693000    0.9963433   -7.8309345    175.16563  0.021063688   0.02117423            6 
  694000   0.98158932   -7.8446563    174.91205  0.021002888  0.021158291            3 
  695000   0.98463315   -7.8179565    175.42972  0.021034739  0.021142665            5 
  696000   0.98865931   -7.8132355    175.15797  0.020971979  0.021127042            3 
  697000   0.97862927   -7.8654797    174.70782   0.02088807  0.021111362            3 
  698000   0.96915653   -7.8381155    175.54411  0.020957988  0.021096019            3 
  699000   0.98589258   -7.8170336    175.36639  0.020906819  0.021080441            4 
  700000   0.96785527   -7.8476461    175.46763  0.020889003  0.021064768            3 
  701000   0.97664155   -7.8198203    175.98234  0.020920392  0.021048874            3 
  702000   0.97268631   -7.8551318     175.7878  0.020867498  0.021033155            3 
  703000   0.95486427   -7.8667011    175.72447  0.020830308  0.021017147            4 
  704000    0.9796737   -7.8492733    176.06506  0.020841035  0.021001028           14 
  705000   0.95715903   -7.8864649    176.52316  0.020865622  0.020985017            4 
  706000    1.0144775   -7.8842924     175.8258  0.020753753  0.020968886            3 
  707000     0.974723   -7.9034628    176.14496  0.020762017  0.020952658            5 
  708000   0.99404972   -7.9078717    175.74368  0.020685461  0.020936284            4 
  709000     0.966987   -7.8800466    176.30255  0.020721973  0.020919846            3 
  710000   0.96225962    -7.886224    175.93175  0.020649266  0.020903505            4 
  711000   0.96072938   -7.8503235    176.63212  0.020702311  0.020886927            4 
  712000   0.98455867   -7.8738249    176.72329  0.020683906  0.020870748            1 
  713000   0.98633178   -7.8538037    176.51986  0.020631119  0.020854623            2 
  714000   0.95287628   -7.8654394    176.44041  0.020592952  0.020838523            5 
  715000   0.95110238   -7.8653364    177.02584  0.020632383  0.020822493            3 
  716000   0.96945696   -7.8677012    176.96517  0.020596505  0.020806392            7 
  717000    0.9798209   -7.8487877    177.71337  0.020654738  0.020790551            3 
  718000   0.95940496   -7.8767108    177.55541  0.020607638   0.02077464            1 
  719000   0.97938722   -7.8484854    178.20745  0.020654549  0.020758742            5 
  720000   0.97538241   -7.8605257    177.68117   0.02056495  0.020743178            2 
  721000   0.95722914   -7.8576372    178.05576  0.020579722   0.02072708            3 
  722000    0.9652444     -7.86887    178.29316  0.020578619  0.020711219            1 
  723000   0.97061489   -7.8894982    177.62896  0.020473601  0.020695262            3 
  724000   0.96163066   -7.8874201    178.64818  0.020562636  0.020679333            2 
  725000   0.95088527   -7.8651138     178.8519   0.02055769  0.020663597            2 
  726000   0.95721262   -7.8978626    178.55243  0.020494999  0.020647749            2 
  727000   0.97046426   -7.8665184    178.77538  0.020492363  0.020631763            2 
  728000   0.97094288    -7.880855    179.03513  0.020493949  0.020615794            3 
  729000   0.96005558   -7.8904882    177.95422  0.020342275  0.020599715            4 
  730000   0.96360895   -7.8775567    178.82917  0.020414289  0.020583595            3 
  731000   0.96899735   -7.8994909    178.67675  0.020368987  0.020567199            3 
  732000   0.94293143   -7.9375817    178.77633  0.020352497  0.020550769            6 
  733000   0.95935634   -7.8977274    179.05612  0.020356539  0.020534289            4 
  734000    0.9613355   -7.8882345    178.89083  0.020310039  0.020518112            2 
  735000   0.93516124   -7.8829283    179.56289  0.020358604  0.020502125            2 
  736000   0.96690244   -7.9205737     179.1314  0.020282088  0.020486131            2 
  737000   0.93922728   -7.8843109    179.82512  0.020333008  0.020470112            1 
  738000   0.96195717   -7.8636197    179.71997  0.020293583  0.020454296            3 
  739000   0.94970222   -7.8578865    180.09093  0.020307954  0.020438486            3 
  740000    0.9563233   -7.8779566    179.88868  0.020257735  0.020422653            4 
  741000   0.97972909    -7.867591     180.5325    0.0203028  0.020406849            2 
  742000   0.94953581   -7.8948092    180.52755  0.020274882  0.020390979            3 
  743000   0.97284961   -7.8914989    180.60683  0.020256487  0.020375193            3 
  744000   0.94902186   -7.8842246    180.45945  0.020212752  0.020359444            3 
  745000   0.96294994   -7.8896819    180.93396  0.020238698  0.020343829            1 
  746000   0.94111168   -7.9176542    180.98111  0.020216836  0.020328325            2 
  747000   0.97623035   -7.8937993     180.8927  0.020179909  0.020312749            4 
  748000   0.92857414   -7.8408405    181.68164  0.020240824  0.020297166            4 
  749000   0.95456721   -7.9418971    180.93642  0.020130887  0.020281483            3 
  750000   0.94237278   -7.9017876    181.11546   0.02012394   0.02026571            2 
  751000   0.95762646   -7.9202763    181.31876  0.020119703  0.020249947            2 
  752000    0.9508232    -7.899724    181.50675   0.02011378  0.020234104            3 
  753000   0.93249069   -7.8937008    181.43417  0.020079037  0.020218313            5 
  754000   0.96750738   -7.8808921    182.37655  0.020156559   0.02020257            4 
  755000   0.94352935   -7.8787715    182.46034  0.020139111   0.02018701           10 
  756000   0.94804159   -7.9227608    181.73782  0.020032829  0.020171184            7 
  757000   0.95196781   -7.8879221    182.39282   0.02007847  0.020155583            3 
  758000   0.94610276   -7.8846224    182.71494  0.020087394   0.02014015            2 
  759000   0.95531589    -7.917455    182.30692  0.020016131   0.02012459            4 
  760000   0.93383248   -7.9821661    182.28927  0.019987859   0.02010879            2 
  761000   0.95595102   -7.9377221    182.89853  0.020028311  0.020093152            3 
  762000   0.94714448   -7.9340143    182.93703  0.020006237  0.020077587            2 
  763000   0.95610143   -7.9217477    182.95809  0.019982316  0.020062101            5 
  764000   0.94742922   -7.9328392    182.84013  0.019943296  0.020046648            2 
  765000   0.95028727   -7.9193525    183.66331  0.020006897  0.020031235            4 
  766000   0.94485172   -7.9307527    182.84854  0.019892138  0.020015733            2 
  767000   0.95145429   -7.9177646    183.41895  0.019928178  0.020000126            2 
  768000   0.95395301   -7.9290861    183.06995  0.019864361  0.019984408            2 
  769000   0.95098115   -7.8947141    183.75822  0.019913114  0.019968982            3 
  770000   0.95364037   -7.8939344    184.25059   0.01994054  0.019953736            5 
  771000   0.94569232   -7.9436464    183.50891  0.019834513  0.019938353            4 
  772000   0.95999753   -7.9470327    183.92091  0.019853293  0.019922958            2 
  773000   0.95919119   -7.9167762    184.05328   0.01984188  0.019907514            3 
  774000   0.95771559   -7.9262232    184.05047  0.019815942  0.019892101            3 
  775000   0.93677846   -7.9032671    184.16347  0.019802523  0.019876797            1 
  776000   0.94100055   -7.9630784    184.35564  0.019797642  0.019861589            1 
  777000   0.94790656    -7.956701    184.51658  0.019789423  0.019846179            2 
  778000   0.94588012   -7.9134579    185.22508  0.019839875  0.019830826            7 
  779000   0.94229333   -7.9575698    184.23648  0.019708653  0.019815406            5 
  780000   0.95581453   -7.9314008    185.56482  0.019825301  0.019800239            2 
  781000   0.94558474   -7.9005561    185.24234  0.019765508  0.019785273            3 
  782000   0.92867439   -7.9517017    184.61964  0.019673875  0.019770195            4 
  783000    0.9466451   -7.9394044    185.04038  0.019693527  0.019755183            3 
  784000   0.95110786    -7.945274    186.00227   0.01977065  0.019740134            5 
  785000   0.94277176   -7.9225203     185.3961  0.019681115   0.01972518            3 
  786000   0.94585008   -7.9264166    185.73494  0.019691999  0.019710228            1 
  787000   0.91290694   -7.9654038    185.70086   0.01966337  0.019695162            2 
  788000    0.9467464   -7.9658043    185.48754  0.019615857  0.019680036            3 
  789000   0.93177872   -7.9733799    185.66669  0.019609917  0.019664892            3 
  790000   0.95408767   -7.9624486    185.67363  0.019585826  0.019649674            4 
  791000   0.93772301   -7.9544199    186.11551  0.019607618  0.019634559            5 
  792000   0.92938686   -7.9489113    186.56795  0.019630466   0.01961955            2 
  793000   0.95660774    -7.933324     186.2382  0.019571059  0.019604403            4 
  794000   0.91016628   -7.9531075    186.19243  0.019541607   0.01958923            4 
  795000   0.92310001   -7.9518398    185.99952  0.019496805   0.01957418            3 
  796000   0.95079943   -7.9822526    186.62387  0.019537675  0.019559025            3 
  797000   0.92157177   -7.9827068     186.8942  0.019541426  0.019543832            3 
  798000   0.92235041   -7.9588225     186.5161  0.019477454  0.019528651            4 
  799000   0.92210591    -7.951907    186.31663  0.019432273  0.019513325            1 
  800000   0.95733548   -7.9953288    186.67194  0.019444994  0.019497903            2 
  801000   0.93372515   -7.9745393    186.64091   0.01941749  0.019482497            5 
  802000   0.92810685   -7.9212024    187.31199  0.019463008  0.019467284            3 
  803000   0.93995884   -7.9834441    186.98902  0.019405253   0.01945207            4 
  804000   0.92075328   -7.9410766     187.2939  0.019412718  0.019436922            3 
  805000    0.9176601   -7.9323856     187.5488   0.01941499  0.019421783            5 
  806000   0.91663389    -7.955137    187.33305  0.019368595  0.019406703            5 
  807000   0.93242333   -7.9483177    187.52057  0.019363958  0.019391649            2 
  808000   0.92954471   -7.9398641    187.39738  0.019327287  0.019376652            8 
[...]
 1800000   0.53020899   -8.9968653    203.91986 0.0094407342 0.0080530384          223 
 1801000   0.54020766   -9.0035545     203.9021 0.0094346706 0.0080457862          248 
 1802000   0.52590173   -8.9877266    204.14995 0.0094408965 0.0080385412          225 
 1803000   0.54272573   -8.9922506    204.03652 0.0094304179 0.0080312972          234 
 1804000   0.53984506   -9.0219461    204.17266 0.0094314793 0.0080240659          231 
 1805000   0.53493433   -8.9945497    204.18034 0.0094266083 0.0080168409          234 
 1806000   0.52812183   -8.9944324    204.16532 0.0094206957  0.008009624          251 
 1807000    0.5304231   -9.0146142    204.05339 0.0094103203 0.0080024206          234 
 1808000   0.53295434    -9.016033    204.10718 0.0094075949 0.0079952193          229 
 1809000   0.53508905   -9.0045551    203.98057  0.009396562 0.0079880248          232 
 1810000   0.52749752   -9.0120417    204.29606 0.0094058958  0.007980835          235 
 1811000   0.52999258   -9.0174608    203.71789 0.0093740974 0.0079736521          214 
 1812000   0.53083442   -9.0288278    203.97596 0.0093807929 0.0079664815          227 
 1813000   0.52675705   -9.0224396    203.85357 0.0093699933 0.0079593208          230 
 1814000   0.53136235   -9.0031339     204.0106 0.0093720415 0.0079521731          234 
 1815000   0.52342508   -9.0201268    204.22793 0.0093768562 0.0079450365          230 
 1816000     0.530741   -9.0108107    204.04759 0.0093634172 0.0079378956          224 
 1817000    0.5329779   -9.0016913    203.97463 0.0093549181 0.0079307686          214 
 1818000   0.52491613   -9.0064714    203.83413 0.0093433318 0.0079236532          240 
 1819000   0.52551634   -9.0019147    204.41445 0.0093647814 0.0079165533          238 
 1820000   0.53664324   -9.0106172    204.13845 0.0093469987 0.0079094532          246 
 1821000   0.51439958   -9.0061102    204.21644 0.0093454346 0.0079023581          231 
 1822000   0.51426591   -9.0203947    203.90935 0.0093262598 0.0078952719          251 
 1823000   0.52740455   -9.0289572    203.62366 0.0093080848 0.0078881959          218 
 1824000   0.52397705   -9.0068494      203.725 0.0093076115 0.0078811354          252 
 1825000   0.52254916   -8.9981518    204.02092 0.0093160239 0.0078740741          225 
 1826000    0.5224339    -9.019675    204.27037 0.0093223061 0.0078670333          237 
 1827000   0.53210375   -9.0195179    204.18951 0.0093135155 0.0078599907          232 
 1828000   0.52145442   -9.0276137    203.89283 0.0092948958 0.0078529576          229 
 1829000   0.52313387    -9.007575    203.99372 0.0092944106 0.0078459337          236 
 1830000   0.52715972   -9.0242477    204.02766 0.0092908773 0.0078389165          216 
 1831000   0.51308754   -9.0092471    204.37879 0.0093017836 0.0078319053          231 
 1832000   0.51931482   -9.0162961    203.78665 0.0092697714 0.0078249044          225 
 1833000   0.51907984   -9.0343163    203.89142  0.009269477 0.0078179104          221 
 1834000   0.52866697   -9.0251825    203.50215 0.0092467354  0.007810924          229 
 1835000   0.51874286   -9.0245198    203.81001 0.0092556773 0.0078039474          238 
 1836000   0.52443887   -9.0295404    203.67672  0.009244586 0.0077969734          233 
 1837000   0.51563615   -9.0328739    203.73266 0.0092420911  0.007790002          230 
 1838000   0.51274046   -9.0237332    204.14702 0.0092558498  0.007783045          213 
 1839000   0.52527621   -9.0461468    203.72635  0.009231754 0.0077760934          210 
 1840000   0.52015803   -9.0082929    203.70089 0.0092255836 0.0077691465          242 
 1841000    0.5199949   -9.0215016    203.82524 0.0092262012 0.0077622075          211 
 1842000   0.52273234   -9.0276352    203.76895 0.0092186462 0.0077552752          210 
 1843000   0.51237787   -9.0081083    203.62253 0.0092070236 0.0077483492          234 
 1844000   0.51954436   -9.0090952    203.88007  0.009213669 0.0077414321          240 
 1845000   0.51438492   -9.0313382    203.86029 0.0092077819 0.0077345203          238 
 1846000   0.51587891   -9.0429011    203.87132 0.0092032919 0.0077276111          251 
 1847000   0.50684137   -9.0178374    203.67049 0.0091892478 0.0077207208          245 
 1848000   0.51204902   -9.0349379    203.66016 0.0091838095 0.0077138252          256 
 1849000   0.52541883   -9.0215437    203.60082 0.0091761681  0.007706942          239 
 1850000   0.50423345   -9.0287676     203.6237 0.0091722389 0.0077000754          231 
 1851000   0.53035753   -9.0443746    203.48674 0.0091611174 0.0076932066          236 
 1852000   0.51638097   -9.0377831    203.46997 0.0091554164 0.0076863492          230 
 1853000   0.51938107   -9.0317735    203.53054 0.0091531994 0.0076795026          226 
 1854000   0.51363799   -9.0532007    203.94965 0.0091671006 0.0076726635          254 
 1855000   0.51395961   -9.0318421    203.42262 0.0091384826 0.0076658302          226 
 1856000   0.51362164   -9.0358916    203.46303 0.0091353731   0.00765901          251 
 1857000   0.51849918   -9.0390972    203.76318 0.0091439232 0.0076522007          232 
 1858000   0.49694503   -9.0419822    203.80745 0.0091409874 0.0076453969          244 
 1859000   0.52410029   -9.0324503    203.63957 0.0091285445 0.0076385923          258 
 1860000   0.52492493   -9.0465866    203.77972 0.0091299159 0.0076317968          244 
 1861000   0.51503598   -9.0283985      203.693 0.0091211266 0.0076250082          258 
 1862000   0.52159347   -9.0255171    203.50483 0.0091078065 0.0076182355          261 
 1863000   0.50971268   -9.0545814    203.58428 0.0091064715 0.0076114683          239 
 1864000   0.52018483   -9.0344236    203.63705 0.0091039452 0.0076047108          210 
 1865000   0.50757129   -9.0347543    203.81034 0.0091068072 0.0075979541          213 
 1866000   0.50517657   -9.0441931     203.5859 0.0090919032 0.0075912107          233 
 1867000   0.50527232   -9.0322181    203.74996 0.0090943565 0.0075844701          234 
 1868000   0.51184822   -9.0264401    203.59632 0.0090826337 0.0075777387          244 
 1869000   0.50388393   -9.0575054    203.55847 0.0090760867 0.0075710112          233 
 1870000    0.5062943   -9.0729642    203.71673 0.0090782857  0.007564292          244 
 1871000   0.49816135   -9.0599334    203.34606 0.0090569241 0.0075575788          251 
 1872000   0.50322921   -9.0395212    203.85367 0.0090746827 0.0075508813          235 
 1873000   0.49537704   -9.0508018    203.66909 0.0090616254 0.0075441963          217 
 1874000   0.50807603     -9.02857    203.98051 0.0090706383 0.0075375171          226 
 1875000   0.51373354   -9.0488191    203.36206 0.0090383136 0.0075308441          244 
 1876000   0.50401404   -9.0523891    203.58652 0.0090434666 0.0075241768          235 
 1877000   0.49809634    -9.052885    203.62916 0.0090405414 0.0075175194          244 
 1878000   0.49916277   -9.0583903    203.73088 0.0090402413  0.007510866          248 
 1879000   0.50672121   -9.0500367    203.46652 0.0090237058 0.0075042225          228 
 1880000    0.5059206   -9.0539332    203.68791 0.0090287196 0.0074975825          231 
 1881000   0.49729974   -9.0482411    203.65604 0.0090225076 0.0074909493          231 
 1882000   0.50841137   -9.0549779    203.52626 0.0090119668 0.0074843283          229 
 1883000   0.49547474   -9.0663478    203.72516 0.0090159833 0.0074777165          239 
 1884000   0.50228145    -9.053105    203.59247 0.0090053286 0.0074711058          231 
 1885000   0.49561504   -9.0542303    203.79665 0.0090095778 0.0074645059          222 
 1886000   0.49492012   -9.0511268    203.62977 0.0089974273 0.0074579096          244 
 1887000   0.50695392   -9.0520569    203.35011 0.0089803089 0.0074513158          230 
 1888000   0.49108509   -9.0462452    203.38623 0.0089771463 0.0074447368          241 
 1889000   0.50741753   -9.0647456    203.40138 0.0089730623 0.0074381671          230 
 1890000   0.49141279   -9.0586185    203.27122 0.0089625757 0.0074315998          242 
 1891000   0.50054557   -9.0552622     203.3435 0.0089610213 0.0074250348          265 
 1892000   0.49400025   -9.0737121    203.61241 0.0089681292 0.0074184799          244 
 1893000   0.49211359   -9.0740077    203.37833 0.0089530874 0.0074119338          246 
 1894000   0.50154659   -9.0691363     203.2795 0.0089440117 0.0074053977          251 
 1895000   0.50865104   -9.0579305    203.37411 0.0089434527 0.0073988703          230 
 1896000   0.49707831   -9.0687383    203.33538  0.008937033 0.0073923508          231 
 1897000   0.50272921   -9.0690103    203.51574  0.008940245  0.007385839          236 
 1898000   0.48792749   -9.0613813    203.55299 0.0089371703 0.0073793338          240 
 1899000   0.48344315   -9.0619382    203.40549 0.0089259912 0.0073728395          208 
 1900000   0.49644653   -9.0664316    203.35039 0.0089188768 0.0073663521          243 
 1901000   0.49792378   -9.0833876    203.63047 0.0089264628 0.0073598738          218 
 1902000   0.50862316   -9.0606451    203.53816 0.0089177252 0.0073534041          216 
 1903000    0.4862186   -9.0582507     203.4102 0.0089074357 0.0073469384          234 
 1904000   0.49912972   -9.0854621    203.60217 0.0089111594 0.0073404805          226 
 1905000   0.50626142   -9.0772729    203.31165 0.0088937732 0.0073340293          251 
 1906000   0.48574933   -9.0804655    203.47725 0.0088963469 0.0073275832          238 
 1907000   0.48887648   -9.0894708    203.22366 0.0088806005   0.00732115          241 
 1908000   0.49287108   -9.0700428    203.00854 0.0088665503 0.0073147159          246 
 1909000   0.47627458   -9.0682068     203.6668 0.0088906406 0.0073082923          240 
 1910000    0.4966471   -9.0689139    203.20779 0.0088659596 0.0073018736          246 
 1911000    0.4886831   -9.0911251    202.97548 0.0088511897 0.0072954599          238 
 1912000   0.48805255   -9.0848004    203.57091 0.0088725119 0.0072890551          226 
 1913000   0.48391197   -9.0811225     203.3554 0.0088584859 0.0072826551          231 
 1914000   0.49029432   -9.0613772    203.16336 0.0088454965  0.007276275          220 
 1915000   0.49486411   -9.0903072    203.16564 0.0088409766 0.0072698941          249 
 1916000   0.48742261   -9.0648736    203.56011 0.0088535192 0.0072635209          226 
 1917000   0.48087561    -9.094267    203.20925 0.0088336484 0.0072571605          233 
 1918000   0.47736266   -9.0878242    203.22964 0.0088299287 0.0072508003          258 
 1919000   0.48725833   -9.0922247    203.31583 0.0088290703 0.0072444447          241 
 1920000   0.48283332   -9.0912007    203.38562 0.0088275011 0.0072380973          243 
 1921000   0.49591412   -9.0864895     203.2568 0.0088173176 0.0072317591          233 
 1922000   0.49152416    -9.079343    203.08296 0.0088051925 0.0072254224          243 
 1923000   0.49041232   -9.0869658    203.22188 0.0088066339  0.007219105          230 
 1924000   0.49439445   -9.0864179    202.95672 0.0087905715 0.0072127861          218 
 1925000   0.49418875   -9.0963545    203.27412 0.0087997456 0.0072064755          233 
 1926000   0.48059698   -9.0847547    203.31496 0.0087969435 0.0072001729          240 
 1927000    0.4714147   -9.0956973    203.37312 0.0087948936 0.0071938771          243 
 1928000   0.48806348   -9.0839701    203.26116 0.0087854928 0.0071875846          228 
 1929000   0.48562104   -9.0883426    203.31036 0.0087830637 0.0071813046          224 
 1930000   0.48483942   -9.0886715    203.08248 0.0087686734  0.007175031          226 
 1931000   0.47707797   -9.0980542    202.87435 0.0087551507 0.0071687622          235 
 1932000   0.48701658   -9.0769834    203.46161 0.0087759494  0.007162504          227 
 1933000   0.48311731   -9.0779165    203.46243 0.0087714448  0.007156255          248 
 1934000   0.48275647   -9.0770709    203.08681 0.0087507244 0.0071500104          232 
 1935000   0.48153617   -9.0842479    203.26739 0.0087539787 0.0071437689          246 
 1936000   0.48340997   -9.1035204    203.12715 0.0087434209 0.0071375372          242 
 1937000   0.48180059   -9.0827862    203.24667  0.008744049 0.0071313107          226 
 1938000   0.47526604   -9.0780714    203.21628 0.0087382303 0.0071250897          236 
 1939000   0.48295616   -9.0783224    203.03527 0.0087259441 0.0071188843          245 
 1940000   0.48795905   -9.0970262    203.08356 0.0087235206 0.0071126807          235 
 1941000   0.47294474   -9.0777812    203.20967 0.0087244404 0.0071064821          243 
 1942000   0.47349634   -9.1215545    203.11265  0.008715785  0.007100289          233 
 1943000   0.47472568   -9.1078233    203.72619 0.0087376131 0.0070941073          227 
 1944000   0.47628852   -9.1048008    203.15577 0.0087086664 0.0070879387          214 
 1945000   0.47591939   -9.1073244    203.10803 0.0087021433 0.0070817742          223 
 1946000   0.46386525   -9.0923694    203.09085 0.0086969359  0.007075616          247 
 1947000   0.46872068   -9.0991171    203.12902  0.008694103 0.0070694639          239 
 1948000   0.47711791   -9.1031899    203.19618 0.0086925128 0.0070633155          244 
 1949000   0.46910818   -9.0874683    202.88236 0.0086746348 0.0070571736          216 
 1950000   0.48147107   -9.0937055    203.09882 0.0086794369 0.0070510387          231 
 1951000   0.46402768   -9.0810843    203.31884 0.0086843856 0.0070449108          220 
 1952000    0.4686664   -9.1079537    203.00091 0.0086663641  0.007038784          246 
 1953000   0.46208492    -9.086021    203.06771  0.008664777 0.0070326629          245 
 1954000   0.47024332   -9.1017715    202.84821 0.0086509813 0.0070265515          234 
 1955000   0.46503668   -9.0983247    203.34259 0.0086676294 0.0070204539          224 
 1956000   0.47525027   -9.0876209    202.99328 0.0086483162 0.0070143558          222 
 1957000   0.46226451   -9.0873027    203.12447 0.0086494835 0.0070082589          230 
 1958000    0.4731113   -9.1196668    202.96689 0.0086383593 0.0070021823          247 
 1959000   0.47951844   -9.1067278     202.8264 0.0086279735 0.0069961032          228 
 1960000   0.46824599   -9.1078091    202.92027 0.0086275625 0.0069900369          234 
 1961000   0.47712893   -9.1210454    203.16814 0.0086336961 0.0069839783          243 
 1962000   0.47368417    -9.093838    203.05783 0.0086246106 0.0069779257          220 
 1963000   0.46280003   -9.1066993    203.10452 0.0086221988 0.0069718794          239 
 1964000   0.47383241   -9.1139174    202.89646 0.0086089808 0.0069658394          241 
 1965000    0.4722457   -9.1124285    203.39079 0.0086255638 0.0069598069          239 
 1966000    0.4677274   -9.1072183    203.01251 0.0086051421  0.006953779          218 
 1967000   0.47086067   -9.1246865    203.03107 0.0086015537 0.0069477537          228 
 1968000   0.47235886   -9.1187823    203.06143 0.0085984685 0.0069417424          249 
 1969000   0.46685698   -9.1251186    202.89847 0.0085872044  0.006935735          232 
 1970000   0.45770791   -9.1099446    202.94754 0.0085849215 0.0069297332          232 
 1971000   0.47067982   -9.1048454    203.12324 0.0085879944  0.006923742          236 
 1972000   0.46714438   -9.1060402    202.92508 0.0085752655 0.0069177562          240 
 1973000   0.46505871   -9.1060593    202.94279 0.0085716669 0.0069117742          240 
 1974000   0.45991071   -9.1283151    202.71939 0.0085578938 0.0069058018          219 
 1975000   0.45527193   -9.1279922    203.15157 0.0085717961 0.0068998338          245 
 1976000   0.45732764   -9.1089944    202.54895 0.0085420439 0.0068938707          231 
 1977000   0.47518315   -9.1329439    203.15454 0.0085632501 0.0068879198          246 
 1978000   0.47039972   -9.1149466    202.91439 0.0085488032  0.006881976          239 
 1979000   0.46716993   -9.1065963    202.96481 0.0085466063 0.0068760368          245 
 1980000   0.46990475     -9.10607     203.1019 0.0085480596 0.0068701063          248 
 1981000   0.45949816   -9.1134082    202.60279  0.008522749 0.0068641818          244 
 1982000    0.4577837   -9.1279269    202.90538 0.0085311715 0.0068582594          243 
 1983000   0.46573925   -9.0977494    202.84018 0.0085241293 0.0068523451          235 
 1984000   0.45536937   -9.1240303    202.69208 0.0085136121 0.0068464398          233 
 1985000    0.4666338    -9.115517    203.03416 0.0085236843   0.00684054          251 
 1986000   0.46691379   -9.1056554    202.69876  0.008505319 0.0068346424          236 
 1987000   0.45803393   -9.1210019    202.88641 0.0085089082 0.0068287575          247 
 1988000   0.46360079   -9.1177696    202.79969 0.0085009931 0.0068228755          230 
 1989000   0.46398078   -9.1194055    202.97262 0.0085039644 0.0068170035          238 
 1990000   0.46712935   -9.1362137    202.98115  0.008500048 0.0068111361          263 
 1991000   0.45751646   -9.1124316    203.02993 0.0084978206 0.0068052795          240 
 1992000   0.46318307   -9.1286955    202.79165 0.0084835863 0.0067994209          235 
 1993000   0.46628455   -9.1305269    202.94149  0.008485595 0.0067935806          255 
 1994000   0.45755034   -9.1175451     203.0103 0.0084842153 0.0067877393          226 
 1995000   0.46351045   -9.1216657    202.83484 0.0084726334 0.0067819033          241 
 1996000   0.45233143    -9.118692    202.80062 0.0084669598 0.0067760726          230 
 1997000   0.45776056   -9.1208561     202.6392 0.0084559839 0.0067702431          239 
 1998000   0.45056144   -9.1210271    202.77097 0.0084572477 0.0067644225          255 
 1999000   0.44282823   -9.1162812    202.72242 0.0084509931 0.0067586095          237 
 2000000   0.44399026   -9.1369231      203.059 0.0084607917 0.0067528027          235 
 2001000   0.45229864    -9.132195    202.66565 0.0084401822 0.0067470073          236 
 2002000   0.46148624    -9.130593    202.90329 0.0084458579 0.0067412223          240 
 2003000   0.45740781   -9.1295608    202.92429 0.0084425151 0.0067354374          243 
 2004000   0.45511774   -9.1318564    202.59916 0.0084247823  0.006729667          252 
 2005000   0.44449688   -9.1444422    202.52409 0.0084174599 0.0067238974          226 
 2006000   0.45268387   -9.1518146    202.56948 0.0084151496  0.006718132          238 
 2007000   0.45566688   -9.1372294    203.06817 0.0084316627 0.0067123748          234 
 2008000   0.45246595   -9.1307941    202.69759 0.0084120847 0.0067066234          247 
 2009000   0.45004268   -9.1305498    202.65163 0.0084059909 0.0067008791          239 
 2010000    0.4639824   -9.1387156    202.67395 0.0084027342 0.0066951436          238 
 2011000   0.43970268   -9.1355396    202.95483 0.0084101952 0.0066894091          234 
 2012000   0.44714073   -9.1470312    202.93553 0.0084052157 0.0066836902          239 
Loop time of 5030.95 on 48 procs for 2000000 steps with 4000 atoms

Performance: 68694.712 tau/day, 397.539 timesteps/s
99.4% CPU use with 48 MPI tasks x no OpenMP threads

MPI task timing breakdown:
Section |  min time  |  avg time  |  max time  |%varavg| %total
---------------------------------------------------------------
Pair    | 343.58     | 365.64     | 382.54     |  55.3 |  7.27
Neigh   | 33.691     | 35.044     | 36.683     |  12.0 |  0.70
Comm    | 322.32     | 342.21     | 365.71     |  61.0 |  6.80
Output  | 4.5835     | 4.5853     | 4.6238     |   0.3 |  0.09
Modify  | 4227.9     | 4237.8     | 4251.7     |   8.6 | 84.23
Other   |            | 45.68      |            |       |  0.91

Nlocal:        83.3333 ave          88 max          76 min
Histogram: 1 2 2 2 6 8 11 4 5 7
Nghost:        2270.67 ave        2289 max        2252 min
Histogram: 3 5 3 6 6 7 5 6 4 3
Neighs:        15284.9 ave       16628 max       13869 min
Histogram: 2 2 7 7 7 2 8 7 3 3
FullNghs:      30569.3 ave       32727 max       27557 min
Histogram: 1 0 4 4 7 7 10 8 5 2

Total # of neighbors = 1467328
Ave neighs/atom = 366.83200
Neighbor list builds = 106599
Dangerous builds = 0

#clear
#
#next RN
#
#jump SELF
Total wall time: 1:23:54
