
units lj                  # Use reduced LJ style units
atom_style atomic         # Uncharged point particles
atom_modify map hash      # Needed for indexing of clusters etc
                          # Used to be able to find where atoms are in relation to each other.

# Define a lattice with which to populate the simulation cell. With units
# set to 'lj' the second argument to the lattice command is the reduced
# density rho* and the spacings are multiples of that required to acheive
# that density. Also define a simulation cell called 'box' in lattice units
# and fill it with atoms. Here we're creating a box which is ten lattice
# constants in each direction.
lattice fcc 1.0 spacing 1 1 1                 # All equal sizes - gives the right reduced density.
Lattice spacing in x,y,z = 1.5874011 1.5874011 1.5874011

region box block 0 10 0 10 0 10 units lattice # Defines a region, "box", in lattice units
create_box 1 box                              # Creates a simulation box as specified above,
Created orthogonal box = (0.0000000 0.0000000 0.0000000) to (15.874011 15.874011 15.874011)
  4 by 4 by 4 MPI processor grid
                                              # with one type of atom
create_atoms 1 box                            # Creates particles on lattice points
Created 4000 atoms
  using lattice units in orthogonal box = (0.0000000 0.0000000 0.0000000) to (15.874011 15.874011 15.874011)
  create_atoms CPU = 0.002 seconds


# Set the mass of the first (and only) atom type.
mass 1 1.0

# Lennard-Jones interactions between particles, 3.5 sigma cut-off. Apply
# long range tail corrections to energy and pressure and set all coefficients
# to unity since we work in reduced units here. Note that this doesn't shift
# the potential such that it goes to zero at the cutoff. That would require
# pair_modify('shift', 'yes').
pair_style lj/cut  3.5      # non-GPU version
pair_modify tail  yes
pair_coeff 1  1  1.0  1.0   # Intearaction between 1 and 1 set with epsilon = 1 and sigma = 1

write_data data.*
System init for write_data ...
Neighbor list info ...
  update every 1 steps, delay 10 steps, check yes
  max neighbors/atom: 2000, page size: 100000
  master list distance cutoff = 3.8
  ghost atom cutoff = 3.8
  binsize = 1.9, bins = 9 9 9
  1 neighbor lists, perpetual/occasional/extra = 1 0 0
  (1) pair lj/cut, perpetual
      attributes: half, newton on
      pair build: half/bin/atomonly/newton
      stencil: half/bin/3d
      bin: standard

#############################
#   M E L T   S Y S T E M   #
#############################

velocity all create 2.4 3143649 mom yes dist gaussian # Assign velocities
                                                    # Temperature 2.4, random number seed, zero linear momentum
						                                                        # Gaussian distribution

timestep 0.002   # simulation timestep
thermo 100       # output thermodynamic data every 100 steps

# Define a fix  in this case with index 1 applied to all
# particles in the simulation. This fix is for simulations
# in the anisotropic NPT ensemble. Note that we use the MTK
# correction.
fix 1 all npt temp 2.4 2.4 0.1 iso 5.68 5.68 0.5 mtk yes tchain 5 pchain 5 # Use NPT ensemble
                                                                         # Set temperature and pressure and damping
                                                                         # Numbers of thermostats in chain and in barostat
run 1000         # run for 10000 steps
Per MPI rank memory allocation (min/avg/max) = 3.630 | 3.630 | 3.630 Mbytes
Step Temp E_pair E_mol TotEng Press Volume 
       0          2.4   -8.3859253            0   -4.7868253   -2.2405722         4000 
     100    1.2648744   -6.5290671            0   -4.6322298    5.3798688    4090.0656 
     200    1.4689665   -6.3033458            0   -4.1004469    5.9766879    4141.9478 
     300    1.5757287   -6.0115718            0   -3.6485695    5.8461614    4272.4316 
     400    1.6979232   -5.7228765            0   -3.1766284    5.8923806    4398.0373 
     500    1.7905817    -5.427445            0   -2.7422439      5.78902    4550.9794 
     600    1.8981736   -5.1583052            0   -2.3117566    5.7628382       4700.9 
     700    2.0060053   -4.8956622            0   -1.8874064    5.8620002    4837.8597 
     800     2.161964   -4.7200774            0   -1.4779421    5.9239068    4947.9616 
     900    2.2454811   -4.5521004            0   -1.1847209    5.7904219    5078.3833 
    1000    2.3595505   -4.4432956            0   -0.9048547    5.8626198    5147.5374 
Loop time of 0.265026 on 64 procs for 1000 steps with 4000 atoms

Performance: 652011.989 tau/day, 3773.218 timesteps/s
98.8% CPU use with 64 MPI tasks x no OpenMP threads

MPI task timing breakdown:
Section |  min time  |  avg time  |  max time  |%varavg| %total
---------------------------------------------------------------
Pair    | 0.059276   | 0.062839   | 0.0679     |   0.7 | 23.71
Neigh   | 0.014015   | 0.014703   | 0.01555    |   0.3 |  5.55
Comm    | 0.13836    | 0.14975    | 0.16143    |   2.0 | 56.50
Output  | 0.00027273 | 0.00028069 | 0.000369   |   0.0 |  0.11
Modify  | 0.025402   | 0.035322   | 0.046304   |   4.0 | 13.33
Other   |            | 0.002134   |            |       |  0.81

Nlocal:        62.5000 ave          69 max          52 min
Histogram: 1 1 2 2 11 13 10 14 5 5
Nghost:        1247.56 ave        1267 max        1229 min
Histogram: 3 8 10 4 3 9 13 6 5 3
Neighs:        5551.38 ave        6501 max        4539 min
Histogram: 2 2 2 11 13 13 12 4 3 2

Total # of neighbors = 355288
Ave neighs/atom = 88.822000
Neighbor list builds = 87
Dangerous builds = 20

# Equilibrate just above the melting temperature to avoid step fn in T

fix 1 all npt temp 1.25 1.25 0.1 iso 5.68 5.68 0.5 mtk yes tchain 5 pchain 5
run 1000
Per MPI rank memory allocation (min/avg/max) = 3.631 | 3.631 | 3.631 Mbytes
Step Temp E_pair E_mol TotEng Press Volume 
    1000    2.3595505   -4.4432956            0   -0.9048547    5.8626198    5147.5374 
    1100    1.9293476   -4.6486671            0   -1.7553692    5.7282766    4999.4388 
    1200    1.7345312   -4.9601095            0   -2.3589631    5.7791767    4797.9679 
    1300    1.5644489   -5.2082186            0   -2.8621319    5.5594876    4679.9578 
    1400     1.466305   -5.4051147            0   -3.2062071    5.7438096    4550.8751 
    1500    1.3912389   -5.5752414            0   -3.4889048    5.6991581    4468.1976 
    1600    1.3078898   -5.6911598            0   -3.7298155    5.4640743    4431.8167 
    1700    1.2563777   -5.7616223            0   -3.8775269    5.4245998    4398.8172 
    1800    1.2347894   -5.7874194            0   -3.9356984    5.5426245    4376.1587 
    1900     1.276485   -5.8164585            0   -3.9022097    5.4174286    4378.1985 
    2000    1.2569289   -5.8154156            0   -3.9304936    5.6265703     4360.924 
Loop time of 0.254718 on 64 procs for 1000 steps with 4000 atoms

Performance: 678398.346 tau/day, 3925.916 timesteps/s
99.7% CPU use with 64 MPI tasks x no OpenMP threads

MPI task timing breakdown:
Section |  min time  |  avg time  |  max time  |%varavg| %total
---------------------------------------------------------------
Pair    | 0.057405   | 0.061976   | 0.067736   |   0.8 | 24.33
Neigh   | 0.012303   | 0.01297    | 0.013808   |   0.3 |  5.09
Comm    | 0.13204    | 0.14359    | 0.15586    |   2.2 | 56.37
Output  | 0.00027567 | 0.0002858  | 0.00037484 |   0.0 |  0.11
Modify  | 0.022274   | 0.03329    | 0.044451   |   4.5 | 13.07
Other   |            | 0.002606   |            |       |  1.02

Nlocal:        62.5000 ave          69 max          56 min
Histogram: 2 4 6 10 11 5 14 8 3 1
Nghost:        1404.88 ave        1424 max        1383 min
Histogram: 2 2 8 5 15 6 7 13 2 4
Neighs:        6547.39 ave        7241 max        5694 min
Histogram: 2 2 6 5 13 12 3 12 6 3

Total # of neighbors = 419033
Ave neighs/atom = 104.75825
Neighbor list builds = 75
Dangerous builds = 6


# Small amount of linear quench

fix 1 all npt temp 1.25 ${temp} 0.1 iso 5.68 5.68 0.5 mtk yes tchain 5 pchain 5
fix 1 all npt temp 1.25 2.17 0.1 iso 5.68 5.68 0.5 mtk yes tchain 5 pchain 5
run 2000
Per MPI rank memory allocation (min/avg/max) = 3.631 | 3.631 | 3.631 Mbytes
Step Temp E_pair E_mol TotEng Press Volume 
    2000    1.2569289   -5.8154156            0   -3.9304936    5.6265703     4360.924 
    2100    1.2875174   -5.8038386            0   -3.8730453    5.7023734    4360.3535 
    2200    1.3139899     -5.76704            0   -3.7965479    5.6074189    4385.5206 
    2300    1.3266125   -5.6909706            0   -3.7015493    5.7861316    4403.3832 
    2400    1.4160472   -5.6817992            0   -3.5582594     5.958905    4399.0504 
    2500    1.4236165   -5.6015312            0   -3.4666403    5.8919954    4441.4442 
    2600    1.4516038   -5.5347281            0   -3.3578668    5.7156154    4486.6321 
    2700    1.4899951   -5.4824882            0   -3.2480542    5.4687589    4541.6621 
    2800    1.5561041   -5.4315806            0   -3.0980081    5.4576292    4571.0215 
    2900     1.606363   -5.3604926            0   -2.9515504    5.4744048    4607.6268 
    3000    1.6698114   -5.3026199            0   -2.7985289    5.6218856    4631.9178 
    3100    1.7329413   -5.2429177            0   -2.6441556    5.8182843    4645.6232 
    3200    1.7531461   -5.1660692            0   -2.5370074    5.6212073    4707.3112 
    3300    1.7841631   -5.0970509            0   -2.4214753    5.3774892    4769.3016 
    3400    1.8481767    -5.022827            0   -2.2512551    5.6867417    4787.9089 
    3500    1.9215303   -4.9561625            0   -2.0745876    5.8175968    4805.2115 
    3600     1.932881   -4.8685846            0   -1.9699878    5.8525295    4850.9505 
    3700    1.9665952   -4.8205786            0   -1.8714232    5.7249471    4897.5829 
    3800    2.0513076   -4.7977544            0   -1.7215622     5.661181    4926.6617 
    3900    2.0647277   -4.7425135            0   -1.6461962    5.2986778    5010.0204 
    4000    2.1256106   -4.6468506            0   -1.4592318    5.7531497    5005.8966 
Loop time of 0.511268 on 64 procs for 2000 steps with 4000 atoms

Performance: 675966.423 tau/day, 3911.843 timesteps/s
99.9% CPU use with 64 MPI tasks x no OpenMP threads

MPI task timing breakdown:
Section |  min time  |  avg time  |  max time  |%varavg| %total
---------------------------------------------------------------
Pair    | 0.11579    | 0.12224    | 0.12894    |   0.7 | 23.91
Neigh   | 0.02525    | 0.026383   | 0.02747    |   0.3 |  5.16
Comm    | 0.26429    | 0.28876    | 0.31105    |   3.1 | 56.48
Output  | 0.00053401 | 0.00054707 | 0.0007073  |   0.0 |  0.11
Modify  | 0.047697   | 0.068469   | 0.088701   |   6.3 | 13.39
Other   |            | 0.004865   |            |       |  0.95

Nlocal:        62.5000 ave          69 max          56 min
Histogram: 2 4 4 16 7 7 14 5 2 3
Nghost:        1279.30 ave        1305 max        1254 min
Histogram: 1 3 3 12 17 11 7 5 3 2
Neighs:        5704.48 ave        6560 max        4950 min
Histogram: 1 6 7 10 12 9 12 4 1 2

Total # of neighbors = 365087
Ave neighs/atom = 91.271750
Neighbor list builds = 153
Dangerous builds = 1

#############################
# F R E E Z E  S Y S T E M  #
#############################

# Define solid atoms. This closely follows ten Wolde  Ruiz-Montero and Frenkel  Faraday Discuss  1996  104  93-110
# Compute components of the per-atom q6 vector
compute q6 all orientorder/atom degrees 1 6 components 6 nnn NULL cutoff 1.3 # compute the Q6 parameter.
                                                                             # Use all neighbours within 1.3 unit cell.

# get number of connections
compute coord_number all coord/atom orientorder q6 0.5

# An atom is solid if it has 8 or more connections (of a possible 14)
variable is_solid atom c_coord_number>=8
group solid dynamic all var is_solid    # Must be dynamic to update
dynamic group solid defined

# do clustering
compute cluster solid cluster/atom 1.3 # Create a cluster where all atoms within are solid and max 1.3 units from another member

# define chunks one chunk per cluster
compute clus_chunks solid chunk/atom c_cluster nchunk every compress yes  # Says which atoms are in which chunk

# count the size of each chunk
compute size_chunks solid property/chunk clus_chunks count


# Find the maximum entry in the vector of chunk sizes
variable max_n equal max(c_size_chunks)


# Thermo style which includes this variable
thermo_style custom step temp pe vol v_max_n

thermo ${N}  # Print the thermo information every 100 steps
thermo 100  

# Reset the npt fix at a lower temperature (below freezing)
fix 1  all npt temp  ${temp} ${temp}  0.1  iso  5.68  5.68  0.5  mtk yes tchain  5  pchain  5
fix 1  all npt temp  2.17 ${temp}  0.1  iso  5.68  5.68  0.5  mtk yes tchain  5  pchain  5
fix 1  all npt temp  2.17 2.17  0.1  iso  5.68  5.68  0.5  mtk yes tchain  5  pchain  5

dump dmp2 all dcd ${N} traj_${rand}.dcd
dump dmp2 all dcd 100 traj_${rand}.dcd
dump dmp2 all dcd 100 traj_462431.dcd


# fix rnuntil all halt ${N} v_max_n >= 3980 error soft message no   # Stop when solidified


run 100000 # 5000000  # Run for this many steps
Neighbor list info ...
  update every 1 steps, delay 10 steps, check yes
  max neighbors/atom: 2000, page size: 100000
  master list distance cutoff = 3.8
  ghost atom cutoff = 3.8
  binsize = 1.9, bins = 10 10 10
  4 neighbor lists, perpetual/occasional/extra = 1 3 0
  (1) pair lj/cut, perpetual
      attributes: half, newton on
      pair build: half/bin/atomonly/newton
      stencil: half/bin/3d
      bin: standard
  (2) compute orientorder/atom, occasional
      attributes: full, newton on
      pair build: full/bin/atomonly
      stencil: full/bin/3d
      bin: standard
  (3) compute coord/atom, occasional
      attributes: full, newton on
      pair build: full/bin/atomonly
      stencil: full/bin/3d
      bin: standard
  (4) compute cluster/atom, occasional
      attributes: full, newton on
      pair build: full/bin/atomonly
      stencil: full/bin/3d
      bin: standard
Per MPI rank memory allocation (min/avg/max) = 9.286 | 9.291 | 9.296 Mbytes
Step Temp PotEng Volume v_max_n 
    4000    2.1256106   -4.6468506    5005.8966       -1e+20 
    4100    2.2060684   -4.6617087    5025.6297            1 
    4200    2.1473878    -4.567956    5074.8104       -1e+20 
    4300    2.1969053   -4.5890981    5075.7781            1 
    4400    2.1695061   -4.6111748    5059.1756       -1e+20 
    4500    2.1881511   -4.6038064    5071.9984            2 
    4600    2.1542848   -4.6363387    5026.2872            1 
    4700    2.1695261    -4.621536    5045.9348       -1e+20 
    4800     2.169238   -4.5775085    5074.2808            1 
    4900    2.1774754   -4.5929261    5047.7445            1 
    5000    2.1571542   -4.6172277    5040.6127       -1e+20 
    5100    2.2321879   -4.6422313    5036.3556            1 
    5200    2.1150683   -4.6465574    5079.2969            1 
    5300    2.1991733    -4.619341    5025.0275            1 
    5400    2.1596334   -4.5679253    5059.1227            1 
    5500    2.1750888   -4.5859965     5087.012            1 
    5600    2.2142202   -4.5377002    5071.3571       -1e+20 
    5700    2.1848449   -4.6314487    5089.8963            1 
    5800    2.1780638    -4.624715    5043.9621            3 
    5900    2.1282497   -4.6318027    5033.9548            1 
    6000    2.1810692    -4.613983    5020.8436            1 
    6100    2.2057343   -4.6133312    5062.9432       -1e+20 
    6200    2.1730479   -4.6506914    5058.6695            1 
    6300    2.1765406    -4.602273    5035.8176            1 
    6400    2.1822667   -4.6146019    5071.6427       -1e+20 
    6500    2.1662143   -4.6501617    5041.9344       -1e+20 
    6600    2.1471305   -4.5952673    5017.3377            1 
    6700    2.2079753   -4.6074763    5048.1127            1 
    6800    2.1254416   -4.6227944    5086.2684            1 
    6900    2.2208141    -4.592165    5011.0105            1 
    7000    2.1575195   -4.6235862    5069.1944            1 
    7100    2.1466903   -4.5947029    5060.7367            1 
    7200     2.176968   -4.5933849    5051.8796       -1e+20 
    7300    2.1625972   -4.5715662    5069.5323            1 
    7400    2.2344612   -4.5568284    5087.3229       -1e+20 
    7500    2.1921189    -4.604647    5063.5988            1 
    7600    2.1223017   -4.6009394    5057.6439            1 
    7700    2.2060765   -4.6155438    5017.5388            1 
    7800    2.1354185   -4.6025189    5056.7116            1 
    7900    2.1472452   -4.5938521    5025.2507            1 
    8000    2.1593482    -4.589576     5033.893            2 
    8100    2.1872097   -4.6395447    5087.9264            1 
    8200    2.1476545   -4.6182717    5041.4375            1 
    8300    2.1680011   -4.6050157    5056.3415            1 
    8400     2.155333   -4.6085442     5057.629            1 
    8500    2.2075899   -4.5792334    5072.2507       -1e+20 
    8600    2.1579745   -4.6048219    5058.9969            1 
    8700    2.1726425   -4.5678452    5042.9955            1 
    8800    2.1843622   -4.5889129    5062.7544            1 
    8900    2.1778082   -4.6484596    5029.4019            1 
    9000    2.1809393   -4.6160872    5048.0016            2 
    9100    2.1669594   -4.5955818    5093.8063            1 
    9200    2.2116206   -4.5571435    5035.4025            1 
    9300    2.1289832   -4.6257292    5094.3697       -1e+20 
    9400    2.2042461   -4.6108042    5047.2633            1 
    9500    2.1497628   -4.5618832     5083.043            1 
    9600    2.1616998   -4.5912886    5045.6791       -1e+20 
    9700    2.1878355   -4.6083127    5038.1181       -1e+20 
    9800     2.129741    -4.632812    5066.3442            1 
    9900    2.2028485   -4.6193582    5031.0912            1 
   10000    2.1514702   -4.5823436    5063.9695            1 
   10100    2.1845664   -4.5778234    5062.1118            1 
   10200    2.1626207   -4.5670226    5034.4612       -1e+20 
   10300    2.1077312   -4.6559485    5035.0747       -1e+20 
   10400    2.1660055   -4.6289728    5020.2121       -1e+20 
   10500    2.1869779   -4.6064276    5053.5648       -1e+20 
   10600    2.1860506   -4.6063828    5077.0528       -1e+20 
   10700     2.183191   -4.6183709    5046.6194       -1e+20 
   10800     2.161117   -4.6391131    5029.1656            1 
   10900    2.1635799   -4.6171827    5070.5515            2 
   11000     2.174827   -4.5575537    5057.0251            1 
   11100    2.1444247   -4.5951688    5037.7835       -1e+20 
   11200    2.1485461   -4.6224146    5051.7682       -1e+20 
   11300    2.1948306   -4.5851756    5080.6427            1 
   11400    2.1709932   -4.5892216    5071.0372            1 
   11500    2.1615074   -4.6434297    5022.4655            1 
   11600    2.1776407   -4.6514837    5060.7399            1 
   11700    2.1596445   -4.5953368    5038.8525            1 
   11800    2.2054533   -4.6182716    5049.0312            1 
   11900    2.1173522   -4.5328921    5098.3002            1 
   12000    2.2041434   -4.5610589    5077.4694       -1e+20 
   12100    2.1777492   -4.5718049     5078.917            1 
   12200     2.142138   -4.5758929    5060.8727            1 
   12300    2.1968863   -4.5991488    5042.8911            1 
   12400    2.1548265   -4.5496952    5079.7825       -1e+20 
   12500    2.1847496    -4.574602    5021.6672            1 
   12600    2.1251699   -4.5803662    5042.4405            1 
   12700    2.1550227    -4.583329    5041.8539       -1e+20 
   12800    2.2010539   -4.5708743    5061.0341       -1e+20 
   12900    2.1481482   -4.6230045    5059.0281       -1e+20 
   13000    2.1759729    -4.576171    5036.4788            1 
   13100    2.1403974   -4.5900688    5044.0061            1 
   13200    2.1088483   -4.6485959    5027.1945            1 
   13300    2.1670369   -4.6209481    5025.0218            1 
   13400    2.1849338   -4.6111331    5074.8664            1 
   13500    2.1725961   -4.6042795    5046.1108            1 
   13600    2.1783271   -4.6150885    5083.7519       -1e+20 
   13700    2.1782709   -4.5880825    5081.9099            1 
   13800    2.1561052   -4.5909366    5021.8937            1 
   13900    2.1345259   -4.6535755    5032.8302            1 
   14000    2.1268124   -4.5793314    5036.6908       -1e+20 
   14100     2.204651   -4.6041546    5011.4546            1 
   14200    2.0898284   -4.5769355    5078.2897            1 
   14300    2.1872819   -4.5770192    5041.3569            1 
   14400    2.1556582   -4.5862025    5057.6347       -1e+20 
   14500    2.1565677   -4.5672899    5060.9161            1 
   14600     2.186713    -4.641907    5044.4969            1 
   14700    2.1397209   -4.6026093    5061.4159       -1e+20 
   14800    2.1978224   -4.6381103    5000.5732            1 
   14900     2.150847   -4.6246494     5085.445       -1e+20 
   15000    2.2068074   -4.5958486    5055.5256       -1e+20 
   15100    2.1661154   -4.6106187    5051.5442            1 
   15200    2.1646997   -4.5860287    5059.5714            1 
   15300    2.1834735   -4.6457753    5039.9666            3 
   15400    2.1778208   -4.6030562    5059.7786            1 
   15500    2.1564155   -4.6191389    5077.9999            1 
   15600     2.222862   -4.5716727    5034.3164            1 
   15700    2.1364207   -4.5905468    5055.0618            1 
   15800    2.1717344   -4.5688608    5068.5269            2 
   15900    2.1844801   -4.6069461    5060.5472            1 
   16000    2.1562931   -4.5880338    5060.2727            1 
   16100    2.1752873   -4.5430814    5086.1392       -1e+20 
   16200    2.2182627   -4.5522503    5082.2784       -1e+20 
   16300    2.1635006    -4.598182    5061.2105            1 
   16400    2.1813076   -4.6217429    5049.5106       -1e+20 
   16500    2.1175176   -4.6241934     5023.865            1 
   16600    2.1482839   -4.5947415    5066.5401       -1e+20 
   16700    2.2020186   -4.5959167    5056.9989            1 
   16800    2.1239126   -4.5875922    5060.4714       -1e+20 
   16900    2.1555206   -4.6661082    5018.8591            1 
   17000    2.1715908   -4.6058757    5048.1394            1 
   17100    2.1723342   -4.6180301    5037.7815            1 
   17200    2.1151052   -4.6336807    5025.3871            1 
   17300    2.2088228   -4.6506257    5019.7703            1 
   17400    2.1767708   -4.5912808    5075.5074       -1e+20 
   17500    2.1749823   -4.5929619    5056.1746            1 
   17600     2.211448   -4.6582858    5015.9389       -1e+20 
   17700    2.0977478   -4.6100331    5036.0953            2 
   17800    2.1741043   -4.6136261    5032.6493            1 
   17900    2.1629043   -4.6423202    5042.1133       -1e+20 
   18000    2.1745776   -4.6330649    5061.8441            4 
   18100    2.1810068   -4.5479891    5067.8389            1 
   18200    2.1654854   -4.5874414    5034.1664            1 
   18300    2.1436972   -4.6329859    5030.4457            2 
   18400    2.1831134   -4.5859548    5040.3961            1 
   18500    2.1561394   -4.5929529    5075.3201       -1e+20 
   18600    2.1572607   -4.6330195    5029.4229            1 
   18700    2.1720794   -4.6183728    5037.7726            1 
   18800    2.1716934    -4.606592    5093.0423            1 
   18900    2.1955813   -4.6148776    5044.9042            1 
   19000    2.1860618   -4.6072484    5061.1896       -1e+20 
   19100    2.1342406   -4.5752509    5080.1593            2 
   19200     2.250472    -4.554064    5042.5734            1 
   19300      2.15084   -4.5795269    5099.7158            1 
   19400    2.1419905   -4.5889367    5061.2699            1 
   19500     2.220557   -4.6051273    5047.8114            1 
   19600    2.1867967   -4.6455641    5069.7962            1 
   19700    2.1438394   -4.6125499    5048.0662            1 
   19800    2.1476605    -4.580389    5020.7578       -1e+20 
   19900    2.1500908    -4.537062    5073.8543       -1e+20 
   20000    2.2117222   -4.5294267    5078.3331            1 
   20100    2.1879741   -4.5881889    5071.6889       -1e+20 
   20200     2.134815   -4.5967661    5057.4387            1 
   20300    2.1828827    -4.586644    5030.4295            2 
   20400    2.1176735   -4.6217942    5043.1122            1 
   20500    2.1310883   -4.5984437    4983.5853            1 
   20600    2.2017161   -4.6471428    5035.8674            1 
   20700    2.1247032   -4.6508549    5052.5744            1 
   20800     2.186732   -4.6099768    5016.3109            2 
   20900    2.1478946   -4.6052568    5063.4799            1 
   21000    2.1794942   -4.6073655    5044.9081            3 
   21100    2.1306599   -4.6420917    5028.1811       -1e+20 
   21200    2.1801043   -4.6296968     5053.645            1 
   21300    2.1661717   -4.5670234     5047.689            2 
   21400    2.1329136   -4.6147216     5054.187            1 
   21500    2.1800101   -4.5911027    5053.9816       -1e+20 
   21600    2.1733271   -4.5825683    5052.9145       -1e+20 
   21700     2.147795   -4.6434362    5054.4787       -1e+20 
   21800    2.1932475   -4.6208109    5013.5269            1 
   21900    2.1307698   -4.6373763    5038.9477            1 
   22000    2.2004344   -4.6254677    5056.2373            1 
   22100    2.1724118   -4.6102042    5040.2093            1 
   22200     2.119891   -4.6365188    5031.0381            1 
   22300    2.2077595   -4.6498492    5014.6991            2 
   22400    2.2068516   -4.6270449    5060.3017            1 
   22500    2.1573396   -4.6076657    5077.8486            1 
   22600    2.1839043   -4.6028469    5029.3064            1 
   22700    2.1683894   -4.5843078    5061.6262            1 
   22800    2.1768919   -4.5732476    5094.6868            1 
   22900    2.1252903   -4.5697041    5023.9842            1 
   23000     2.164573    -4.607193    5082.8246       -1e+20 
   23100    2.2054769   -4.5852582     5052.603       -1e+20 
   23200     2.151817    -4.609165     5050.348            1 
   23300    2.1957009   -4.5991176    5064.5376            1 
   23400     2.189863   -4.5879316    5082.6125            1 
   23500    2.1758067   -4.6076795    5054.9158       -1e+20 
   23600    2.1686391   -4.6236387    5047.0846            1 
   23700    2.1767454   -4.5914837    5054.9266            1 
   23800    2.1660309   -4.6001855    5086.4533            1 
   23900    2.2320166   -4.5708188    5054.0849       -1e+20 
   24000    2.1604635   -4.6214202    5076.4614            1 
   24100    2.1576094   -4.6185182    5054.5383            1 
   24200     2.165346   -4.5589701    5031.7251            1 
   24300    2.1552593   -4.6027756    5079.4095            1 
   24400    2.1962162   -4.6361796    5036.8242            1 
   24500    2.1381217   -4.6470239    5026.6103       -1e+20 
   24600    2.1691602   -4.6294168    5064.3142            1 
   24700    2.1693681   -4.5746691    5035.6559            1 
   24800     2.142352   -4.6223308    4997.1488            1 
   24900    2.1396655    -4.620916    5080.3919            1 
   25000    2.2136554   -4.6060861    5049.8681            1 
   25100    2.1421823   -4.5819478     5062.483            1 
   25200    2.2412635   -4.5988796    5089.9086            1 
   25300    2.1980865   -4.5627635    5044.2855            2 
   25400    2.1572055   -4.6185404    5098.8221            1 
   25500    2.1890666   -4.5685314    5057.6017            2 
   25600    2.1982114   -4.6177729    5067.2135            1 
   25700    2.1659576   -4.6487177    5051.2717       -1e+20 
   25800    2.1910176   -4.6006557    5040.7918       -1e+20 
   25900    2.1204905   -4.6050021    5071.9686            1 
   26000     2.208882   -4.6204222    5026.6602            1 
   26100    2.1119129   -4.5661602    5061.4873            1 
   26200    2.2186583   -4.6099899     5045.734       -1e+20 
   26300    2.1385478   -4.5808182    5060.7314            1 
   26400    2.1447318   -4.6456138    5019.8119            1 
   26500    2.1505526   -4.6418674    5013.9002            2 
   26600    2.1651046   -4.6329465    5058.3466            1 
   26700    2.1825119   -4.5839195    5058.0762       -1e+20 
   26800    2.1824798   -4.6064029    5081.6828       -1e+20 
   26900    2.2021057   -4.5988651    5077.3526       -1e+20 
   27000    2.1554447   -4.5946574    5071.8781       -1e+20 
   27100    2.1817158   -4.5723981    5072.7304       -1e+20 
   27200    2.1846637   -4.5679214    5048.8511            3 
   27300    2.1254807   -4.6283562    5075.5745            1 
   27400    2.2035469   -4.6257939    5009.3105            1 
   27500    2.1737956   -4.6116191    5072.1998            1 
   27600    2.1787664   -4.6281478    5069.8868       -1e+20 
   27700    2.1699948   -4.6161555    5028.5528            1 
   27800    2.1918808   -4.5878075    5064.8314            1 
   27900    2.1913923   -4.5628502    5084.9766       -1e+20 
   28000    2.1647308    -4.603463    5021.5121            2 
   28100    2.1645542   -4.5983919    5055.0411            1 
   28200    2.1828921   -4.5981084    5066.2634            1 
   28300    2.2034416   -4.6462526    4995.4663       -1e+20 
   28400    2.1252374   -4.6686231    5042.6498            1 
   28500    2.1892266   -4.6424254     5043.052       -1e+20 
   28600    2.2058627   -4.6440081    5038.6085       -1e+20 
   28700    2.1772057   -4.6053369    5077.3419            1 
   28800    2.1614887   -4.6250663     5034.614            1 
   28900    2.1586624   -4.6181581    5037.2933       -1e+20 
   29000    2.1918793   -4.6270361    5070.8241            1 
   29100    2.1490668   -4.6196723    5039.8235            1 
   29200    2.1360356   -4.6535249    4990.8431            1 
   29300    2.1334557   -4.6345589     5054.999            2 
   29400    2.1695695   -4.5679439    5022.5672       -1e+20 
   29500    2.1762081   -4.6645403    5069.6896            1 
   29600     2.170963   -4.5456077    5066.7317            3 
   29700    2.1956888   -4.5902109     5060.457       -1e+20 
   29800    2.1384897   -4.5919564    5068.6747            1 
   29900    2.2011954   -4.5874309    5064.2687            2 
   30000    2.1626891    -4.620349    5067.2554            1 
   30100    2.1823212   -4.5991859    5044.5702            1 
   30200    2.1358188   -4.6387429    5042.6813            1 
   30300     2.210888   -4.6106242     5048.764            1 
   30400    2.1915525   -4.6460782     5043.895            3 
   30500    2.1344154   -4.6656749    5036.8413       -1e+20 
   30600     2.201623    -4.617527    4996.8008            1 
   30700    2.1144251   -4.6375154    5075.2814       -1e+20 
   30800    2.1654794   -4.5866008    5068.0181       -1e+20 
   30900    2.2526551   -4.5916516     5060.225       -1e+20 
   31000    2.1322362    -4.548125    5105.8006            2 
   31100    2.2129643   -4.5525859    5061.3676            1 
   31200    2.1772448   -4.6149766    5046.8323       -1e+20 
   31300    2.1193032   -4.5919154    5056.8187       -1e+20 
   31400    2.2396846   -4.6273673    5048.2113       -1e+20 
   31500    2.1505753   -4.6059464    5053.2326       -1e+20 
   31600    2.1842659   -4.5945133    5065.2194       -1e+20 
   31700    2.2066114   -4.5773689    5069.6234            1 
   31800    2.1400048   -4.5986162    5034.2568            1 
   31900    2.2183451   -4.6377337     5053.379       -1e+20 
   32000    2.1368415   -4.5952902    5056.8835       -1e+20 
   32100    2.1841222   -4.6240895     5031.554            1 
   32200    2.0885681   -4.6366945    5048.2377            1 
   32300    2.2071687   -4.6478572    5020.5508            1 
   32400    2.1880208   -4.6283374    5057.9058       -1e+20 
   32500    2.1549688   -4.6598505    5080.0932       -1e+20 
   32600    2.1725281    -4.574766    5021.6649            1 
   32700    2.1657634   -4.5805514    5079.2673            1 
   32800    2.1602836   -4.5827611     5083.074            1 
   32900     2.143661   -4.5616399    5030.9014            1 
   33000    2.1672935   -4.5429994    5101.7701       -1e+20 
   33100    2.2086896   -4.5921179    5058.7552            1 
   33200    2.1555679   -4.6143474    5034.9707            1 
   33300    2.2126469   -4.6345727    5050.7393            1 
   33400     2.159719   -4.6027919    5057.7822            1 
   33500    2.1736181   -4.6140839    5026.7666       -1e+20 
   33600    2.1199579   -4.6193467    5034.7225            1 
   33700    2.1796094   -4.6175936    5048.7072            1 
   33800    2.1492164    -4.621666    5036.9927            1 
   33900    2.1515295   -4.6041601     5042.693            1 
   34000    2.1776328   -4.5773128     5056.149            1 
   34100    2.1621308   -4.6522498    5032.9632            1 
   34200    2.1350792   -4.6902042    5043.1423       -1e+20 
   34300    2.1930649   -4.5964823    5021.2609       -1e+20 
   34400    2.1273714    -4.607854    5069.9757       -1e+20 
   34500    2.1869981   -4.5847018    5056.3476       -1e+20 
   34600    2.1582147   -4.5515489    5067.3118       -1e+20 
   34700    2.1616808   -4.6201234    5044.3128            1 
   34800    2.1958624   -4.5733448    5053.9465            1 
   34900    2.1541751   -4.5446121    5064.6325            1 
   35000    2.1439663   -4.6037087    5036.2905            1 
   35100    2.1704135    -4.612059    5032.1567       -1e+20 
   35200    2.2048244   -4.6101344    5091.9604            1 
   35300    2.2002614   -4.6653191    5041.2555       -1e+20 
   35400    2.1387909   -4.5796738    5039.0013       -1e+20 
   35500    2.1655896    -4.563775    5047.8155            4 
   35600    2.1403711   -4.6167462    5048.7061       -1e+20 
   35700    2.1371771   -4.5581926    5044.6603            1 
   35800    2.2066031   -4.5649004    5091.5254            1 
   35900    2.1642407   -4.5815013    5057.2206       -1e+20 
   36000     2.157541   -4.6130948    5028.2555            1 
   36100    2.1857736   -4.6347007    5037.8051       -1e+20 
   36200    2.1203895   -4.5756214    5056.9395            1 
   36300     2.206761   -4.5772283    5018.7406       -1e+20 
   36400    2.1284002   -4.5845855    5077.4496            1 
   36500    2.1754498   -4.6219971    5037.9349            1 
   36600    2.1699505   -4.6129715    5032.4787            1 
   36700    2.1745746   -4.6174508      5085.61       -1e+20 
   36800    2.1977129   -4.6198157    5042.7187            1 
   36900    2.1226338   -4.5844501    5033.9638       -1e+20 
   37000    2.1746216   -4.5961326    5063.9172            3 
   37100    2.2014109   -4.6083746    5046.1873            2 
   37200    2.1550639   -4.6498704    5061.4095            1 
   37300    2.2450302   -4.6589467    5039.3541            2 
   37400    2.1120445   -4.5976117    5066.2504            1 
   37500    2.1786932   -4.5745492      5032.47            1 
   37600    2.2003541   -4.5674879    5082.3344            1 
   37700    2.1703902   -4.6009301    5087.1038       -1e+20 
   37800    2.1893349   -4.6100357    5024.5892       -1e+20 
   37900    2.1366772   -4.6044155    5045.2317            1 
   38000    2.1524785   -4.6124447    5048.7875       -1e+20 
   38100    2.1955537   -4.5612449    5042.3933            1 
   38200    2.1535212   -4.6193956    5095.2293       -1e+20 
   38300    2.2142461   -4.5908608    5063.5068            1 
   38400    2.1525969   -4.5807126    5062.4318       -1e+20 
   38500    2.1367104   -4.5632031    5041.7949            1 
   38600     2.166904    -4.566564    5066.0596       -1e+20 
   38700    2.1842493   -4.6022632    5061.4788            1 
   38800    2.1848093   -4.6353725    5049.2589       -1e+20 
   38900    2.1720102   -4.6090725    5064.8688            1 
   39000    2.1974568   -4.5607634    5085.3417            1 
   39100    2.1413135   -4.6014509    5056.6859            1 
   39200    2.1737746   -4.6148501    5052.5797            1 
   39300    2.1834591   -4.5618677    5059.8164            1 
   39400    2.1549347   -4.6003836    5066.6079       -1e+20 
   39500    2.1935377   -4.5946425    5060.6126            1 
   39600    2.1490919   -4.5723314    5068.1465            1 
   39700    2.1676761   -4.5705493    5036.7151            2 
   39800    2.1298677   -4.6020603    5046.6532            1 
   39900    2.1825968   -4.5889684    5041.4822            1 
   40000    2.2278666   -4.5742749    5100.0425            1 
   40100    2.1309026    -4.568477    5103.4381            1 
   40200    2.2027583   -4.5917518    5025.6822            1 
   40300    2.1355031   -4.5644185    5071.0461       -1e+20 
   40400     2.179411    -4.588729    5051.3327       -1e+20 
   40500    2.1693114   -4.6275568     5034.167            1 
   40600      2.15836   -4.6257553    5049.4214            1 
   40700    2.1809412   -4.5724701    5092.8081            1 
   40800    2.2243962   -4.6168288    5053.3589            1 
   40900    2.1666752   -4.6262555     5054.988            2 
   41000     2.187738   -4.6013268    5046.3318            1 
   41100    2.1560496   -4.5409305    5090.0909            1 
   41200    2.1717715   -4.5864266    5053.6969            1 
   41300    2.1373566   -4.6037267    5040.3495       -1e+20 
   41400    2.2220695   -4.6021609    5043.6563            1 
   41500    2.1413933    -4.557277    5086.9675       -1e+20 
   41600     2.175303   -4.6250191    5026.6251       -1e+20 
   41700    2.1492538   -4.6090263    5027.7902            1 
   41800    2.1496491    -4.635798    5063.7097            1 
   41900    2.2149765   -4.6396778    5026.7149            1 
   42000    2.1557202   -4.6242255    5068.4173            1 
   42100    2.2034263   -4.6025229    5077.7921            1 
   42200    2.1853543   -4.6239322    5039.5258            1 
   42300    2.1361289   -4.6447292    5029.7693            1 
   42400    2.1654745   -4.5596015    5052.1682            1 
   42500    2.1888884   -4.5812619    5066.2316            1 
   42600     2.148598   -4.6467771    5064.6302            2 
   42700    2.1585352   -4.5644298    5050.9935            1 
   42800    2.1883263   -4.5753307    5093.5188            1 
   42900    2.1934288   -4.6031296    5086.3909            1 
   43000    2.1657114   -4.5717471    5033.7137            2 
   43100    2.1549723   -4.6206016    5041.1709            1 
   43200    2.1911998   -4.6159516    5085.3546            1 
   43300    2.2180724    -4.624144    5088.4106            1 
   43400    2.1623736    -4.588679    5051.0226            1 
   43500    2.1685846   -4.6425378    5037.7606       -1e+20 
   43600    2.1719075   -4.5825123    5066.2001            1 
   43700    2.1618887   -4.5707251    5092.6731            3 
   43800    2.1890102   -4.5748423    5066.5794            1 
   43900    2.1660903   -4.5787865    5055.7467       -1e+20 
   44000    2.1408513     -4.61522    5089.4696            1 
   44100    2.2150936    -4.621899    5014.7006            1 
   44200    2.1259952   -4.6439251    5063.9055            1 
   44300    2.2114572   -4.6431064    5049.2206            1 
   44400     2.198492    -4.613762    5050.0252       -1e+20 
   44500    2.1640373   -4.5892888    5081.7922            1 
   44600    2.1921987   -4.5987925    5059.3614            1 
   44700    2.1677929   -4.5835795    5067.9489            1 
   44800    2.1671068   -4.6002609    5042.1603            1 
   44900    2.1234682   -4.6223415    5043.8873       -1e+20 
   45000    2.1643417   -4.5984392    5068.9311            2 
   45100    2.2196071   -4.5739734    5075.4842       -1e+20 
   45200    2.1701371   -4.5910725    5090.8274            1 
   45300    2.1536577   -4.5680566    5041.8343            1 
   45400    2.2016926   -4.5492897    5100.2219            1 
   45500    2.1970113   -4.6226814    5068.1002            1 
   45600    2.1964713   -4.6081128    5055.7855            1 
   45700    2.1221261   -4.5598412    5085.3255            1 
   45800    2.2224072   -4.5908702    5043.6611            1 
   45900    2.1552081   -4.6204521    5053.0184            1 
   46000    2.1666904   -4.6198231    5042.1703            1 
   46100    2.1917682   -4.5896182    5033.0739       -1e+20 
   46200     2.124219   -4.5882433    5056.8888            2 
   46300    2.1883969   -4.6007449    5049.7568            1 
   46400    2.1558952   -4.5770528    5053.2023            1 
   46500    2.1272643   -4.6281574    5034.0405            1 
   46600    2.1933734   -4.5912458    5013.0755            2 
   46700    2.1466627   -4.6218448    5083.2137            1 
   46800    2.1743663   -4.5658799    5029.6496       -1e+20 
   46900    2.1863325   -4.6226358    5025.8826            1 
   47000    2.1054134   -4.6023511    5084.0046            1 
   47100    2.2361714   -4.6097153     5057.922            1 
   47200    2.1646478   -4.6053369    5061.5834            1 
   47300    2.1895943   -4.6042076    5059.8259       -1e+20 
   47400    2.1471067   -4.6338778    5036.4212       -1e+20 
   47500    2.1448733   -4.5903059    5052.8868       -1e+20 
   47600    2.1909679   -4.5858158    5043.4536       -1e+20 
   47700    2.1751048   -4.6874624    5043.2504       -1e+20 
   47800    2.1959891   -4.6346109    5033.3913            1 
   47900    2.1464597   -4.6105355    5028.2093       -1e+20 
   48000    2.1456759   -4.6534472    5021.6884       -1e+20 
   48100    2.1617075   -4.5828985    5022.1729            1 
   48200    2.1260826   -4.6472611    5018.9771            1 
   48300    2.1583693   -4.6415558    5018.6084       -1e+20 
   48400     2.166181   -4.5857282    5079.0527            1 
   48500     2.163478   -4.5868898    5044.8953            1 
   48600    2.1764267   -4.6260642    5037.2213            1 
   48700    2.1422582   -4.5825063    5057.3032            1 
   48800     2.197825   -4.6025827    5039.0746       -1e+20 
   48900    2.1371809   -4.6340075    5072.7025            1 
   49000    2.2089113   -4.6096158    5020.5233       -1e+20 
   49100    2.1594323   -4.6409756    5038.6558            1 
   49200    2.1172911   -4.6618194    5037.9556       -1e+20 
   49300    2.1923798   -4.6029981    5018.6729       -1e+20 
   49400    2.1404021   -4.5677922    5049.5083       -1e+20 
   49500    2.2084412   -4.6037372    5075.4006       -1e+20 
   49600    2.1696228   -4.6044892    5037.6773       -1e+20 
   49700    2.1585854   -4.6224443    5046.6385            1 
   49800    2.2121624   -4.6320754    5045.9701            1 
   49900    2.1863921   -4.6662355    5042.2819       -1e+20 
   50000    2.1806097   -4.6232466    5039.8445       -1e+20 
   50100    2.1172219   -4.6196318    5030.4465       -1e+20 
   50200    2.1630751   -4.6054738    5074.5826       -1e+20 
   50300    2.2091727   -4.5521026    5066.2036            1 
   50400    2.1522586   -4.6011068    5064.6032            1 
   50500     2.163216   -4.6418546    5058.4894            2 
   50600    2.2290343    -4.588168    5046.4661            1 
   50700    2.1317016   -4.5783551      5066.58       -1e+20 
   50800    2.1579014   -4.6211524    5051.9853       -1e+20 
   50900    2.2291915    -4.629383    5032.0121            2 
   51000    2.1295985   -4.6263617    5061.8379            1 
   51100    2.1885075    -4.648169    5027.1453            1 
   51200    2.1541897   -4.6045154    5031.2379            1 
   51300    2.1844201   -4.5947907    5046.8156            1 
   51400     2.147069   -4.6159178    5060.3841            2 
   51500    2.1883586   -4.5675028    5066.6083       -1e+20 
   51600     2.139039   -4.5610039    5069.8215       -1e+20 
   51700    2.1816292   -4.6982724    5030.1609            1 
   51800    2.1798435   -4.6440968    5019.2009            1 
   51900     2.160407   -4.5829563    5081.8652            1 
   52000    2.2065568   -4.5867358    5068.7112       -1e+20 
   52100    2.1361087   -4.5654123    5081.8477       -1e+20 
   52200    2.2420405   -4.5668786     5054.591            1 
   52300    2.1656483   -4.5150282    5136.0367            1 
   52400     2.164693   -4.5619632    5087.7169       -1e+20 
   52500    2.1578018   -4.5645662    5046.7849       -1e+20 
   52600    2.1420819   -4.6087921    5062.5058            1 
   52700    2.1875684   -4.5862767    5068.4729            2 
   52800    2.1484092   -4.5719236    5044.4045            1 
   52900    2.1887629   -4.6706569    5034.0112            1 
   53000     2.183681   -4.6491925    5033.2775            1 
   53100    2.1775069   -4.6619135    5033.0588            1 
   53200    2.1503311   -4.6022638    5071.9427            1 
   53300    2.2099533   -4.5931401    5059.8613            1 
   53400    2.1231848   -4.5802476    5054.5475            3 
   53500    2.1555408     -4.60803    5036.4465            2 
   53600    2.1857769   -4.5935423    5052.2696            1 
   53700    2.2006587   -4.6095491    5067.3886            1 
   53800    2.1376563   -4.6214261    5047.3086            2 
   53900     2.173451    -4.599585    5000.4983            1 
   54000     2.165023   -4.6283937    5071.0054       -1e+20 
   54100    2.1714323    -4.613967    5075.8794            2 
   54200    2.1993868   -4.6465354    5008.9048            1 
   54300    2.1193941   -4.6191771    5057.2615       -1e+20 
   54400     2.213047   -4.6330752    5057.9271            1 
   54500    2.1511237    -4.584624    5064.0807       -1e+20 
   54600    2.1581155   -4.5827018    5046.6265       -1e+20 
   54700     2.168834    -4.540172    5063.6936       -1e+20 
   54800      2.16847   -4.5927687    5045.4772            1 
   54900    2.1520331   -4.6510668    5044.1211            1 
   55000    2.1910427   -4.5799665       5046.1       -1e+20 
   55100    2.1878617    -4.600447    5067.2548            1 
   55200    2.1601871   -4.6084573    5071.6787       -1e+20 
   55300    2.1818833   -4.6133217    5025.8383            2 
   55400    2.1060394   -4.5846606    5045.2424            1 
   55500     2.172697   -4.5846703    5031.0113            1 
   55600    2.1834028   -4.6044868    5082.9161       -1e+20 
   55700    2.1745913   -4.6016719    5056.0359            2 
   55800    2.1669849   -4.5709269      5046.69       -1e+20 
   55900    2.1886951   -4.5967951    5081.4942       -1e+20 
   56000    2.1493733   -4.6061249    5036.9853            1 
   56100    2.1612654   -4.6290377     5026.927            1 
   56200    2.1625919   -4.5509759    5099.2033       -1e+20 
   56300    2.2027497   -4.5156912    5067.0154       -1e+20 
   56400    2.1630808   -4.6029986    5047.6412            1 
   56500    2.1704197   -4.6767268    5018.3106            1 
   56600    2.1587197    -4.649864    5047.0626            1 
   56700     2.175796   -4.5529832    5071.1812            1 
   56800    2.1571759   -4.5899747    5067.5648            1 
   56900    2.1451373   -4.5676889    5019.7868            1 
   57000    2.1778637   -4.6223967    5045.8565            1 
   57100    2.1792547   -4.5911783    5086.4498            1 
   57200    2.1616856   -4.5858893    5009.1107       -1e+20 
   57300    2.1587745   -4.6875792    5035.6394            1 
   57400    2.1655356   -4.6311355    5065.4034            1 
   57500    2.1562051   -4.5335951    5085.3188            1 
   57600    2.1954276   -4.5607996    5066.7113       -1e+20 
   57700    2.1374163   -4.5885354     5054.528            1 
   57800    2.2129579   -4.6263386    5041.4716            1 
   57900    2.1572155   -4.6084951    5076.6728            1 
   58000    2.1858188    -4.581001    5051.7488            2 
   58100    2.1341084   -4.5841652    5070.6109            1 
   58200    2.2110422   -4.6687328    5019.2674            1 
   58300    2.0871704   -4.6000645    5040.3118            1 
   58400     2.175425   -4.5983415    5041.3011            1 
   58500    2.1463829   -4.5849698    5049.4949            1 
   58600    2.2157754   -4.5937669    5061.3691       -1e+20 
   58700    2.1300582   -4.6170078    5071.0954            1 
   58800    2.1772164   -4.6151112    5047.6553            1 
   58900    2.1748056   -4.6027498    5042.3793            2 
   59000     2.186006    -4.604121    5074.0108            1 
   59100    2.2005816   -4.5653617    5083.2842       -1e+20 
   59200     2.158974   -4.5750994    5035.8082       -1e+20 
   59300    2.1626644    -4.660691    5048.6389       -1e+20 
   59400    2.1722591   -4.5616579    5019.9282            1 
   59500    2.0991478   -4.5935021    5052.4731            1 
   59600    2.1923068   -4.6228837    5054.8252       -1e+20 
   59700      2.16643   -4.6323477    5053.4747       -1e+20 
   59800    2.2142953   -4.5993121    5064.8098            1 
   59900    2.1438469   -4.5625315    5086.9912       -1e+20 
   60000    2.1783874   -4.6502583    5015.5865       -1e+20 
   60100    2.1353199   -4.5893426    5037.9566            1 
   60200    2.1539902    -4.544515    5054.6452            1 
   60300    2.1526287   -4.6423224    5033.6204            1 
   60400    2.1342592   -4.6252363     5042.441            1 
   60500    2.1806841   -4.5992707    5033.7305       -1e+20 
   60600    2.1456065   -4.5740408    5051.9447            1 
   60700    2.1474285    -4.575957    5069.7941            1 
   60800    2.1822969   -4.5461251    5049.5833            1 
   60900    2.1562146   -4.6050507    5087.6553       -1e+20 
   61000    2.2097076   -4.6209576    5036.6788       -1e+20 
   61100    2.1682821   -4.6460742    5057.5868            1 
   61200    2.1450136   -4.6460328    5035.0358       -1e+20 
   61300    2.1925795   -4.6320558    5033.8704            1 
   61400    2.1319222    -4.614823    5066.3011            1 
   61500    2.2383884   -4.6163871    5044.1569            1 
   61600    2.1540785   -4.5879125    5045.4468            1 
   61700     2.149388   -4.6366507    5054.6848            1 
   61800    2.1657329    -4.586505    5032.1345            1 
   61900    2.1668615   -4.6380612    5070.2015            1 
   62000    2.1702584   -4.6071818    5001.6481            2 
   62100    2.1678164   -4.6736913    5030.1416            1 
   62200    2.1607822   -4.6391375    5058.2034            1 
   62300    2.1779884   -4.5817406    5027.7844            1 
   62400    2.1505357    -4.605073    5056.4765       -1e+20 
   62500    2.1062271   -4.6039929    5029.1499            1 
   62600    2.1619934   -4.5732695    5042.6541            1 
   62700    2.1999318    -4.645542    5050.3528            1 
   62800    2.1130408   -4.6430306    5034.7854       -1e+20 
   62900    2.1427552    -4.597891     5035.655            1 
   63000    2.1998626   -4.6145925     5032.045            1 
   63100     2.096505   -4.6351735    5057.2805            2 
   63200    2.1776237   -4.5945884     5031.532            1 
   63300    2.1768438   -4.5534876    5083.4475            1 
   63400    2.1929359   -4.5684932    5081.1067            1 
   63500    2.1510568   -4.5931686    5040.5712            2 
   63600    2.1951404   -4.6314291    5047.7115            1 
   63700    2.1645602   -4.5448499    5092.7368       -1e+20 
   63800    2.2023575   -4.5765666    5053.3929            1 
   63900     2.141433   -4.5958784    5056.8265            1 
   64000    2.1951336   -4.5883797    5045.9949       -1e+20 
   64100    2.1481212   -4.5679598    5079.8468            1 
   64200    2.1743325   -4.6076429    5045.4145            1 
   64300    2.1831289    -4.618047    5053.7453            1 
   64400    2.1945988   -4.6036483    5093.2894       -1e+20 
   64500    2.1746866   -4.5613921    5057.9356       -1e+20 
   64600    2.1628052   -4.6066942    5036.1592            1 
   64700    2.1298348   -4.5633118    5062.7959       -1e+20 
   64800    2.1920453   -4.5784886    5053.1442       -1e+20 
   64900    2.1582124   -4.6120714    5058.4397            1 
   65000    2.1645004   -4.5947982    5024.2871            1 
   65100     2.146713   -4.6353877    5041.6563            1 
   65200      2.20854   -4.6594863    5051.8227       -1e+20 
   65300    2.2097561   -4.6250907    5064.5844            1 
   65400     2.180025   -4.6117393    5072.5392       -1e+20 
   65500     2.191451   -4.6002238    5057.8603       -1e+20 
   65600    2.1516663   -4.6312961    5046.8487            1 
   65700    2.1645476   -4.6349874    5024.8126            1 
   65800    2.1981925   -4.6102957    5072.4273       -1e+20 
   65900    2.1382517   -4.5675699    5043.7214            2 
   66000    2.1913487    -4.588768    5059.7869            1 
   66100    2.1702656   -4.6448691    5045.3823            1 
   66200    2.1882376   -4.6073945    5035.9151            1 
   66300    2.1762832   -4.5750721    5070.6704            1 
   66400    2.1776102   -4.6061536    5064.0147            1 
   66500    2.1449532   -4.5687038     5017.282            1 
   66600    2.2092343   -4.5917138    5086.6135            1 
   66700    2.1781054   -4.6160309    5059.5375            1 
   66800    2.1674818   -4.5986781    5028.0963       -1e+20 
   66900    2.1510413   -4.6028462    5050.2102            1 
   67000    2.1824042   -4.6587718    5043.4949            1 
   67100     2.160801   -4.6119271    5004.3947            1 
   67200    2.1954508   -4.6566796    5066.7933       -1e+20 
   67300    2.1201028   -4.6049152    5036.0195            1 
   67400    2.1641327   -4.5807307    5035.3205            1 
   67500    2.1753742   -4.6297058    5051.6871       -1e+20 
   67600     2.136294   -4.6499173    5032.1693            1 
   67700     2.172994   -4.6108703    5053.9184            1 
   67800    2.1991812   -4.5916892     5051.094       -1e+20 
   67900     2.147447   -4.6182814    5056.5089       -1e+20 
   68000    2.2446059   -4.6297696    5043.4833       -1e+20 
   68100    2.1443796   -4.6163939    5086.8668            1 
   68200    2.1459514   -4.6231775    5033.2855            2 
   68300    2.1810927   -4.5825119    5020.7828       -1e+20 
   68400     2.118879   -4.6236613    5055.4845       -1e+20 
   68500    2.1502245   -4.5728531     5034.288            1 
   68600    2.1593196    -4.628033    5042.9318       -1e+20 
   68700    2.1987938   -4.6351815    5075.4918            2 
   68800    2.1877638   -4.6112389    5049.7423       -1e+20 
   68900    2.1674113   -4.6156625    5045.1469       -1e+20 
   69000    2.1468306   -4.6274569    5065.2779       -1e+20 
   69100    2.2124699   -4.6175273    5038.2853            1 
   69200    2.1623107   -4.6075206     5082.228            1 
   69300     2.138187   -4.6112412    5047.2988            1 
   69400     2.193943   -4.5902623    5037.1887       -1e+20 
   69500    2.1434035   -4.6259715    5058.2035            1 
   69600     2.174628   -4.6376881    5009.7239            1 
   69700    2.1649648   -4.6446565    5031.7309            1 
   69800    2.1668102   -4.5956874    5086.6451       -1e+20 
   69900    2.1772578   -4.5378049    5071.2072            1 
   70000    2.1856412   -4.5944587    5072.4426            1 
   70100    2.1542922   -4.6026697     5036.017       -1e+20 
   70200    2.1975042   -4.6382517     5046.161            1 
   70300     2.148325   -4.5834609    5057.2817            1 
   70400    2.2003542   -4.6071456    5056.6499            1 
   70500    2.1516573   -4.5988393    5052.7425       -1e+20 
   70600    2.1513582   -4.5527687    5059.9103       -1e+20 
   70700    2.1564624   -4.5680264    5071.6864            1 
   70800    2.1655626    -4.647273     5032.499       -1e+20 
   70900    2.1579744    -4.636141     5018.756       -1e+20 
   71000    2.1980498   -4.6130829     5074.581            1 
   71100    2.1631004    -4.608634    5052.9475            1 
   71200    2.1794315   -4.6383908    5015.6425            2 
   71300     2.176952   -4.5828004    5062.9583       -1e+20 
   71400     2.169788   -4.5973684    5083.3322            1 
   71500    2.2004408   -4.5817847    5088.1762            1 
   71600    2.1898584    -4.590345    5056.6953            2 
   71700    2.1939626   -4.6156091    5038.2734            1 
   71800    2.1240177   -4.6660592    5043.1395            1 
   71900    2.1995998   -4.6723433    5015.2015       -1e+20 
   72000    2.1922959   -4.6450946    5036.3695            1 
   72100    2.1425186   -4.6033105    5072.4194            1 
   72200    2.2363655   -4.6213623    5034.7412            1 
   72300     2.142282   -4.6206618    5054.0297            2 
   72400    2.1665079   -4.6020388    5035.9186            1 
   72500    2.1658535   -4.6375251    5029.9174       -1e+20 
   72600    2.1208956   -4.6270359    5032.0239            2 
   72700    2.1781299    -4.636747    5037.5035            2 
   72800    2.1865902   -4.6264041    5075.2272            1 
   72900    2.2139673   -4.6171624    5066.4599            1 
   73000    2.1791615   -4.6134078    5062.3682            1 
   73100    2.1448955   -4.5569813    5083.8584       -1e+20 
   73200    2.1946083   -4.5983439     5031.962            1 
   73300    2.1396597   -4.6056579     5043.103            1 
   73400    2.1526086   -4.5696044    5069.9648       -1e+20 
   73500    2.1689445   -4.6057444    5023.8243            2 
   73600    2.1565163   -4.6735287    5043.8421            1 
   73700    2.1798184   -4.6524022     5032.028            1 
   73800    2.2027629   -4.6317911    5033.8363            1 
   73900    2.1392269   -4.6351066    5062.4283       -1e+20 
   74000    2.1827783   -4.5799751    5038.1899            1 
   74100    2.1936834   -4.6037609    5071.1262            1 
   74200    2.1399283   -4.6064115    5025.5283            1 
   74300    2.1531311   -4.5545388    5050.7978            1 
   74400    2.1721842   -4.6009212    5087.4669       -1e+20 
   74500    2.2381807   -4.6470394    5057.8904            1 
   74600    2.1362683   -4.6123846    5022.0975            1 
   74700    2.1713793   -4.5833162    5041.1982            1 
   74800    2.1741466   -4.6076773     5085.917       -1e+20 
   74900    2.1578803   -4.5795959    5049.7152            1 
   75000    2.1552578   -4.5944837    5043.7662            1 
   75100    2.1700761   -4.6040473    5056.6856       -1e+20 
   75200    2.2300373   -4.6169421    5069.1021            1 
   75300    2.1611165   -4.5911835    5072.0424            1 
   75400    2.1327415   -4.6253429    5054.0974            1 
   75500    2.1998387   -4.6025319    5028.6606            1 
   75600     2.160705   -4.6839144     5071.034       -1e+20 
   75700    2.1910267   -4.6102877    5026.1036            1 
   75800    2.1967196   -4.5722103    5076.7472       -1e+20 
   75900    2.1633573    -4.615419    5077.3396            1 
   76000    2.2381629   -4.6710182    5041.2293       -1e+20 
   76100    2.1446627   -4.6433025    5064.9004       -1e+20 
   76200      2.20019   -4.5674552    5028.6911            1 
   76300    2.1331394   -4.6056944     5077.074            1 
   76400    2.1460894   -4.6192442      5029.52       -1e+20 
   76500    2.1771445   -4.5705427    5038.0173       -1e+20 
   76600    2.1351677   -4.5921609    5096.7506            1 
   76700    2.2368386   -4.5779412    5062.2862       -1e+20 
   76800    2.1814515   -4.6262446    5064.4285            1 
   76900    2.1553292   -4.6521862    5058.0658            1 
   77000    2.1585466   -4.6193399     5011.331       -1e+20 
   77100    2.1671431   -4.6027119    5065.0176            1 
   77200      2.18503   -4.5929921     5074.741            1 
   77300    2.1397269   -4.6143521    5042.3148       -1e+20 
   77400    2.1487125   -4.6030483    5047.8097            1 
   77500    2.1884744   -4.5913177    5062.8961            1 
   77600    2.1566041    -4.592388     5041.101            1 
   77700    2.1803574    -4.604228    5056.3753       -1e+20 
   77800    2.1809259     -4.55825    5074.4548       -1e+20 
   77900    2.1661044   -4.5811436    5059.2799       -1e+20 
   78000    2.1917981   -4.6243903    5067.7301       -1e+20 
   78100    2.1695191   -4.5400731    5070.7056            1 
   78200    2.1884609   -4.6275288    5063.0753            1 
   78300    2.1339303    -4.671192     5052.394            1 
   78400    2.1884522   -4.6037793    4997.1504       -1e+20 
   78500     2.161957   -4.6410438    5073.8375            1 
   78600    2.1476272   -4.5649444    5076.6419            1 
   78700     2.243186   -4.5639788    5049.1345            2 
   78800    2.1626848   -4.6036883    5077.8849       -1e+20 
   78900    2.1355585   -4.5893623    5040.2247            2 
   79000    2.2131747   -4.6007493    5056.5333            1 
   79100    2.1418738   -4.5975189    5053.6469       -1e+20 
   79200    2.1834896   -4.5799505    5052.3276            1 
   79300    2.1474915   -4.5560845    5082.1733            2 
   79400    2.1766612    -4.593605    5048.4377       -1e+20 
   79500    2.1524285   -4.6001155    5030.3652       -1e+20 
   79600     2.183869   -4.5900047    5103.7688            1 
   79700    2.1905304   -4.5883815    5051.6483            1 
   79800    2.1634399   -4.6241879    5040.7563            1 
   79900    2.2057129   -4.6161133    5058.9538       -1e+20 
   80000    2.1556769   -4.6024936    5050.8718            1 
   80100    2.1849828    -4.554992    5047.8236            1 
   80200    2.1693671   -4.6295768    5088.7377            1 
   80300    2.1364351   -4.5750116    5022.1491            1 
   80400    2.1839682   -4.6070919    5063.2695            1 
   80500    2.1811288   -4.6370233    5068.0297            1 
   80600    2.1659636   -4.6124231    4984.8943            1 
   80700    2.1703946   -4.6724692     5057.582            1 
   80800    2.1479006   -4.6177332    5031.5715            1 
   80900    2.1720507   -4.5812397    5036.6909            1 
   81000    2.1515776   -4.5968806    5061.1892            2 
   81100    2.1093429   -4.5974923    4999.6557            1 
   81200    2.1568907   -4.6168039    5032.2606            1 
   81300    2.1815713   -4.6140187    5066.8183            1 
   81400    2.1301854   -4.5999306    5045.0925            1 
   81500    2.1727382   -4.6188955    5017.7719            2 
   81600     2.159309   -4.5873433    5079.9065            1 
   81700    2.2067707   -4.6263819    5064.6716       -1e+20 
   81800    2.1806622    -4.642851    5018.5156            1 
   81900    2.1889881   -4.6181422    5060.7484       -1e+20 
   82000    2.1567832   -4.5228697    5101.6735            1 
   82100    2.1931417   -4.6367613    5046.7172            2 
   82200    2.1696115    -4.647825    5055.4026            1 
   82300    2.1883789   -4.5883277    5045.2683            1 
   82400    2.1513367   -4.6310018    5043.2239       -1e+20 
   82500    2.1914929    -4.632812    5061.1966       -1e+20 
   82600    2.1974521   -4.6112397    5048.9394            1 
   82700    2.1721815   -4.6596691    5036.4755            1 
   82800    2.1622968   -4.6272365    5071.7162       -1e+20 
   82900     2.176466   -4.5580767    5047.4382       -1e+20 
   83000    2.1511698   -4.6733219     5050.404       -1e+20 
   83100    2.1708208   -4.6305108    5048.0659       -1e+20 
   83200    2.1768877   -4.6020266    5045.5846            1 
   83300    2.1795065   -4.6245469    5057.3014            1 
   83400    2.1934811   -4.6499466    5031.8399            1 
   83500    2.1568298   -4.6283013    5044.1895            1 
   83600     2.186533   -4.6297573    5050.9429            1 
   83700    2.1824825   -4.5555417    5083.4814       -1e+20 
   83800    2.1335908    -4.543461    5053.7258            1 
   83900    2.1499615   -4.6523444    5030.9564            1 
   84000    2.1586678   -4.6004809    5028.1202            1 
   84100    2.1730341   -4.5872871    5078.2697            3 
   84200    2.1731927   -4.6194668    5055.2467            2 
   84300    2.1596509   -4.6115198     5019.842       -1e+20 
   84400    2.1718281   -4.5594982    5075.7517       -1e+20 
   84500    2.1705067   -4.5850446    5013.7041            1 
   84600    2.1427949   -4.6070669    5057.0605            1 
   84700    2.1694492   -4.5991494    5059.9744       -1e+20 
   84800    2.1913043   -4.5708537    5037.2153       -1e+20 
   84900    2.1002682   -4.5666533    5108.7457            1 
   85000    2.2215162   -4.5594051    5028.0049       -1e+20 
   85100    2.1733291    -4.619715    5054.2632            2 
   85200    2.1283716   -4.6407712     5036.722            2 
   85300    2.1911875   -4.6561509    5013.6346            1 
   85400     2.167255   -4.6145106    5053.4725       -1e+20 
   85500    2.1653198   -4.6319136    5047.6845       -1e+20 
   85600    2.1659272   -4.6231375    4984.0846       -1e+20 
   85700    2.1084745   -4.6819332    5024.9767            1 
   85800    2.1307284   -4.5919207    5051.0425            1 
   85900     2.194547   -4.5820344    5039.1555            1 
   86000    2.1424339   -4.6296744    5060.6827       -1e+20 
   86100    2.1993226   -4.6058519    5030.7567       -1e+20 
   86200    2.1536884   -4.6188788    5048.9577            1 
   86300    2.1779653   -4.6711697     5031.683       -1e+20 
   86400    2.1588014   -4.6080069    5004.0432            1 
   86500       2.1412   -4.5945098     5090.079            1 
   86600    2.2021039   -4.6100127    5061.2156            1 
   86700    2.1707089   -4.6120003    5041.2985            1 
   86800    2.1756399   -4.6107443    5066.7735       -1e+20 
   86900    2.1727177   -4.5173754    5094.3639            1 
   87000    2.1677885   -4.5422583    5051.9278            1 
   87100    2.1515819   -4.5870902    5061.3511            1 
   87200    2.1945843   -4.6024633    5052.2772            1 
   87300    2.1357248   -4.6318905     5034.141       -1e+20 
   87400    2.1473342   -4.5963095    5033.9521            1 
   87500    2.1734073   -4.5862719    5050.7052            1 
   87600    2.1966298   -4.6354123    5102.3854            2 
   87700    2.1434435   -4.5454224    5063.2172            1 
   87800    2.1891174   -4.6138739     5021.568            1 
   87900    2.1400555   -4.6141668    5055.4554            2 
   88000    2.1520486   -4.6070074    5019.3316       -1e+20 
   88100     2.156783   -4.6416495    5003.5776            1 
   88200    2.1177265   -4.6301122     5044.294            1 
   88300    2.2181232   -4.6238659    5030.5514            1 
   88400    2.1547364   -4.6253301    5068.3681            1 
   88500    2.2394103   -4.6037741    5062.0381            2 
   88600     2.192282    -4.604542    5065.1453            1 
   88700    2.1055162   -4.6228176    5066.3625       -1e+20 
   88800    2.2103412   -4.6487968     5023.208            1 
   88900    2.1554101   -4.6271356    5050.1553            2 
   89000    2.1719215   -4.5781718    5082.2961            1 
   89100    2.1779974   -4.6256921    5030.2378            1 
   89200    2.1882654   -4.5978753    5057.8585       -1e+20 
   89300    2.1873624   -4.6177141    5077.1812            1 
   89400    2.1515955   -4.5915595    5017.0562       -1e+20 
   89500    2.1429401   -4.6014688    5045.4605       -1e+20 
   89600    2.1919537   -4.6015477    5059.2919       -1e+20 
   89700     2.183791   -4.6346629    5064.5029            1 
   89800    2.1329373   -4.6315251    5031.2281       -1e+20 
   89900    2.1741549   -4.5978036    5039.8701            1 
   90000    2.1606656    -4.605862    5068.0791            1 
   90100    2.1797321   -4.5990693    5041.3496       -1e+20 
   90200    2.1672969    -4.632382    5059.0777            1 
   90300    2.1662402   -4.6275529     5071.282       -1e+20 
   90400    2.2100534   -4.5776754     5038.381            1 
   90500    2.1557381   -4.6266312    5080.5406            1 
   90600    2.2025694   -4.6151308    5044.0734            1 
   90700    2.1483523   -4.6150991    5055.2921            1 
   90800    2.2068407   -4.5948377    5068.0888            1 
   90900    2.1230742   -4.5628823     5043.273       -1e+20 
   91000    2.1700998   -4.6251534    5052.9197            1 
   91100    2.1796132   -4.5906735    5049.2687       -1e+20 
   91200    2.1182924   -4.6207895    5055.6126       -1e+20 
   91300    2.2059118   -4.6141983    5057.7968            1 
   91400    2.1735498   -4.5891358    5034.3071       -1e+20 
   91500    2.1229563   -4.6273004    5031.7001            1 
   91600    2.1888566    -4.621425    5022.7792            1 
   91700    2.1315492   -4.6040047    5055.1198            2 
   91800    2.1983362   -4.5973844    5063.3054            1 
   91900    2.1134604   -4.5737015    5046.1145       -1e+20 
   92000    2.1658396   -4.6168062    5016.8009            2 
   92100    2.1312141   -4.5846073    5060.2786            1 
   92200    2.2212659   -4.5985855    5080.9747            1 
   92300    2.1839122   -4.6048417    5047.1774            1 
   92400    2.1260558   -4.5923317    5036.8859            1 
   92500    2.1523799   -4.5873972    5054.0604            1 
   92600    2.1813498    -4.606313    5049.1374       -1e+20 
   92700    2.1578984   -4.6400191    4999.5471            1 
   92800    2.1593886     -4.60762    5064.3785            1 
   92900    2.1604613   -4.5476892    5088.1745       -1e+20 
   93000    2.1475518   -4.5302776    5064.1068            1 
   93100    2.1823897   -4.6292967    5031.6185       -1e+20 
   93200    2.1709924   -4.6866503    5062.0517            1 
   93300    2.2206749   -4.6332749    5043.2873            1 
   93400     2.140727   -4.5873889    5054.2339       -1e+20 
   93500    2.1826762   -4.6068771    5061.0391       -1e+20 
   93600    2.1922077   -4.6405521     5041.065            1 
   93700    2.1674258   -4.6397392    5097.8407            1 
   93800    2.1997125   -4.6057244    5025.5346            2 
   93900    2.2061649   -4.5993729    5095.3008       -1e+20 
   94000    2.1295532   -4.5811876    5051.0986            1 
   94100    2.1704681   -4.5944822    5050.7995            2 
   94200    2.2052757   -4.5794105    5063.3924            2 
   94300    2.1345871   -4.5702585    5056.8205            1 
   94400    2.1678906   -4.5934198    5045.5258            1 
   94500    2.1968497   -4.5855022      5093.57            1 
   94600    2.1849211   -4.5627673    5063.5093            1 
   94700    2.1339706   -4.6061016    5056.2607            1 
   94800    2.1920361   -4.5757675    5039.0738            1 
   94900    2.1536554   -4.6371833    5076.6184            1 
   95000    2.2030341   -4.5573479    5048.2337            1 
   95100    2.1595681   -4.5298561    5070.6453            1 
   95200    2.1616932    -4.634477    5047.7686            1 
   95300    2.1983404   -4.6296945    5046.2039            1 
   95400    2.1332529   -4.6429508    5049.2142       -1e+20 
   95500    2.2183823   -4.5889601    5028.3348            1 
   95600    2.1622958    -4.581134    5090.8078            1 
   95700    2.1905824    -4.604217    5063.7159       -1e+20 
   95800    2.1623251   -4.5645253    5057.3137       -1e+20 
   95900    2.2064182   -4.5369854    5078.0421       -1e+20 
   96000    2.1398008   -4.5412633    5065.7476       -1e+20 
   96100     2.182378   -4.6192195    5053.3027            1 
   96200     2.170712   -4.6195701     5041.315       -1e+20 
   96300    2.1770379   -4.6314873    5072.7562            1 
   96400    2.1856658   -4.5316117     5097.132            1 
   96500    2.1529969   -4.5534138    5096.9997            1 
   96600     2.184496   -4.6217217    5051.9376            1 
   96700    2.1707045   -4.6190573    5034.1727            1 
   96800    2.1429237    -4.553157    5088.9239            1 
   96900    2.2078611   -4.5638197    5054.2374            1 
   97000    2.1568161    -4.613682    5062.1209       -1e+20 
   97100    2.2097858   -4.6326061    5039.1008       -1e+20 
   97200    2.1942346   -4.6121342     5073.709            1 
   97300    2.1172871   -4.5679028    5088.5477            1 
   97400    2.2455318   -4.6026581    5013.2916            1 
   97500    2.0984906   -4.5837075    5066.2838            1 
   97600    2.1921062   -4.6294276    5031.2805       -1e+20 
   97700    2.1585372   -4.6285261    5030.8174            1 
   97800    2.1701149   -4.6212394    5046.9972            1 
   97900    2.2014301   -4.6385411    5049.6618       -1e+20 
   98000    2.1182717   -4.6002314    5015.0044            1 
   98100    2.1598084   -4.6105629    5040.8972            2 
   98200    2.2005887   -4.6293055    5070.3075            1 
   98300    2.1462684   -4.6373866    5057.5794            1 
   98400    2.2016279   -4.6108433    5035.4724            2 
   98500     2.176133   -4.6470878     5096.226            1 
   98600    2.2545789   -4.6064721    5042.3286       -1e+20 
   98700    2.1655054   -4.5839854    5075.4853            1 
   98800    2.1522278   -4.6339116     5072.799            1 
   98900    2.1917044   -4.5696409    5000.6852            1 
   99000    2.1053553   -4.6082175    5078.5558       -1e+20 
   99100    2.1793075   -4.6023251     5034.451            1 
   99200    2.1827595   -4.5836817    5073.5067       -1e+20 
   99300    2.1295928   -4.5665343    5054.6683       -1e+20 
   99400    2.1731566    -4.584347    5029.3895            1 
   99500    2.1520946    -4.613734    5054.3638            1 
   99600    2.2136639   -4.6354525    5044.9383            1 
   99700    2.1519704   -4.6004203    5069.9489            1 
   99800     2.209001   -4.6294048     5071.913            1 
   99900    2.1740065   -4.6060271    5062.2042       -1e+20 
  100000    2.1622983   -4.6178073    5028.3908            1 
  100100    2.1679604   -4.6513729    5019.1934            1 
  100200     2.163348   -4.5761009    5088.2462       -1e+20 
  100300    2.2026845   -4.5712115    5044.0362            1 
  100400    2.1368083   -4.5914975    5078.5502            1 
  100500    2.1839528    -4.607799    5052.5949       -1e+20 
  100600    2.1600069   -4.5974146    5025.1159            1 
  100700    2.1388764   -4.6028651    5033.2902            1 
  100800     2.203891   -4.6528749    5003.0792       -1e+20 
  100900    2.1496481   -4.5978186    5071.4059            1 
  101000    2.2027392   -4.5743881    5067.7243       -1e+20 
  101100    2.1554511   -4.5917034    5043.4104            1 
  101200    2.1630662   -4.6119973    5051.5161            1 
  101300    2.2034152   -4.5648573    5054.3981            1 
  101400    2.2211465   -4.5232839    5117.3739            1 
  101500    2.2199445    -4.565171    5106.9976            1 
  101600    2.1892817   -4.6027468    5075.0431       -1e+20 
  101700    2.2011368   -4.6172277    5051.0584            1 
  101800    2.1706631   -4.6920547    5026.8518            1 
  101900    2.1771321   -4.6196772    5053.3323            2 
  102000    2.1759916   -4.5773486    5039.6219       -1e+20 
  102100    2.1298521   -4.6150144    5039.2565       -1e+20 
  102200    2.1651804   -4.6049396    5040.7509            1 
  102300    2.1830836   -4.5797066    5063.5284            1 
  102400    2.1482377   -4.5808907    5068.0317            1 
  102500    2.1860919   -4.6065951    5050.8039            1 
  102600    2.1620447   -4.5487343    5101.6852            1 
  102700    2.1672157   -4.6176654    5025.3937            1 
  102800     2.167024   -4.6280979    5043.6796            1 
  102900    2.1964284   -4.6034958    5084.4479            1 
  103000    2.1356276   -4.6184165    5037.8281       -1e+20 
  103100      2.13828   -4.5909937    5029.2214            1 
  103200    2.1521832   -4.5697584    5079.1172            1 
  103300     2.179189   -4.5667106    5068.4074            1 
  103400    2.1668306   -4.6031783    5063.6753            1 
  103500    2.1252995   -4.6126143    5016.0647            1 
  103600    2.1690162   -4.6082951    5062.6754            2 
  103700      2.21049   -4.5822546     5067.661            2 
  103800    2.1239453   -4.5695414    5079.8663            1 
  103900     2.192195     -4.61054    5040.7003            1 
  104000    2.1696775   -4.6098188    5057.8779       -1e+20 
Loop time of 122.137 on 64 procs for 100000 steps with 4000 atoms

Performance: 141480.895 tau/day, 818.755 timesteps/s
99.9% CPU use with 64 MPI tasks x no OpenMP threads

MPI task timing breakdown:
Section |  min time  |  avg time  |  max time  |%varavg| %total
---------------------------------------------------------------
Pair    | 5.8342     | 6.1422     | 6.5875     |   6.5 |  5.03
Neigh   | 1.2635     | 1.2986     | 1.3421     |   1.5 |  1.06
Comm    | 12.526     | 18.975     | 26.329     |  98.8 | 15.54
Output  | 4.7072     | 4.7087     | 4.724      |   0.1 |  3.86
Modify  | 78.934     | 88.605     | 96.372     |  60.3 | 72.55
Other   |            | 2.408      |            |       |  1.97

Nlocal:        62.5000 ave          70 max          54 min
Histogram: 2 5 3 10 3 16 11 4 6 4
Nghost:        1265.03 ave        1302 max        1245 min
Histogram: 5 8 11 20 9 3 5 2 0 1
Neighs:        5638.11 ave        6574 max        4829 min
Histogram: 3 7 7 10 6 13 7 3 7 1
FullNghs:      11276.3 ave       12956 max        9627 min
Histogram: 3 4 9 3 9 17 5 6 7 1

Total # of neighbors = 721683
Ave neighs/atom = 180.42075
Neighbor list builds = 8656
Dangerous builds = 719

#clear
#
#next RN
#
#jump SELF
Total wall time: 0:02:03
