
units lj                  # Use reduced LJ style units
atom_style atomic         # Uncharged point particles
atom_modify map hash      # Needed for indexing of clusters etc
                          # Used to be able to find where atoms are in relation to each other.

# Define a lattice with which to populate the simulation cell. With units
# set to 'lj' the second argument to the lattice command is the reduced
# density rho* and the spacings are multiples of that required to acheive
# that density. Also define a simulation cell called 'box' in lattice units
# and fill it with atoms. Here we're creating a box which is ten lattice
# constants in each direction.
lattice fcc 1.0 spacing 1 1 1                 # All equal sizes - gives the right reduced density.
Lattice spacing in x,y,z = 1.5874011 1.5874011 1.5874011

region box block 0 10 0 10 0 10 units lattice # Defines a region, "box", in lattice units
create_box 1 box                              # Creates a simulation box as specified above,
Created orthogonal box = (0.0000000 0.0000000 0.0000000) to (15.874011 15.874011 15.874011)
  4 by 4 by 4 MPI processor grid
                                              # with one type of atom
create_atoms 1 box                            # Creates particles on lattice points
Created 4000 atoms
  using lattice units in orthogonal box = (0.0000000 0.0000000 0.0000000) to (15.874011 15.874011 15.874011)
  create_atoms CPU = 0.002 seconds


# Set the mass of the first (and only) atom type.
mass 1 1.0

# Lennard-Jones interactions between particles, 3.5 sigma cut-off. Apply
# long range tail corrections to energy and pressure and set all coefficients
# to unity since we work in reduced units here. Note that this doesn't shift
# the potential such that it goes to zero at the cutoff. That would require
# pair_modify('shift', 'yes').
pair_style lj/cut  3.5      # non-GPU version
pair_modify tail  yes
pair_coeff 1  1  1.0  1.0   # Intearaction between 1 and 1 set with epsilon = 1 and sigma = 1

write_data data.*
System init for write_data ...
Neighbor list info ...
  update every 1 steps, delay 10 steps, check yes
  max neighbors/atom: 2000, page size: 100000
  master list distance cutoff = 3.8
  ghost atom cutoff = 3.8
  binsize = 1.9, bins = 9 9 9
  1 neighbor lists, perpetual/occasional/extra = 1 0 0
  (1) pair lj/cut, perpetual
      attributes: half, newton on
      pair build: half/bin/atomonly/newton
      stencil: half/bin/3d
      bin: standard

#############################
#   M E L T   S Y S T E M   #
#############################

velocity all create 2.4 3143649 mom yes dist gaussian # Assign velocities
                                                    # Temperature 2.4, random number seed, zero linear momentum
						                                                        # Gaussian distribution

timestep 0.002   # simulation timestep
thermo 100       # output thermodynamic data every 100 steps

# Define a fix  in this case with index 1 applied to all
# particles in the simulation. This fix is for simulations
# in the anisotropic NPT ensemble. Note that we use the MTK
# correction.
fix 1 all npt temp 2.4 2.4 0.1 iso 5.68 5.68 0.5 mtk yes tchain 5 pchain 5 # Use NPT ensemble
                                                                         # Set temperature and pressure and damping
                                                                         # Numbers of thermostats in chain and in barostat
run 1000         # run for 10000 steps
Per MPI rank memory allocation (min/avg/max) = 3.630 | 3.630 | 3.630 Mbytes
Step Temp E_pair E_mol TotEng Press Volume 
       0          2.4   -8.3859253            0   -4.7868253   -2.2405722         4000 
     100    1.2648744   -6.5290671            0   -4.6322298    5.3798688    4090.0656 
     200    1.4689665   -6.3033458            0   -4.1004469    5.9766879    4141.9478 
     300    1.5757287   -6.0115718            0   -3.6485695    5.8461614    4272.4316 
     400    1.6979232   -5.7228765            0   -3.1766284    5.8923806    4398.0373 
     500    1.7905817    -5.427445            0   -2.7422439      5.78902    4550.9794 
     600    1.8981736   -5.1583052            0   -2.3117566    5.7628382       4700.9 
     700    2.0060053   -4.8956622            0   -1.8874064    5.8620002    4837.8597 
     800     2.161964   -4.7200774            0   -1.4779421    5.9239068    4947.9616 
     900    2.2454811   -4.5521004            0   -1.1847209    5.7904219    5078.3833 
    1000    2.3595505   -4.4432956            0   -0.9048547    5.8626198    5147.5374 
Loop time of 0.249649 on 64 procs for 1000 steps with 4000 atoms

Performance: 692172.430 tau/day, 4005.627 timesteps/s
99.7% CPU use with 64 MPI tasks x no OpenMP threads

MPI task timing breakdown:
Section |  min time  |  avg time  |  max time  |%varavg| %total
---------------------------------------------------------------
Pair    | 0.059297   | 0.062886   | 0.068061   |   0.7 | 25.19
Neigh   | 0.013965   | 0.014733   | 0.015556   |   0.3 |  5.90
Comm    | 0.11897    | 0.13451    | 0.14827    |   2.4 | 53.88
Output  | 0.00035542 | 0.00036557 | 0.00042139 |   0.0 |  0.15
Modify  | 0.024179   | 0.035253   | 0.047453   |   4.6 | 14.12
Other   |            | 0.001903   |            |       |  0.76

Nlocal:        62.5000 ave          69 max          52 min
Histogram: 1 1 2 2 11 13 10 14 5 5
Nghost:        1247.56 ave        1267 max        1229 min
Histogram: 3 8 10 4 3 9 13 6 5 3
Neighs:        5551.38 ave        6501 max        4539 min
Histogram: 2 2 2 11 13 13 12 4 3 2

Total # of neighbors = 355288
Ave neighs/atom = 88.822000
Neighbor list builds = 87
Dangerous builds = 20

# Equilibrate just above the melting temperature to avoid step fn in T

fix 1 all npt temp 1.25 1.25 0.1 iso 5.68 5.68 0.5 mtk yes tchain 5 pchain 5
run 1000
Per MPI rank memory allocation (min/avg/max) = 3.631 | 3.631 | 3.631 Mbytes
Step Temp E_pair E_mol TotEng Press Volume 
    1000    2.3595505   -4.4432956            0   -0.9048547    5.8626198    5147.5374 
    1100    1.9293476   -4.6486671            0   -1.7553692    5.7282766    4999.4388 
    1200    1.7345312   -4.9601095            0   -2.3589631    5.7791767    4797.9679 
    1300    1.5644489   -5.2082186            0   -2.8621319    5.5594876    4679.9578 
    1400     1.466305   -5.4051147            0   -3.2062071    5.7438096    4550.8751 
    1500    1.3912389   -5.5752414            0   -3.4889048    5.6991581    4468.1976 
    1600    1.3078898   -5.6911598            0   -3.7298155    5.4640743    4431.8167 
    1700    1.2563777   -5.7616223            0   -3.8775269    5.4245998    4398.8172 
    1800    1.2347894   -5.7874194            0   -3.9356984    5.5426245    4376.1587 
    1900     1.276485   -5.8164585            0   -3.9022097    5.4174286    4378.1985 
    2000    1.2569289   -5.8154156            0   -3.9304936    5.6265703     4360.924 
Loop time of 0.248035 on 64 procs for 1000 steps with 4000 atoms

Performance: 696677.057 tau/day, 4031.696 timesteps/s
100.0% CPU use with 64 MPI tasks x no OpenMP threads

MPI task timing breakdown:
Section |  min time  |  avg time  |  max time  |%varavg| %total
---------------------------------------------------------------
Pair    | 0.057543   | 0.062026   | 0.067927   |   0.8 | 25.01
Neigh   | 0.012017   | 0.012774   | 0.013851   |   0.3 |  5.15
Comm    | 0.11953    | 0.13511    | 0.15106    |   2.7 | 54.47
Output  | 0.00035825 | 0.0003672  | 0.0004151  |   0.0 |  0.15
Modify  | 0.021222   | 0.035399   | 0.049623   |   5.3 | 14.27
Other   |            | 0.002357   |            |       |  0.95

Nlocal:        62.5000 ave          69 max          56 min
Histogram: 2 4 6 10 11 5 14 8 3 1
Nghost:        1404.88 ave        1424 max        1383 min
Histogram: 2 2 8 5 15 6 7 13 2 4
Neighs:        6547.39 ave        7241 max        5694 min
Histogram: 2 2 6 5 13 12 3 12 6 3

Total # of neighbors = 419033
Ave neighs/atom = 104.75825
Neighbor list builds = 75
Dangerous builds = 6


# Small amount of linear quench

fix 1 all npt temp 1.25 ${temp} 0.1 iso 5.68 5.68 0.5 mtk yes tchain 5 pchain 5
fix 1 all npt temp 1.25 0.84 0.1 iso 5.68 5.68 0.5 mtk yes tchain 5 pchain 5
run 2000
Per MPI rank memory allocation (min/avg/max) = 3.631 | 3.631 | 3.631 Mbytes
Step Temp E_pair E_mol TotEng Press Volume 
    2000    1.2569289   -5.8154156            0   -3.9304936    5.6265703     4360.924 
    2100    1.2295905    -5.837209            0   -3.9932844    5.6312146    4348.5343 
    2200    1.2183618   -5.8763962            0   -4.0493103    5.5102733    4340.3282 
    2300     1.188984   -5.8844506            0   -4.1014205    5.7281405     4315.803 
    2400    1.1826394   -5.9202604            0   -4.1467449     5.954631    4283.1899 
    2500    1.1819494   -5.9780717            0   -4.2055909    5.8153204    4272.2979 
    2600    1.1410993    -5.977077            0   -4.2658559    5.8858478    4261.8509 
    2700    1.1009006   -6.0002354            0   -4.3492974    5.7403673    4261.4304 
    2800    1.1073439   -6.0628564            0   -4.4022559    5.5979206     4248.384 
    2900    1.0942772   -6.1137752            0   -4.4727698    5.5681529    4227.6081 
    3000    1.0657731   -6.1454256            0   -4.5471656    5.5998235     4210.816 
    3100    1.0333438   -6.1767425            0   -4.6271143    5.4384459    4209.7453 
    3200    1.0260525   -6.2096604            0   -4.6709664    5.6176426    4182.7546 
    3300   0.98368881   -6.2062146            0   -4.7310502      5.83519    4165.0391 
    3400   0.97350342   -6.2357787            0   -4.7758886    5.9865721    4142.8643 
    3500   0.95647396   -6.2563436            0   -4.8219914    6.0981601    4124.1207 
    3600   0.96096188   -6.3344403            0   -4.8933579    5.8579689    4114.2225 
    3700     0.914438   -6.3650471            0    -4.993733    5.5438102    4122.2945 
    3800   0.88392941   -6.3756405            0   -5.0500779    5.5219534    4117.4624 
    3900   0.87499291   -6.4159428            0   -5.1037815    5.6729252    4090.3101 
    4000   0.86919618   -6.4656642            0   -5.1621959    5.7088724    4070.2614 
Loop time of 0.526467 on 64 procs for 2000 steps with 4000 atoms

Performance: 656451.473 tau/day, 3798.909 timesteps/s
99.9% CPU use with 64 MPI tasks x no OpenMP threads

MPI task timing breakdown:
Section |  min time  |  avg time  |  max time  |%varavg| %total
---------------------------------------------------------------
Pair    | 0.12997    | 0.13517    | 0.14102    |   0.7 | 25.68
Neigh   | 0.021652   | 0.022393   | 0.02339    |   0.3 |  4.25
Comm    | 0.25402    | 0.28556    | 0.31667    |   4.1 | 54.24
Output  | 0.00073328 | 0.00075267 | 0.00085648 |   0.0 |  0.14
Modify  | 0.047193   | 0.076548   | 0.10465    |   7.8 | 14.54
Other   |            | 0.006036   |            |       |  1.15

Nlocal:        62.5000 ave          69 max          54 min
Histogram: 1 1 4 6 11 8 17 5 6 5
Nghost:        1463.08 ave        1478 max        1449 min
Histogram: 6 2 10 8 11 6 6 3 4 8
Neighs:        7035.50 ave        7807 max        5907 min
Histogram: 1 0 2 9 8 11 15 10 3 5

Total # of neighbors = 450272
Ave neighs/atom = 112.56800
Neighbor list builds = 124
Dangerous builds = 0

#############################
# F R E E Z E  S Y S T E M  #
#############################

# Define solid atoms. This closely follows ten Wolde  Ruiz-Montero and Frenkel  Faraday Discuss  1996  104  93-110
# Compute components of the per-atom q6 vector
compute q6 all orientorder/atom degrees 1 6 components 6 nnn NULL cutoff 1.3 # compute the Q6 parameter.
                                                                             # Use all neighbours within 1.3 unit cell.

# get number of connections
compute coord_number all coord/atom orientorder q6 0.5

# An atom is solid if it has 8 or more connections (of a possible 14)
variable is_solid atom c_coord_number>=8
group solid dynamic all var is_solid    # Must be dynamic to update
dynamic group solid defined

# do clustering
compute cluster solid cluster/atom 1.3 # Create a cluster where all atoms within are solid and max 1.3 units from another member

# define chunks one chunk per cluster
compute clus_chunks solid chunk/atom c_cluster nchunk every compress yes  # Says which atoms are in which chunk

# count the size of each chunk
compute size_chunks solid property/chunk clus_chunks count


# Find the maximum entry in the vector of chunk sizes
variable max_n equal max(c_size_chunks)


# Thermo style which includes this variable
thermo_style custom step temp pe vol v_max_n

thermo ${N}  # Print the thermo information every 100 steps
thermo 100  

# Reset the npt fix at a lower temperature (below freezing)
fix 1  all npt temp  ${temp} ${temp}  0.1  iso  5.68  5.68  0.5  mtk yes tchain  5  pchain  5
fix 1  all npt temp  0.84 ${temp}  0.1  iso  5.68  5.68  0.5  mtk yes tchain  5  pchain  5
fix 1  all npt temp  0.84 0.84  0.1  iso  5.68  5.68  0.5  mtk yes tchain  5  pchain  5

dump dmp2 all dcd ${N} traj_${rand}.dcd
dump dmp2 all dcd 100 traj_${rand}.dcd
dump dmp2 all dcd 100 traj_462431.dcd


# fix rnuntil all halt ${N} v_max_n >= 3980 error soft message no   # Stop when solidified


run 100000 # 5000000  # Run for this many steps
Neighbor list info ...
  update every 1 steps, delay 10 steps, check yes
  max neighbors/atom: 2000, page size: 100000
  master list distance cutoff = 3.8
  ghost atom cutoff = 3.8
  binsize = 1.9, bins = 9 9 9
  4 neighbor lists, perpetual/occasional/extra = 1 3 0
  (1) pair lj/cut, perpetual
      attributes: half, newton on
      pair build: half/bin/atomonly/newton
      stencil: half/bin/3d
      bin: standard
  (2) compute orientorder/atom, occasional
      attributes: full, newton on
      pair build: full/bin/atomonly
      stencil: full/bin/3d
      bin: standard
  (3) compute coord/atom, occasional
      attributes: full, newton on
      pair build: full/bin/atomonly
      stencil: full/bin/3d
      bin: standard
  (4) compute cluster/atom, occasional
      attributes: full, newton on
      pair build: full/bin/atomonly
      stencil: full/bin/3d
      bin: standard
Per MPI rank memory allocation (min/avg/max) = 9.331 | 9.335 | 9.341 Mbytes
Step Temp PotEng Volume v_max_n 
    4000   0.86919618   -6.4656642    4070.2614           11 
    4100    0.8565225   -6.4997732    4060.3053           12 
    4200    0.8408731   -6.5233755     4058.575            5 
    4300   0.84061845   -6.5541537    4049.0826            8 
    4400   0.82816922   -6.5266868    4032.8922            4 
    4500   0.83135314   -6.5200427    4027.4835            6 
    4600   0.87364783   -6.5379647    4027.5873            7 
    4700   0.85551559   -6.5481479    4018.5052            7 
    4800   0.84957305   -6.5705923    4019.4555           10 
    4900    0.8162721   -6.5685578    4030.6476           14 
    5000   0.84861616   -6.5724426    4031.3112            7 
    5100   0.85574028   -6.5615701    4029.5807            7 
    5200   0.84635568   -6.5233343     4039.987            8 
    5300   0.84898849   -6.5771317    4033.8749           16 
    5400   0.82177056   -6.5613911    4039.8074           12 
    5500   0.84078686   -6.5650008    4050.8309           13 
    5600   0.81748485   -6.5635867    4039.4911           10 
    5700   0.83869244   -6.5598279     4031.011            5 
    5800   0.83773192   -6.5612291    4032.2562           14 
    5900   0.82239033   -6.5644056    4026.4188           13 
    6000   0.84506245   -6.5605822    4040.3632           10 
    6100   0.84587003   -6.5710592    4043.6481           10 
    6200   0.83890392    -6.577576    4032.0707           20 
    6300   0.82056052   -6.5777434    4031.7136           10 
    6400   0.85876659   -6.5855902    4038.5636            8 
    6500   0.82306375   -6.5661347    4037.7222           10 
    6600   0.81540143   -6.5286409    4040.6051            5 
    6700   0.84200677   -6.5533092    4040.5022            8 
    6800   0.82741478   -6.5618251    4025.6449           14 
    6900   0.83961529   -6.5776648    4026.7651           11 
    7000   0.83797573   -6.5799517    4032.5204           16 
    7100   0.83086047   -6.5678292    4038.8636           14 
    7200   0.83724198   -6.5748521    4038.1852           22 
    7300   0.82661326    -6.576474    4030.8552           33 
    7400   0.84781416   -6.5581927    4038.5274           25 
    7500   0.84159261   -6.5585209    4039.3661           21 
    7600   0.83759688    -6.562534     4030.744           25 
    7700   0.82495989   -6.5727565    4019.8465           20 
    7800   0.85165843   -6.5758238    4032.1169            8 
    7900   0.85093118   -6.5696607     4037.994           16 
    8000   0.84381727   -6.5712506    4042.8848           20 
    8100   0.84202993   -6.5589405    4036.9896           10 
    8200   0.83114236   -6.5652372    4023.0091           39 
    8300    0.8521576   -6.5913442    4020.8422           34 
    8400   0.84469466   -6.5811486    4028.6518           22 
    8500   0.83050229   -6.5670791    4028.3142           17 
    8600   0.82750655   -6.5831977    4015.9346           12 
    8700   0.85089993   -6.6144763    4028.5934           15 
    8800   0.83434281   -6.5887265    4031.5788           12 
    8900   0.81121793   -6.5892635    4031.4122           10 
    9000   0.82713185   -6.5632534    4040.5756           12 
    9100   0.84022545   -6.5747805     4036.887           26 
    9200   0.81522364    -6.567144    4028.1657           11 
    9300   0.83832651   -6.5860276    4038.5996           16 
    9400   0.83679185   -6.5743608    4032.4664            7 
    9500   0.84227581   -6.5676471     4024.005           14 
    9600   0.84677863   -6.5801163    4017.5049           11 
    9700   0.84565811   -6.5834004    4018.0244           12 
    9800    0.8396712   -6.5747288    4031.0816           24 
    9900   0.83170612   -6.5789078    4038.8977           15 
   10000   0.84492142   -6.5761289    4043.9443           17 
   10100    0.8257031   -6.5700169    4035.1003           13 
   10200   0.83945218   -6.5822117    4028.8152           11 
   10300   0.83974319    -6.549172    4042.5709            6 
   10400   0.83454034    -6.559381    4047.3996           22 
   10500   0.82855751   -6.5964936    4038.5278           16 
   10600   0.83422072   -6.5838267    4040.4023            8 
   10700   0.84604792   -6.5729355     4051.985            8 
   10800   0.83555216   -6.5584887    4049.2967           16 
   10900   0.83984505   -6.5816035    4033.0684           10 
   11000   0.83869028   -6.5747096    4030.1909            8 
   11100   0.84642962   -6.5618516    4026.8259            9 
   11200   0.85381593    -6.550749    4015.0936            8 
   11300   0.83780305    -6.564446    4017.4835           10 
   11400   0.85790779   -6.5773254    4041.7961           14 
   11500   0.84370618   -6.5714908     4038.652           17 
   11600   0.84544444   -6.5693529    4027.7218           14 
   11700   0.83691277   -6.5587176    4027.1657           19 
   11800   0.84423545   -6.5699835    4018.7745           10 
   11900   0.83806627   -6.5823186    4021.7925           18 
   12000   0.87023351   -6.5869876    4032.8466           14 
   12100   0.83449887   -6.5875415    4035.4326           28 
   12200   0.84281044   -6.5973321    4035.3017           41 
   12300   0.83900814   -6.5662662    4034.1877           12 
   12400   0.86164781   -6.5877571    4028.9872           15 
   12500   0.84279561   -6.5663189    4014.6303           15 
   12600   0.84475655   -6.5813226     4030.454            9 
   12700   0.84378573   -6.5580678    4035.4844            7 
   12800   0.83493787   -6.5534113    4034.0296            5 
   12900   0.85742773   -6.5664914    4043.5592           13 
   13000   0.81933321   -6.5529736    4040.0075           12 
   13100   0.84534487   -6.5714168    4040.1487           11 
   13200    0.8449563   -6.5604597    4031.1331           12 
   13300   0.83084203   -6.5606106    4035.9762            7 
   13400   0.83931934   -6.5561649    4049.7243            4 
   13500   0.83683328   -6.5508974    4050.9806           13 
   13600   0.82300027   -6.5701472    4038.9882           11 
   13700   0.83056575   -6.5604363    4041.9419           11 
   13800   0.84207866   -6.5457628    4042.8476           10 
   13900   0.85468145   -6.5538829    4028.5657           10 
   14000   0.83937353    -6.548423    4019.7247           12 
   14100   0.83409045   -6.5550798    4029.3931           17 
   14200   0.84654312   -6.5566794    4032.1915           33 
   14300   0.83558915   -6.5768164    4033.5489           13 
   14400   0.85371688    -6.566567    4042.9654           11 
   14500   0.83621746   -6.5347723    4034.2397           13 
   14600   0.84478375   -6.5745576    4024.1603           17 
   14700   0.85544506   -6.5582669    4026.7788           13 
   14800   0.83073763   -6.5577494    4035.0485           11 
   14900    0.8562658   -6.5916047    4037.8345           10 
   15000   0.82648976   -6.5849132    4030.2701           22 
   15100   0.84119356   -6.5773811    4040.0638           10 
   15200   0.83588629   -6.5495897    4037.6652            9 
   15300   0.84411327   -6.5772195    4028.0731            8 
   15400   0.84204301   -6.6049206    4033.1514            9 
   15500   0.84865771   -6.5798479    4039.4357           11 
   15600   0.84952642   -6.5966747    4039.5359           15 
   15700   0.81830845   -6.5885372    4027.7115            7 
   15800   0.84161139   -6.5853732    4037.6963            7 
   15900   0.84385205   -6.5606952    4020.3928           12 
   16000   0.83950205   -6.5648453    4021.8764            9 
   16100   0.85120949   -6.5548337    4028.8074            8 
   16200   0.82617298   -6.5477859    4030.4672           13 
   16300   0.86062825   -6.5721774    4045.3934           14 
   16400   0.83129975   -6.5690221     4038.761            9 
   16500   0.83868503   -6.5958922    4036.9113            7 
   16600   0.84421448   -6.5703568    4040.5292            9 
   16700   0.83019801   -6.5714409     4032.031           15 
   16800   0.83915291   -6.5684381    4032.7642            8 
   16900    0.8268498    -6.567253     4031.589           15 
   17000   0.83769354   -6.5978768     4025.126            8 
   17100   0.83670404   -6.5787124    4025.8643           16 
   17200   0.83841716   -6.5912569    4022.3552            4 
   17300   0.85508602    -6.576418     4025.189            7 
   17400   0.84536031   -6.5614733    4015.5408           12 
   17500   0.84835525   -6.5784639    4016.8899           16 
   17600   0.85578332   -6.5493234    4022.5684           13 
   17700   0.84765802   -6.5617877    4029.0789           10 
   17800   0.83201324   -6.5702189    4036.8066           10 
   17900   0.85111126   -6.5748284    4044.2551            9 
   18000   0.82266784   -6.5745128    4042.3418           11 
   18100   0.83423275   -6.5865588     4042.975           11 
   18200   0.82328652   -6.5444505    4032.8717           19 
   18300   0.84952942   -6.5422046    4035.9919           22 
   18400   0.84414545   -6.5538141    4033.5834           22 
   18500   0.83437054   -6.5692345    4033.0354            9 
   18600   0.84740339   -6.5581253    4045.3689           12 
   18700   0.83977537   -6.5662457    4041.5422            9 
   18800   0.83894945   -6.6023825    4044.3328           14 
   18900   0.80735618   -6.5794726    4035.1055           17 
   19000    0.8316908   -6.5652547    4042.7667            9 
   19100   0.83411764   -6.5449444    4043.5812           10 
   19200   0.83274001   -6.5793261    4036.9743           12 
   19300   0.84348062   -6.5599042    4035.5166           18 
   19400   0.85855933   -6.5624989    4034.4173           12 
   19500   0.83910609   -6.5607648    4030.1491           12 
   19600   0.82198525   -6.5726538     4051.183           12 
   19700   0.83618731    -6.570251    4050.9988           18 
   19800    0.8473817   -6.5698673    4041.4212           19 
   19900   0.83177503   -6.5554429    4041.5186           14 
   20000    0.8378531   -6.5926177     4029.893           10 
   20100   0.85556459   -6.5748063    4029.3892            8 
   20200    0.8503725   -6.5640755    4028.0832           16 
   20300   0.86826615     -6.57142    4024.8425           11 
   20400    0.8215674   -6.5473117    4028.4269           11 
   20500   0.84524234   -6.5684634    4029.7522            7 
   20600   0.83178762   -6.5880599    4028.7801           12 
   20700   0.84865163   -6.6073335    4037.2735           15 
   20800   0.83670248   -6.5619625    4039.5612           17 
   20900   0.84143603   -6.5849339    4039.4418           11 
   21000   0.84302955   -6.5666312    4039.0949           19 
   21100   0.84606135   -6.6002931     4039.752           19 
   21200   0.82227941   -6.5475721    4034.4516           14 
   21300   0.84422889   -6.5433418    4027.7766           24 
   21400   0.84838854   -6.5814825    4016.6271           15 
   21500   0.84130839   -6.5637979    4020.3433           21 
   21600   0.84985204   -6.5709992    4021.4849           21 
   21700   0.83608395     -6.59805    4022.9853           15 
   21800   0.83444063   -6.5678168    4030.9261           16 
   21900   0.85175101   -6.5571734    4029.2521           35 
   22000    0.8464186   -6.5668479    4031.2914           13 
   22100   0.84179339   -6.5514252    4030.0678           13 
   22200    0.8524704   -6.5572691    4034.2386           13 
   22300   0.84453527   -6.5791725    4035.9999           45 
   22400   0.82719386   -6.5560055     4032.818           19 
   22500   0.84417095   -6.5662999    4039.8425           17 
   22600   0.84643787   -6.5668428     4034.317           13 
   22700   0.84385966   -6.5917734    4024.4492           14 
   22800    0.8343504   -6.5722264     4024.137            8 
   22900   0.84902639   -6.5483434    4022.7383           13 
   23000   0.86608807   -6.5707099    4015.6442           13 
   23100   0.85243398   -6.5942376    4012.5893           24 
   23200   0.85588449   -6.5757181    4021.3471           12 
   23300   0.83621605   -6.5595354    4037.0349           17 
   23400   0.85758864   -6.5632197     4044.895           10 
   23500   0.84717018   -6.5639132    4043.2291           16 
   23600   0.84349044    -6.562951    4037.9635           14 
   23700   0.83097167   -6.5703409    4037.2393           13 
   23800   0.81794497   -6.5835615    4019.9315           19 
   23900   0.83327561   -6.5758371    4032.6861           15 
   24000   0.83538373   -6.5679817    4047.7442           12 
   24100   0.84802958    -6.550213    4050.8287           13 
   24200   0.83479939   -6.5607236    4048.7646           13 
   24300   0.80883318   -6.5471395    4044.6653           10 
   24400   0.82328757   -6.5710941    4043.5941           15 
   24500   0.83363475   -6.5578408    4046.3003           13 
   24600   0.86391118    -6.565546    4048.4887           10 
   24700   0.83480789   -6.5552619    4036.9163            7 
   24800    0.8730457   -6.5772248    4037.7871           21 
   24900   0.83958283   -6.5398365    4038.8343           19 
   25000   0.83858114   -6.5751238    4035.9036           16 
   25100   0.83215858   -6.5972168    4033.8881           17 
   25200   0.83154619   -6.5847823    4036.9629           16 
   25300   0.83954604   -6.5843948     4036.456            9 
   25400    0.8294672   -6.5817725    4029.9963           22 
   25500   0.85279114   -6.5737125    4030.0639            8 
   25600   0.82417807   -6.5701528    4035.1446           18 
   25700   0.84012574   -6.5720572    4037.5298           16 
   25800   0.82600701   -6.5734873    4036.1266           13 
   25900   0.83247245   -6.5727232    4033.1612           17 
   26000    0.8437974   -6.5474832    4028.8396           11 
   26100   0.82482578   -6.5465133    4035.5696           14 
   26200   0.84327506   -6.5540284    4036.8631           11 
   26300    0.8141352   -6.5367251    4037.0157           11 
   26400   0.85471618   -6.5715115    4033.4636            6 
   26500   0.83641221    -6.569578    4029.5314           13 
   26600    0.8254593   -6.5676541    4022.8997           12 
   26700   0.84243597   -6.5592111    4039.8704           15 
   26800   0.84658817   -6.5532797    4040.2103           10 
   26900   0.84466404    -6.559375    4027.7787            9 
   27000   0.82987168   -6.5774566    4028.7497           12 
   27100   0.84536536    -6.552425    4047.1503           12 
   27200   0.84051776   -6.5665564    4045.6336            7 
   27300   0.85364274   -6.5825115    4035.4898            7 
   27400   0.83626988   -6.5935408    4019.7804            9 
   27500   0.84543117   -6.5744546    4021.7153            9 
   27600   0.85115633   -6.5607886    4023.2882           18 
   27700   0.85735275   -6.5973629    4029.0932            6 
   27800   0.82998315   -6.5849556    4028.9314           14 
   27900    0.8515667   -6.5731177     4033.224            7 
   28000   0.84885346   -6.5719862    4021.8642           15 
   28100    0.8585521   -6.5906966    4020.7083           15 
   28200   0.86420294    -6.556873    4017.5312           11 
   28300   0.84503435   -6.5782328    4026.7461           11 
   28400   0.86195216   -6.5964272    4027.1733           17 
   28500   0.84220049   -6.5804119    4028.6876           12 
   28600    0.8454237   -6.5802347    4036.0025           11 
   28700   0.84761469   -6.5546894    4050.8815           11 
   28800    0.8406415   -6.5599734    4035.2925           15 
   28900   0.84281465   -6.5730183    4022.1695           14 
   29000   0.83694465   -6.5888251    4018.8182           11 
   29100   0.84293442   -6.5799612    4025.2754           11 
   29200   0.85239926    -6.595159    4029.8979           14 
   29300   0.84129946   -6.5596302    4026.6308           12 
   29400   0.84491118   -6.5828923    4028.8041           13 
   29500    0.8313475    -6.577434     4020.891           15 
   29600   0.84559075   -6.5964493    4023.9872           12 
   29700   0.83049279    -6.606898    4023.2936            6 
   29800   0.83760605   -6.5813283    4034.9051           19 
   29900   0.84755179   -6.5775778    4036.5458           18 
   30000   0.81866322   -6.5717633    4025.1731           18 
   30100   0.83969245    -6.564615    4028.1111           13 
   30200   0.84873294   -6.5705962     4029.588           14 
   30300   0.83173145   -6.5909767    4019.4779           18 
   30400   0.83144905   -6.5700083    4022.9652           24 
   30500   0.83573113    -6.555713    4026.6575           30 
   30600   0.84764107   -6.5582859    4035.9457           45 
   30700   0.85599684   -6.5450338    4048.8517           22 
   30800   0.83974113   -6.5486634    4048.4894           22 
   30900   0.82933712   -6.5452497    4039.5193           18 
   31000   0.85675484   -6.5517709    4041.1632           19 
   31100    0.8457504   -6.5713101    4030.7272           12 
   31200   0.84085794   -6.5634284    4028.0494           15 
   31300   0.86495173   -6.5613047    4035.3859           12 
   31400   0.84735242   -6.5728215    4030.4235           32 
   31500    0.8325434    -6.565571    4026.3957           15 
   31600   0.85024074   -6.5481009    4038.4118           10 
   31700   0.84264542   -6.5634349    4031.1611           30 
   31800   0.85153924   -6.5760552    4022.6251           12 
   31900   0.84925198   -6.6254126    4024.9482           25 
   32000   0.82562708   -6.5830447     4031.013           15 
   32100   0.83892076   -6.5631696    4043.9293           13 
   32200   0.82829626   -6.5664034    4041.3236           10 
   32300   0.83832635   -6.5746206      4032.03           23 
   32400   0.84632143   -6.5576839    4041.2462           21 
   32500   0.84203639   -6.5499725    4034.2638           19 
   32600    0.8424218   -6.5793919      4027.79           18 
   32700   0.84022162   -6.5789812    4015.4927            9 
   32800   0.82156003   -6.5430053    4028.0962            9 
   32900   0.84634101   -6.5570119    4030.8983            9 
   33000   0.85054951   -6.5766867    4036.4858           10 
   33100   0.83569622   -6.5883913    4035.3916           15 
   33200   0.82948543   -6.5927867    4028.7069           16 
   33300   0.84648549   -6.5604815    4034.2694           13 
   33400   0.84427428   -6.5649836    4022.5833            9 
   33500   0.83732534   -6.5705609    4010.4536            6 
   33600   0.84388582   -6.5441872     4030.237           18 
   33700   0.81975519   -6.5482214    4031.7038           19 
   33800   0.83794222   -6.5731747    4034.8773            8 
   33900   0.84331411   -6.5685704    4030.5062           16 
   34000    0.8286896   -6.5695633    4042.4822           14 
   34100   0.83951847   -6.5637911     4053.251           10 
   34200   0.83039725   -6.5598312    4059.6047           13 
   34300   0.82167252   -6.5865601    4046.0299           19 
   34400   0.83836355   -6.5814233    4048.7952            8 
   34500   0.84624331   -6.5431846    4037.4743           10 
   34600   0.86912998    -6.572535    4028.7174           30 
   34700   0.84568569    -6.585618    4019.5044           13 
   34800   0.82696853   -6.5778568    4027.0246           18 
   34900   0.84554804   -6.5487892     4024.747           29 
   35000   0.83319957   -6.5701347    4025.4559           18 
   35100   0.83881375   -6.5981959    4024.1109           12 
   35200   0.84785582   -6.5701664    4032.8354           15 
   35300   0.84679385   -6.5800044    4026.4887           31 
   35400   0.83782622   -6.5593745    4028.0273           14 
   35500   0.85832803   -6.5599507    4030.5371           10 
   35600   0.84087876   -6.5718094     4022.403            9 
   35700   0.84302538    -6.573275    4030.4928           11 
   35800   0.83438222   -6.5603891    4025.7245            8 
   35900   0.83151414   -6.5625118    4027.0038           13 
   36000   0.85411879   -6.5734201    4042.0403            8 
   36100   0.83680585   -6.6001755    4032.1123           11 
   36200   0.83951267   -6.5858188    4028.3486           14 
   36300   0.84624852   -6.5367211    4030.7644           11 
   36400   0.84798038   -6.5725068    4019.5779           12 
   36500   0.83283177   -6.5730263    4024.9086           12 
   36600   0.84387325   -6.5655426    4032.0088            8 
   36700   0.87168677   -6.5790988    4034.4079           13 
   36800   0.83704918   -6.5833985    4031.1124           19 
   36900   0.82559153   -6.5654112    4038.7901           20 
   37000   0.84584055   -6.5867055     4048.416           13 
   37100   0.83396768     -6.57195    4037.5175           14 
   37200   0.82197732    -6.595433    4033.3157           22 
   37300   0.84353447   -6.5940064    4040.8603            9 
   37400   0.83143093   -6.5482005     4019.913            9 
   37500   0.83719743   -6.5594277    4021.3471           29 
   37600   0.84731034   -6.5808149    4036.6925           23 
   37700   0.83719248   -6.5802067    4042.9769           19 
   37800   0.85677716   -6.5777329    4040.0449           10 
   37900   0.83316359    -6.592858    4033.2274           13 
   38000   0.84686654   -6.5802287    4028.5407           14 
   38100   0.84627124    -6.547499    4040.6907           13 
   38200   0.84736378   -6.5640881    4032.2854           16 
   38300    0.8364761   -6.5607118    4031.7519            7 
   38400     0.859919   -6.5749127    4033.5882           17 
   38500   0.83939808   -6.5761497     4038.016           14 
   38600   0.85271057   -6.5758102    4039.9229           22 
   38700   0.85584818   -6.5863095    4039.0569           15 
   38800   0.82983577   -6.5893143    4032.8639           10 
   38900   0.84081983   -6.5736523     4033.053           19 
   39000   0.83397465   -6.5477452    4032.2277           11 
   39100   0.85399459   -6.5971336    4029.7379           16 
   39200   0.84325032   -6.5806091    4017.7516           13 
   39300   0.84929696   -6.5893378    4022.7996           10 
   39400   0.84114132   -6.5707123    4023.2567           18 
   39500   0.83815664   -6.5904082    4028.6665           19 
   39600   0.84797174   -6.5831116    4043.8462           23 
   39700   0.83305128   -6.6160036    4038.7592           18 
   39800     0.832193   -6.5828592    4024.1074           14 
   39900   0.85536712   -6.5635716    4029.7933           19 
   40000   0.83244849   -6.5770488    4025.0662           16 
   40100   0.84026272   -6.5903332    4027.8758           28 
   40200   0.85418829   -6.5738474    4038.1151           15 
   40300   0.83621858   -6.5735319    4026.3015           12 
   40400   0.83918661   -6.6028146    4025.9941           23 
   40500    0.8451417   -6.5602436    4029.9101           29 
   40600   0.84869693     -6.58538     4028.423           23 
   40700   0.83024223   -6.5770393    4026.0505           35 
   40800   0.84762833   -6.5744978     4037.649           21 
   40900    0.8526689   -6.5893001     4043.791           11 
   41000   0.82057295   -6.5866993    4028.6932            8 
   41100   0.84170826   -6.5810736    4037.0904            9 
   41200   0.84896887   -6.5950658    4037.0725           19 
   41300   0.82819705    -6.580623    4029.6365           12 
   41400   0.84356016   -6.5822838     4030.862           22 
   41500   0.87950294   -6.5764863    4033.1076           18 
   41600   0.84431719   -6.5613605    4028.5347           17 
   41700   0.83011389   -6.5708463    4024.6232           16 
   41800   0.85660234   -6.6018978    4027.6173           30 
   41900   0.82238789   -6.5648322    4026.4481           19 
   42000    0.8455759   -6.5595011    4041.0174           10 
   42100    0.8358892   -6.5640284    4039.4379           11 
   42200   0.83300649   -6.5561652    4024.6006            9 
   42300   0.86435426   -6.5787033    4018.1098            7 
   42400   0.86440967    -6.549509    4027.9337           16 
   42500   0.85505587    -6.583072    4030.3389            6 
   42600   0.84632447   -6.5493899    4022.8368           10 
   42700   0.85169736   -6.5615849    4034.3921           11 
   42800   0.83210134   -6.5569457    4031.6888           10 
   42900   0.85073653   -6.5818378    4032.3553            9 
   43000   0.84489694   -6.5616878    4034.0224           11 
   43100   0.82266471   -6.5750288    4033.1225           23 
   43200   0.84611185   -6.5820182    4040.1132           33 
   43300   0.84170248   -6.5662836    4032.8353           24 
   43400    0.8258811   -6.5593335    4035.4251           19 
   43500   0.82581539   -6.5515846      4049.45           29 
   43600   0.84456377   -6.5804144    4054.7338           37 
   43700   0.82573999   -6.5855444     4047.964           39 
   43800   0.84576027   -6.5779839    4043.3479           19 
   43900   0.82218842   -6.5817494    4025.1922           22 
   44000   0.82882961   -6.5947441    4029.8234           37 
   44100   0.84721086   -6.5718847    4033.5942           18 
   44200   0.84793847    -6.563453    4029.4315           13 
   44300   0.83392671   -6.5746599    4013.9154           23 
   44400    0.8484466    -6.571755    4028.0432           14 
   44500   0.83470909   -6.5547728    4045.3498            9 
   44600   0.82874155   -6.5864379    4044.3096           20 
   44700   0.82118237   -6.5740341     4038.803           20 
   44800   0.85103466   -6.5768093    4033.6344           14 
   44900    0.8477843   -6.5844806    4021.7034           11 
   45000   0.83909315   -6.5946874    4008.4783           13 
   45100   0.83940894   -6.5723428    4018.5185           31 
   45200   0.86138655   -6.5836588    4023.1829           10 
   45300   0.84256787   -6.5641628    4023.1167           16 
   45400   0.83841659   -6.5558984    4018.4179           14 
   45500   0.83600134   -6.5877045    4025.6674           23 
   45600   0.83999972   -6.5641204    4042.5602           13 
   45700    0.8408729   -6.5754741    4043.1175           15 
   45800    0.8228641    -6.568904    4028.3085           24 
   45900   0.83296641   -6.5549789    4044.7283           16 
   46000   0.82423773    -6.540178    4037.3838           20 
   46100   0.83399117   -6.5617347    4035.5144           17 
   46200   0.86249271   -6.5588043    4030.2805           10 
   46300   0.83272641   -6.5600223    4027.4471           11 
   46400   0.83745915   -6.5677291    4033.0874           28 
   46500   0.86501385   -6.5754551    4040.4038           26 
   46600   0.84315313    -6.590014    4045.2999           45 
   46700   0.82980757   -6.5650377    4038.2443           44 
   46800   0.85186548   -6.5652533    4049.9425           35 
   46900   0.84044324   -6.5611305    4043.0563           23 
   47000   0.83652789   -6.5606735    4030.9028           33 
   47100   0.84009435   -6.5839203     4024.963           11 
   47200   0.80778216    -6.571232    4018.0304           24 
   47300   0.84587921   -6.5740379     4028.532           47 
   47400   0.82802745   -6.5722275    4032.9569           22 
   47500   0.84654286   -6.5742743    4046.8691           31 
   47600   0.83704591   -6.5635882    4045.2235           18 
   47700   0.82393062    -6.571818    4025.2193           17 
   47800   0.83449352   -6.5871273    4029.1751           39 
   47900   0.84944388   -6.5617925    4036.7063           32 
   48000   0.82130377   -6.5523059    4032.6759           36 
   48100   0.84302111   -6.5992877    4043.0651           19 
   48200   0.83974798   -6.5671638    4047.6702           23 
   48300   0.84185787   -6.5576903    4049.1538           30 
   48400   0.82502874   -6.5445905    4045.0841           24 
   48500   0.83482347   -6.5650743    4048.6716           19 
   48600   0.84987273   -6.5632063    4036.8772           21 
   48700    0.8388692   -6.5746735    4034.4201           24 
   48800   0.82021844   -6.5688545    4036.1397           17 
   48900   0.83532286   -6.5504575    4044.7864           11 
   49000   0.83748394   -6.5324286    4048.5693            9 
   49100   0.84267995   -6.5740024    4040.6299           10 
   49200   0.83671826   -6.5648001    4027.1335           14 
   49300   0.85744958   -6.5503973    4030.5734            6 
   49400   0.85589188   -6.5607888    4035.4889           11 
   49500    0.8517065   -6.5818011    4034.7588            8 
   49600   0.81734103   -6.5812829    4037.0251            8 
   49700   0.83489162   -6.5908936    4041.0743            9 
   49800   0.82628929   -6.5788586    4045.2916           14 
   49900   0.84796239   -6.5740903    4047.5919            5 
   50000   0.83097948   -6.5848607      4041.94           11 
   50100   0.81623663   -6.5878573    4040.2118            5 
   50200   0.84974179   -6.5782818    4037.1941            7 
   50300   0.83685011    -6.593299    4030.8364           23 
   50400   0.84826997   -6.5880679     4033.385           16 
   50500   0.84528726   -6.5527544    4030.0487           13 
   50600   0.84848568   -6.5765865    4024.6767            8 
   50700   0.84021333    -6.566903    4024.3585           13 
   50800   0.86360359   -6.5741417     4026.532            9 
   50900   0.84344319   -6.5837278    4022.4702           10 
   51000   0.83663813   -6.5722814    4021.2426           12 
   51100   0.84970424   -6.5671858     4039.652           10 
   51200   0.84889309   -6.5692746    4035.1543            8 
   51300   0.84219454   -6.5783473    4024.1538            7 
   51400   0.82887765   -6.5610611    4028.2997            8 
   51500   0.84761154   -6.5845887    4039.1421            9 
   51600   0.83597076   -6.5745543    4029.1405           10 
   51700   0.85047397   -6.5850982      4024.79           14 
   51800   0.85670369   -6.5407877    4025.7727           15 
   51900   0.83670886   -6.5534633    4021.0705            9 
   52000   0.84035893   -6.5882214    4023.8624           26 
   52100   0.85858865   -6.5864866     4020.529           25 
   52200   0.84958586   -6.5712882    4029.4136           23 
   52300   0.86020203   -6.5793346    4031.1843           49 
   52400   0.84928957   -6.5977265    4024.8887           15 
   52500    0.8469828   -6.5865185    4027.1959           11 
   52600   0.85033739   -6.5646718    4031.9464           27 
   52700   0.83171095   -6.5496411    4043.8183           22 
   52800   0.83818793   -6.5413441    4031.1497           17 
   52900   0.82390862   -6.5344376    4016.6777           13 
   53000   0.85024867   -6.5435566    4033.0024           13 
   53100   0.84484631   -6.5610136    4037.0666           13 
   53200   0.83657222   -6.5852328    4040.8019           10 
   53300   0.85140499    -6.564304    4042.0945           14 
   53400    0.8388685   -6.5549606    4032.5877            7 
   53500   0.84377022   -6.5804963    4032.0058           13 
   53600   0.82879599   -6.5744149    4017.9756            6 
   53700   0.85056926   -6.5750903    4028.9393            9 
   53800   0.83592955   -6.5510127    4039.3589           11 
   53900   0.83565182   -6.5341931    4046.7072           10 
   54000   0.82897108   -6.5742488    4039.1437            5 
   54100   0.84693295   -6.5742812    4036.9573            6 
   54200   0.82686713   -6.5609097     4032.017           18 
   54300   0.83432738   -6.5774239    4026.1842           23 
   54400   0.84322509   -6.5471677    4032.6442           30 
   54500   0.83115099   -6.5728985    4031.8015           24 
   54600   0.84998899   -6.5794389    4028.8016           21 
   54700   0.85939221   -6.5689988    4038.8601           10 
   54800   0.84783515   -6.5563367    4035.7273            9 
   54900    0.8315487   -6.5635525    4036.5328           16 
   55000   0.84597262   -6.5578219    4048.8368           20 
   55100   0.84345265   -6.5838169    4046.4029           14 
   55200   0.83989246   -6.5692457    4044.0899           19 
   55300   0.86116236   -6.5625532    4030.3765           22 
   55400   0.85518259   -6.5648733    4023.8589            9 
   55500   0.83358872   -6.5683362     4019.501           12 
   55600   0.84311051   -6.5556082    4030.2338            6 
   55700   0.83969266   -6.5486375    4033.7034           13 
   55800   0.84218218   -6.6056006    4038.2367           12 
   55900   0.84869186   -6.5822637    4031.8157           12 
   56000   0.85948421   -6.5793799    4024.8462           10 
   56100   0.83528073    -6.584238     4026.764           12 
   56200   0.84053278   -6.5943661    4033.3312           21 
   56300   0.84033214   -6.5700115    4038.7234           30 
   56400   0.82200324   -6.5730368    4027.7348           27 
   56500   0.82263097    -6.587607    4020.2078           29 
   56600   0.84285135   -6.5772942    4018.5869           23 
   56700   0.84600365   -6.5537298    4027.6397           12 
   56800   0.84967219   -6.5590405    4030.0201           15 
   56900   0.83985498   -6.6030985    4025.9938           22 
   57000   0.84550547   -6.5923151    4039.9549           16 
   57100    0.8376066     -6.58091     4044.196           24 
   57200    0.8331603   -6.5866135    4032.4927           35 
   57300   0.82691201   -6.5745781    4022.0878           49 
   57400   0.82813463   -6.5658514    4029.0031           39 
   57500   0.84462517   -6.5733566    4033.6903           44 
   57600   0.83983854   -6.5745251    4027.5366           43 
   57700    0.8458852   -6.5792905    4025.8794           40 
   57800   0.85088879   -6.5790109    4027.0255           24 
   57900    0.8376795   -6.5791807    4023.2969           35 
   58000   0.84209358   -6.6147773    4032.6592           28 
   58100   0.83225337   -6.5596747    4038.0798           17 
   58200    0.8375012   -6.5733428    4043.2074            9 
   58300   0.86362253   -6.5703216    4039.7732           14 
   58400   0.83570044   -6.5793956    4033.3756           13 
   58500   0.84645393   -6.5563145    4028.4481           11 
   58600   0.85808652    -6.527579    4034.2392           11 
   58700   0.83972499   -6.5576494    4033.5288           17 
   58800    0.8398351   -6.5800383    4033.1783           23 
   58900   0.82019285   -6.6085721     4027.778           16 
   59000   0.82069934   -6.5805257    4033.9467           27 
   59100   0.84515681   -6.5910318    4037.4282           22 
   59200   0.83694342   -6.5838287    4038.1827           17 
   59300   0.83521324   -6.5902912     4027.391           20 
   59400   0.85404458   -6.5871865    4034.8972           23 
   59500   0.82318094   -6.5796281    4031.3569           16 
   59600    0.8305179   -6.5757267    4021.1688           11 
   59700   0.83853564   -6.5515421    4017.8825           16 
   59800   0.85312489   -6.5698861    4024.3857           16 
   59900   0.82759595    -6.584907    4027.0451           30 
   60000   0.83419888   -6.5809205    4033.0162           22 
   60100   0.84594563   -6.5639351    4045.9014           45 
   60200   0.83110168   -6.5788546    4032.3926           29 
   60300   0.84943256    -6.586473    4038.4104           18 
   60400   0.83891684   -6.5945172    4031.8901           43 
   60500   0.83699256   -6.5976452    4027.3707           27 
   60600   0.84331286   -6.5647786    4024.0134           27 
   60700   0.84037485   -6.5597646    4015.4714           22 
   60800   0.86494924   -6.5763628    4018.3904           10 
   60900   0.84133427   -6.5656297    4027.5588           13 
   61000   0.84379092   -6.5707425    4030.7364           18 
   61100   0.81083184   -6.5683791    4030.5988           19 
   61200   0.83373244   -6.5703778    4037.9297           18 
   61300   0.83760401   -6.5778015    4044.5502           17 
   61400   0.83863542   -6.5650967    4040.5248           22 
   61500   0.83787135   -6.5960764    4023.5499           10 
   61600   0.83554795   -6.5861317    4029.8335           15 
   61700   0.83786831    -6.575277    4039.3365           10 
   61800   0.83979147   -6.5647783    4039.1217           18 
   61900   0.82850121   -6.5665798    4033.4373           16 
   62000   0.84012634    -6.559755    4044.0395           16 
   62100   0.84023323   -6.5622489    4047.9503           26 
   62200   0.83655064   -6.5576844    4041.1379           24 
   62300   0.84001032    -6.552757    4038.0796           12 
   62400   0.82799998   -6.5545393    4037.8119           12 
   62500   0.83575053   -6.5420465     4028.364           15 
   62600   0.84985645   -6.5213029    4033.7435           13 
   62700   0.85897644     -6.56252    4031.5207           10 
   62800   0.85684764   -6.5691156    4033.8771           15 
   62900   0.83267511   -6.5905655    4031.8728            7 
   63000   0.84815711   -6.5833661    4035.4999           17 
   63100   0.82220605   -6.5462736    4032.3462           10 
   63200   0.83049096   -6.5606812    4039.4003           18 
   63300   0.84811035   -6.5587058     4041.667           13 
   63400   0.83122655   -6.5715669    4025.9163           16 
   63500   0.83890875   -6.5477548    4027.3392           13 
   63600   0.85083304   -6.5637803    4031.1024           14 
   63700   0.83413703   -6.5738312    4034.6806           14 
   63800   0.85806248   -6.5832271    4045.4947           13 
   63900   0.84374091   -6.5395636    4043.7359           12 
   64000   0.83442822   -6.5705818    4039.8911           10 
   64100   0.83088188   -6.5541613    4045.4674            7 
   64200   0.83288818   -6.5459887    4048.9451            8 
   64300   0.82384464   -6.5770387    4036.1467            9 
   64400   0.83684169   -6.5838766    4044.2389            9 
   64500   0.83632097   -6.5504375    4041.1936            9 
   64600   0.84185001   -6.5763655    4029.5528           13 
   64700   0.82590724   -6.5662966    4032.1697           10 
   64800   0.83323415   -6.5571096    4030.9605           10 
   64900   0.82572785   -6.5681216    4034.4834           12 
   65000   0.83108827   -6.5519296    4037.9925           15 
   65100   0.84908302   -6.5624448     4051.987            6 
   65200    0.8393534   -6.5717864    4042.3276            8 
   65300   0.83290796   -6.5599461    4032.5061           14 
   65400    0.8549527   -6.5508751    4040.3288            6 
   65500   0.85380098   -6.5576326    4025.7162           20 
   65600   0.83687793   -6.5625815    4028.3518           12 
   65700   0.83733731   -6.5555524    4032.5392           12 
   65800   0.84446096   -6.5421187    4035.6215           16 
   65900   0.85340591   -6.5318735    4025.9436           20 
   66000   0.84621541   -6.5652359    4020.3487            8 
   66100   0.84834973   -6.5714058    4038.5027            7 
   66200   0.85114779   -6.5414872    4041.6686           12 
   66300   0.84276575    -6.568529    4040.5546            9 
   66400    0.8301461   -6.5739039    4038.9064           14 
   66500   0.85283305    -6.571022    4038.4484            7 
   66600   0.81074855   -6.5556302    4041.2904            8 
   66700   0.84796829   -6.5860628     4039.936           10 
   66800   0.82073914   -6.5705578    4040.1796           14 
   66900   0.85377264   -6.5807788    4042.7782           12 
   67000   0.83009921   -6.5621638    4028.8319           12 
   67100   0.84277471   -6.5713222    4023.3971            6 
   67200   0.85774893   -6.5666715    4028.1467           15 
   67300   0.84858304   -6.5781364    4026.4338           15 
   67400   0.84061005   -6.5916198    4020.9381           14 
   67500   0.85458263   -6.5858417    4028.2311           19 
   67600   0.84846417   -6.5763374    4026.1076           16 
   67700    0.8251939   -6.5614163    4020.4731           14 
   67800   0.84117313    -6.557489    4030.2196           19 
   67900   0.83564899   -6.5627981    4037.7911           11 
   68000   0.81871935   -6.5723491    4041.9871           12 
   68100   0.84751494   -6.5781465    4050.6652            8 
   68200   0.84186083   -6.5948813    4045.2119           14 
   68300   0.82746098    -6.595482    4028.8904           12 
   68400   0.85227259   -6.6005932    4026.0697           19 
   68500   0.83415184    -6.571651    4030.1735           11 
   68600   0.83625718   -6.5647213    4030.9786           10 
   68700   0.86285969   -6.5805782    4020.3538           13 
   68800   0.84134291    -6.601606    4024.5392           13 
   68900   0.82902409   -6.5968246    4035.0244           14 
   69000   0.85330348   -6.5960423    4042.5321           11 
   69100   0.83763293   -6.6059698     4038.244           10 
   69200   0.82753087   -6.5678547     4031.948           11 
   69300   0.84243569   -6.5725556      4030.23            8 
   69400   0.82803341   -6.5692363    4031.4756           19 
   69500   0.85074407   -6.5630839    4036.6271           15 
   69600   0.84548168   -6.5955715    4035.0153           17 
   69700   0.83633106   -6.5732852    4042.3542           17 
   69800   0.84750707   -6.5627358    4042.5159           12 
   69900   0.83880208   -6.5802733    4031.6014           10 
   70000   0.81087087   -6.5374078    4033.3133            7 
   70100   0.83549485   -6.5660058    4042.5654           16 
   70200   0.83331509   -6.5776902    4027.8154           12 
   70300   0.84929127   -6.6016194    4018.3475           10 
   70400   0.84382699   -6.5418462    4025.0887           15 
   70500   0.85336189   -6.5975692    4038.9363           28 
   70600   0.84022399   -6.5943745    4031.2087           20 
   70700   0.82126797   -6.5883493    4032.5676           11 
   70800    0.8294369   -6.6056304     4036.378           14 
   70900   0.84188624    -6.564281    4042.3977           16 
   71000   0.84865079   -6.5840718    4037.1346           20 
   71100   0.83583641    -6.597128    4027.7519           15 
   71200   0.83229324   -6.5459013    4033.5362           11 
   71300   0.84297303   -6.5604515    4032.3841           22 
   71400   0.85686729   -6.5692211    4029.1734           20 
   71500   0.85421079   -6.5152618    4026.6313           18 
   71600   0.84715963   -6.5415123    4026.8169           12 
   71700   0.83910911    -6.561963    4034.4583           21 
   71800   0.82619696   -6.5876886    4034.3071           17 
   71900   0.84382131   -6.5690383    4029.3627           16 
   72000   0.84762592   -6.5601456    4032.1086           12 
   72100   0.85711568   -6.5420173    4041.5993           19 
   72200   0.83109227   -6.5417317    4048.1881           11 
   72300   0.83164492   -6.5383279    4046.0302           12 
   72400   0.82768414   -6.5629652    4049.8375           20 
   72500   0.85018557   -6.5724389    4039.1826           10 
   72600   0.82615846   -6.5557471    4037.8444           11 
   72700   0.82993165   -6.5444131    4034.2862           19 
   72800   0.84288736   -6.5787265     4042.665            8 
   72900   0.81689969   -6.5665604    4030.9484            9 
   73000   0.84288597    -6.560487    4030.7054            7 
   73100   0.83995185   -6.5664249     4031.472           26 
   73200   0.84881593   -6.5640403    4028.8071           29 
   73300     0.851617    -6.527252    4038.2773           14 
   73400   0.83634908   -6.5520126    4041.8589           10 
   73500   0.83615623   -6.5788519    4039.1337            6 
   73600    0.8180299   -6.5856411    4031.2998            9 
   73700   0.84300457   -6.5714307    4031.1187           12 
   73800   0.83431975    -6.555031    4029.6409           12 
   73900   0.83484644   -6.5911269    4027.3106           15 
   74000   0.84849796   -6.5587651    4020.5224           10 
   74100   0.86192657   -6.5711319    4018.9616           10 
   74200   0.84033615    -6.565324    4025.7989           16 
   74300   0.85524806   -6.5971153    4035.6025           12 
   74400   0.82800814   -6.5883112    4035.6996           11 
   74500   0.83993224    -6.586784    4030.8865            9 
   74600    0.8314216   -6.5596218    4036.4407           24 
   74700   0.83982828   -6.5810224    4033.1616           12 
   74800   0.83624687    -6.589488    4030.7383           20 
   74900   0.85135524   -6.5764604    4027.8065           20 
   75000   0.84301002   -6.5540291    4028.3943           14 
   75100   0.82696511   -6.5441425    4013.7319            8 
   75200   0.84019052   -6.5812446      4018.78           18 
   75300    0.8486001   -6.5564038    4036.7119           18 
   75400   0.83840946   -6.5548635    4025.5478           24 
   75500   0.83478096   -6.5747849     4024.957           15 
   75600   0.84095325   -6.5764899    4037.3018           22 
   75700   0.84385422   -6.5653911    4045.6503           12 
   75800   0.84525885   -6.6001643    4040.2799           10 
   75900   0.82376904   -6.5808463    4027.5204           11 
   76000   0.82627532   -6.5722234    4028.2838           12 
   76100   0.84423875   -6.5839088    4037.8728           13 
   76200   0.82085855   -6.5926581    4036.8289           15 
   76300   0.83302367   -6.5898558    4034.3085           19 
   76400   0.84274546   -6.5695565     4035.924           16 
   76500   0.84929821    -6.558225    4039.4009           11 
   76600   0.83678283   -6.5651473    4033.1227           12 
   76700   0.83433205   -6.5711844    4036.4312           10 
   76800   0.83541684   -6.5393035    4028.7882           14 
   76900    0.8646729   -6.5553775    4033.3912           16 
   77000   0.84169838   -6.5696557    4021.9582           13 
   77100   0.84031731   -6.5743838    4026.5565            5 
   77200   0.84918284   -6.5459106    4036.1671            9 
   77300   0.83172979    -6.569537    4040.6104            6 
   77400   0.83173444   -6.5557958    4045.2852           10 
   77500   0.85507528   -6.5506365    4057.7641            9 
   77600   0.84131476   -6.5623095    4043.1142           23 
   77700   0.81312676   -6.5319336    4030.5127           15 
   77800    0.8383182   -6.5790196    4034.0597           21 
   77900   0.83438568   -6.5713449    4035.3204           36 
   78000   0.84222681   -6.5711512    4047.4755           10 
   78100   0.82082752   -6.5826404    4032.4101           14 
   78200   0.84882903   -6.5685078    4033.6143            9 
   78300   0.85380151   -6.5651384    4025.4396            9 
   78400   0.83358663    -6.569459     4018.989           11 
   78500   0.84971595   -6.5655321    4021.7561            9 
   78600   0.84821469   -6.5956646    4022.1884            7 
   78700   0.83565421   -6.5858878    4023.4135            7 
   78800   0.85256868   -6.5795547     4028.384            7 
   78900   0.83426093   -6.5613682     4041.197            7 
   79000   0.82619094   -6.5483825    4054.8346           11 
   79100   0.82911027   -6.5757748    4041.9597            8 
   79200   0.83810605   -6.5899355    4036.5372            8 
   79300   0.83413802    -6.526033    4035.1653           16 
   79400   0.85576964   -6.5708323    4031.0294           15 
   79500   0.82916163   -6.5434959    4033.5421            7 
   79600   0.83943912   -6.5745841    4038.8494            6 
   79700    0.8231068   -6.5759258    4044.9679            7 
   79800   0.83089297   -6.5572478    4038.9643           14 
   79900   0.85556219   -6.5801842    4038.5778            8 
   80000   0.82616793   -6.5641963    4038.2943           12 
   80100   0.84381377   -6.5764044    4039.4703           11 
   80200   0.82515311   -6.5319493    4026.1335           16 
   80300   0.82494524   -6.5685959    4026.4953           13 
   80400   0.84858016   -6.5885436    4032.6874           19 
   80500   0.82120409    -6.571338    4032.1643           26 
   80600   0.85082198   -6.5751205      4033.76           19 
   80700   0.84618834   -6.5787303    4026.4878           13 
   80800   0.82908059   -6.5805457    4021.5518           15 
   80900   0.83355233   -6.5466069    4030.2465           16 
   81000   0.83602898   -6.5675999     4038.691           17 
   81100   0.85265597   -6.5811229    4042.4176           16 
   81200     0.838145   -6.5416452    4048.0106           17 
   81300    0.8475901   -6.5548034    4036.5752           18 
   81400   0.83104124   -6.5711714    4038.3703           15 
   81500    0.8352144   -6.5646563    4035.7039           27 
   81600   0.83525946   -6.5739477    4037.4101           29 
   81700   0.84476139   -6.5451525    4038.9996           11 
   81800   0.86024966   -6.5547244     4033.773           21 
   81900   0.84009814    -6.559698     4025.102           29 
   82000   0.83263575   -6.5677136    4028.2761           17 
   82100   0.84372615   -6.5679822    4042.8419           13 
   82200   0.84738267   -6.5492848    4044.7187           17 
   82300    0.8327698   -6.5604591    4045.5053            7 
   82400   0.85685423   -6.5502971    4052.9954           13 
   82500   0.84083833   -6.5595883    4039.5553            6 
   82600   0.83479148   -6.5425439     4035.689           15 
   82700   0.86179402   -6.5519624    4046.5934           10 
   82800   0.84470857   -6.5722116    4029.3611           21 
   82900   0.83429144   -6.5510633    4025.9414           10 
   83000    0.8610134   -6.5700926    4030.1783           19 
   83100   0.85304524   -6.6009998    4016.4685           23 
   83200   0.84495926   -6.5890459     4017.437           11 
   83300    0.8474533   -6.5557662    4033.6307           16 
   83400   0.83335347   -6.5316207    4032.0214           10 
   83500   0.85114757   -6.5923295    4035.7003           16 
   83600   0.84022414   -6.5717771    4031.2222            9 
   83700   0.85353818    -6.558213    4036.5902           26 
   83800   0.83999585   -6.5846365    4029.2162           19 
   83900   0.84258221   -6.5565269    4030.9726           28 
   84000    0.8450537   -6.5868401    4045.6095           25 
   84100   0.83233446   -6.5641804     4037.216           39 
   84200   0.87400811   -6.5832377    4036.9864           21 
   84300   0.84990922   -6.5803127    4035.3803           18 
   84400   0.81926561   -6.5463072    4028.6213           20 
   84500   0.85410753   -6.5573606    4035.0744           22 
   84600   0.82679242   -6.5544954    4029.3204           12 
   84700   0.84761685   -6.5711287    4034.8362           19 
   84800   0.85546796   -6.5639169    4039.3707           10 
   84900   0.85745174    -6.546478    4042.4699            8 
   85000   0.82671558   -6.5455574    4033.8541            9 
   85100   0.82428789   -6.5791975    4042.3798           10 
   85200   0.84964198   -6.5758849    4040.2394           10 
   85300   0.84643373   -6.5713351    4037.9115           11 
   85400   0.82389439   -6.5635868    4024.6299           14 
   85500   0.84604354   -6.5754531    4030.1559            6 
   85600   0.85013345   -6.5588915    4038.4603           19 
   85700   0.83943802   -6.5705707    4028.3348           15 
   85800   0.82724677   -6.5454101    4024.6415           18 
   85900   0.85067758   -6.5578312    4029.5148           29 
   86000   0.85642223   -6.5374021    4036.5013           20 
   86100   0.87389781   -6.5536548    4031.1939           26 
   86200    0.8593196   -6.5834242    4027.8534           20 
   86300   0.83767277   -6.5815615    4024.1591           18 
   86400   0.84711221    -6.553011    4037.4547           13 
   86500    0.8510467    -6.557816    4035.4797           13 
   86600   0.83436281   -6.5580882    4021.4811           10 
   86700   0.85448134   -6.5732508     4023.154           20 
   86800   0.86650631   -6.5721161    4037.8424           15 
   86900   0.83682798   -6.5427988    4044.0818           11 
   87000   0.83618944    -6.532136    4046.3729           16 
   87100   0.83605505   -6.5828266    4040.7889            9 
   87200   0.83063637   -6.5715808    4039.6051           20 
   87300   0.84370413   -6.5590801    4040.0085           11 
   87400   0.82328847   -6.5538768    4034.9145           15 
   87500    0.8344179   -6.5669871    4026.6506           11 
   87600   0.86468077    -6.566464    4039.8783            5 
   87700   0.84814178   -6.5536058    4041.7725            7 
   87800    0.8321886   -6.5699024    4033.9683            6 
   87900   0.84137378    -6.579406    4022.5795           12 
   88000   0.84300445   -6.5802002    4004.4223            8 
   88100   0.83826649   -6.5572144    4013.0507           22 
   88200   0.86042128   -6.5716375    4022.1326            7 
   88300   0.83407796    -6.550314    4026.4544            7 
   88400   0.84932509   -6.5705609    4034.0468           11 
   88500    0.8361064   -6.5806482    4030.4962           14 
   88600   0.84507371   -6.5712427    4027.8168            5 
   88700   0.85008673   -6.5562438    4023.8505            7 
   88800   0.84170681   -6.5431117    4027.1828            7 
   88900   0.83388156   -6.5570976    4031.8415            8 
   89000   0.84242816   -6.5715897    4036.2579           14 
   89100   0.85140585   -6.5467197    4049.4704           17 
   89200   0.82778374   -6.5464431    4035.5113           21 
   89300   0.84539277   -6.5754746     4029.988           35 
   89400    0.8404778   -6.5730547    4035.4368           22 
   89500   0.85633373   -6.5467548    4036.4399           13 
   89600   0.85190606   -6.5585646    4026.9402           28 
   89700    0.8342825   -6.5706832     4023.849           14 
   89800   0.84323436   -6.5775822    4034.8373           13 
   89900   0.84077954   -6.5844743    4042.3897           19 
   90000   0.82268936   -6.5937666    4035.3224           22 
   90100    0.8526927   -6.5935321     4035.144           14 
   90200   0.84053443    -6.571675    4033.8791           17 
   90300   0.81673148   -6.5767912    4035.0148           16 
   90400   0.84162838   -6.5774142    4048.3598           17 
   90500   0.83271577   -6.5392587    4033.3491           12 
   90600   0.83697001   -6.5973383      4025.44           13 
   90700   0.83243396   -6.5659413    4027.6635           13 
   90800   0.85650282   -6.5905207     4031.522           10 
   90900   0.81893189   -6.5705815    4034.2904           10 
   91000   0.83759481    -6.564826    4041.6393           20 
   91100   0.83324565   -6.5375218    4041.7674            6 
   91200   0.83568905   -6.5246055    4042.0445           31 
   91300   0.84286734   -6.5809672     4038.687           12 
   91400   0.82679311   -6.5421099    4037.1578            9 
   91500   0.85280223   -6.5554365    4033.4105           13 
   91600   0.82972268   -6.5623814     4031.653            7 
   91700    0.8604341   -6.5876076    4041.0613            7 
   91800   0.85665063   -6.5734001    4040.5124           10 
   91900   0.83707937   -6.5770578    4030.1248           10 
   92000   0.84902289   -6.5622115    4022.8454            8 
   92100   0.82435347    -6.574555    4028.1697           10 
   92200   0.83309159   -6.5457914    4034.3985           22 
   92300   0.83104778   -6.5389703    4040.8439           14 
   92400   0.85391686    -6.588262    4040.2199           12 
   92500   0.83008806   -6.5943331    4038.6292            7 
   92600   0.83994147   -6.5746664    4041.8937           13 
   92700    0.8420579    -6.578987     4048.781           20 
   92800   0.83620797   -6.5583505    4038.9047           18 
   92900   0.82242163   -6.5730102    4029.5891           19 
   93000   0.84818224   -6.5692377    4032.0507           16 
   93100   0.84096173   -6.5534229    4036.2363           24 
   93200   0.82719796   -6.5742916    4026.1914           13 
   93300   0.83800496   -6.5804966    4025.8033           16 
   93400   0.84583328   -6.5590488    4044.5652           12 
   93500   0.83535925   -6.5436757    4045.1525           12 
   93600   0.83801804   -6.5762398    4036.5831           11 
   93700   0.83567201   -6.5896495    4026.9819           12 
   93800   0.82638531   -6.5441787    4039.9805            7 
   93900   0.84403276    -6.560396    4037.6496           16 
   94000   0.82286135   -6.5564881    4033.8006           11 
   94100   0.86091421   -6.5520488    4036.3368           23 
   94200   0.84814607   -6.5574177    4018.8489            8 
   94300   0.84019439   -6.5452503    4019.5014           10 
   94400   0.83570239   -6.5586949    4028.2013           14 
   94500   0.85958961   -6.5606898    4036.2877           10 
   94600   0.86134267   -6.5209732    4045.1943           12 
   94700   0.85630044   -6.5474699    4040.0692           13 
   94800   0.82097551   -6.5335099    4046.5848           10 
   94900   0.84430954   -6.5461883    4040.5641            7 
   95000   0.83830581    -6.565593    4034.9266            8 
   95100   0.85684115   -6.5351847    4034.6216            8 
   95200   0.84851772   -6.5293525    4033.6611           16 
   95300   0.84359298   -6.5524926    4018.4977           24 
   95400    0.8306024   -6.5534531    4029.3832           26 
   95500    0.8464494   -6.5773623    4048.9275           19 
   95600   0.83729763   -6.5462033    4047.3652           18 
   95700   0.83663405    -6.540904    4037.6601           26 
   95800   0.83820649   -6.5641097    4041.1936           11 
   95900   0.82247213   -6.5683176     4040.471           21 
   96000   0.84343368   -6.5506523    4041.8425           15 
   96100   0.84039325   -6.5576379    4035.3462           28 
   96200   0.84359981   -6.5754785    4032.1897           11 
   96300   0.83483922   -6.5617627    4015.6533           15 
   96400   0.83775385   -6.5796987    4023.2954           19 
   96500   0.85958687   -6.5791954    4038.6252           10 
   96600   0.83088061   -6.5724482    4039.4347           15 
   96700   0.82638406   -6.5710746    4036.0949           19 
   96800   0.83709729   -6.5749375    4036.7828           13 
   96900   0.84533713   -6.5868401    4053.9034           12 
   97000   0.83881607   -6.6118766    4030.5228            9 
   97100   0.82508251   -6.5700457    4029.3163           12 
   97200   0.85145193   -6.5740493    4027.2296           15 
   97300    0.8183753   -6.5518593    4024.1628           14 
   97400   0.83634632    -6.566985    4026.2642           10 
   97500   0.85286909   -6.5602218    4037.6959           12 
   97600   0.84078778   -6.5522392    4038.3892           11 
   97700    0.8336882   -6.5913679    4035.1886           10 
   97800   0.81264586   -6.5619752    4036.1116            7 
   97900   0.83731954   -6.5726076    4046.7923           25 
   98000   0.83849914   -6.6051398    4035.3518           17 
   98100   0.83383337   -6.6084619    4029.7731           11 
   98200   0.84459686   -6.5755007    4028.6891           14 
   98300   0.83226233   -6.5861115    4017.5836           32 
   98400   0.84628151   -6.6007559    4017.3978           18 
   98500   0.83665814   -6.5719737    4020.5341           17 
   98600     0.855853   -6.5617014    4034.2203           11 
   98700   0.82821042   -6.5698573    4034.9214           17 
   98800   0.83256643   -6.5876493    4036.6754           13 
   98900   0.84879851   -6.5946904    4042.0299           10 
   99000    0.8305457   -6.5841011    4027.0529           15 
   99100    0.8257213   -6.5789002    4024.5469            9 
   99200    0.8378983    -6.553466    4034.9475            6 
   99300   0.83564187     -6.56682    4034.5251           10 
   99400   0.83426661   -6.6048485    4035.7074           25 
   99500   0.82449509    -6.599695     4038.594           14 
   99600   0.83080373    -6.563595    4043.0271           24 
   99700   0.84592505   -6.5684334    4037.3165           19 
   99800   0.82604972   -6.5735461    4021.5143           34 
   99900    0.8373949   -6.5748053    4039.4482           22 
  100000   0.83133445   -6.5815658    4045.3909           24 
  100100   0.84298027    -6.585084    4036.2478           18 
  100200   0.83396108   -6.5915593    4023.5392           17 
  100300   0.85914888   -6.5693401    4027.4201           19 
  100400   0.85105638   -6.5739935    4019.2336           26 
  100500    0.8278096   -6.5720857    4019.7434           17 
  100600   0.84833337   -6.6045665    4026.9353           13 
  100700   0.85666255   -6.6078477    4028.3581           21 
  100800   0.84565184   -6.5664485    4024.8346           16 
  100900   0.82045908    -6.570578     4012.576           25 
  101000   0.84151682   -6.5765405    4024.7469           23 
  101100   0.83925684   -6.5664309    4037.1879           21 
  101200   0.86328457    -6.565216    4054.8216           22 
  101300   0.83130114   -6.5495231     4045.105           11 
  101400   0.84646638   -6.5571215    4029.9142           13 
  101500    0.8290112    -6.568914    4025.9436           16 
  101600   0.84731225   -6.5625418    4033.9116            7 
  101700   0.84211136   -6.5825928    4026.4682           14 
  101800   0.84492639   -6.6003308    4030.9727           11 
  101900   0.84150158    -6.561784    4039.7483           19 
  102000   0.83349004    -6.574556    4047.6024           21 
  102100   0.84912488   -6.5896144    4043.7908            9 
  102200   0.83969774   -6.5878797    4037.1736           17 
  102300   0.84999106    -6.571131    4030.9521            8 
  102400   0.83570839    -6.556775    4028.1168           13 
  102500   0.85877512   -6.5541224    4042.0959            8 
  102600   0.84320145   -6.5669752    4033.0939           19 
  102700   0.83820851   -6.5421097      4029.86           18 
  102800   0.84252253   -6.5669116    4032.9737           16 
  102900   0.85904317   -6.5943138    4025.8305           11 
  103000   0.85704882   -6.5838023     4019.852           16 
  103100   0.83310953   -6.5886286    4018.6039           20 
  103200   0.84568426   -6.5629493    4033.0748           16 
  103300   0.83194326   -6.5559666    4032.3792           16 
  103400   0.84663335   -6.5914034    4029.4961           17 
  103500   0.83707917   -6.5463831     4031.775           22 
  103600   0.84725515   -6.5475814    4019.6812           24 
  103700   0.84013211   -6.5753916    4015.4668           19 
  103800    0.8476343   -6.5804255    4028.6444           19 
  103900   0.83718776    -6.549607    4034.0872            9 
  104000   0.85326556   -6.5737915    4029.1569           15 
Loop time of 161.731 on 64 procs for 100000 steps with 4000 atoms

Performance: 106843.983 tau/day, 618.310 timesteps/s
99.9% CPU use with 64 MPI tasks x no OpenMP threads

MPI task timing breakdown:
Section |  min time  |  avg time  |  max time  |%varavg| %total
---------------------------------------------------------------
Pair    | 7.604      | 7.8387     | 8.2876     |   5.7 |  4.85
Neigh   | 1.0101     | 1.029      | 1.0458     |   0.8 |  0.64
Comm    | 15.253     | 20.372     | 33.939     | 103.8 | 12.60
Output  | 5.1436     | 5.1464     | 5.1632     |   0.1 |  3.18
Modify  | 91.91      | 119.95     | 131.41     |  92.6 | 74.16
Other   |            | 7.397      |            |       |  4.57

Nlocal:        62.5000 ave          71 max          55 min
Histogram: 2 1 8 15 10 12 9 4 2 1
Nghost:        1473.75 ave        1492 max        1453 min
Histogram: 2 1 9 8 6 11 12 8 5 2
Neighs:        7117.61 ave        8292 max        6285 min
Histogram: 2 3 14 13 11 12 5 3 0 1
FullNghs:      14235.8 ave       16246 max       12451 min
Histogram: 2 1 9 15 10 12 4 8 2 1

Total # of neighbors = 911089
Ave neighs/atom = 227.77225
Neighbor list builds = 5482
Dangerous builds = 0

#clear
#
#next RN
#
#jump SELF
Total wall time: 0:02:42
