
units lj                  # Use reduced LJ style units
atom_style atomic         # Uncharged point particles
atom_modify map hash      # Needed for indexing of clusters etc
                          # Used to be able to find where atoms are in relation to each other.

# Define a lattice with which to populate the simulation cell. With units
# set to 'lj' the second argument to the lattice command is the reduced
# density rho* and the spacings are multiples of that required to acheive
# that density. Also define a simulation cell called 'box' in lattice units
# and fill it with atoms. Here we're creating a box which is ten lattice
# constants in each direction.
lattice fcc 1.0 spacing 1 1 1                 # All equal sizes - gives the right reduced density.
Lattice spacing in x,y,z = 1.5874011 1.5874011 1.5874011

region box block 0 10 0 10 0 10 units lattice # Defines a region, "box", in lattice units
create_box 1 box                              # Creates a simulation box as specified above,
Created orthogonal box = (0.0000000 0.0000000 0.0000000) to (15.874011 15.874011 15.874011)
  2 by 4 by 4 MPI processor grid
                                              # with one type of atom
create_atoms 1 box                            # Creates particles on lattice points
Created 4000 atoms
  using lattice units in orthogonal box = (0.0000000 0.0000000 0.0000000) to (15.874011 15.874011 15.874011)
  create_atoms CPU = 0.003 seconds


# Set the mass of the first (and only) atom type.
mass 1 1.0

# Lennard-Jones interactions between particles, 3.5 sigma cut-off. Apply
# long range tail corrections to energy and pressure and set all coefficients
# to unity since we work in reduced units here. Note that this doesn't shift
# the potential such that it goes to zero at the cutoff. That would require
# pair_modify('shift', 'yes').
pair_style lj/cut  3.5      # non-GPU version
pair_modify tail  yes
pair_coeff 1  1  1.0  1.0   # Intearaction between 1 and 1 set with epsilon = 1 and sigma = 1

write_data data.*
System init for write_data ...
Neighbor list info ...
  update every 1 steps, delay 10 steps, check yes
  max neighbors/atom: 2000, page size: 100000
  master list distance cutoff = 3.8
  ghost atom cutoff = 3.8
  binsize = 1.9, bins = 9 9 9
  1 neighbor lists, perpetual/occasional/extra = 1 0 0
  (1) pair lj/cut, perpetual
      attributes: half, newton on
      pair build: half/bin/atomonly/newton
      stencil: half/bin/3d
      bin: standard

#############################
#   M E L T   S Y S T E M   #
#############################

velocity all create 2.4 6583654 mom yes dist gaussian # Assign velocities
                                                    # Temperature 2.4, random number seed, zero linear momentum
						                                                        # Gaussian distribution

timestep 0.002   # simulation timestep
thermo 100       # output thermodynamic data every 100 steps

# Define a fix  in this case with index 1 applied to all
# particles in the simulation. This fix is for simulations
# in the anisotropic NPT ensemble. Note that we use the MTK
# correction.
fix 1 all npt temp 2.4 2.4 0.1 iso 5.68 5.68 0.5 mtk yes tchain 5 pchain 5 # Use NPT ensemble
                                                                         # Set temperature and pressure and damping
                                                                         # Numbers of thermostats in chain and in barostat
run 1000         # run for 10000 steps
Per MPI rank memory allocation (min/avg/max) = 3.660 | 3.660 | 3.660 Mbytes
Step Temp E_pair E_mol TotEng Press Volume 
       0          2.4   -8.3859253            0   -4.7868253   -2.2405722         4000 
     100    1.2691967   -6.5422289            0   -4.6389098    5.3378653    4090.7551 
     200    1.4787625   -6.3158233            0   -4.0982341    6.0374862    4137.2558 
     300    1.5708342   -6.0123056            0   -3.6566434    5.8269752    4273.6084 
     400    1.6935755   -5.7191311            0    -3.179403    5.9540602    4395.1747 
     500    1.7875886   -5.4095267            0   -2.7288141    6.0322401    4536.9038 
     600    1.8873111   -5.1521313            0   -2.3218724    5.7297832     4702.884 
     700    2.0258918   -4.9144312            0   -1.8763532    5.9082203    4824.8495 
     800    2.1522544   -4.7292823            0   -1.5017078    5.7781683    4963.9277 
     900     2.239714   -4.5446635            0   -1.1859323    5.7477122    5090.6319 
    1000    2.3765823   -4.4738755            0  -0.90989327    5.6796077     5154.488 
Loop time of 0.25744 on 32 procs for 1000 steps with 4000 atoms

Performance: 671223.318 tau/day, 3884.394 timesteps/s
99.4% CPU use with 32 MPI tasks x no OpenMP threads

MPI task timing breakdown:
Section |  min time  |  avg time  |  max time  |%varavg| %total
---------------------------------------------------------------
Pair    | 0.13491    | 0.13943    | 0.14549    |   0.6 | 54.16
Neigh   | 0.025609   | 0.026407   | 0.027253   |   0.3 | 10.26
Comm    | 0.060733   | 0.06922    | 0.074938   |   1.2 | 26.89
Output  | 0.00020023 | 0.00020405 | 0.00025    |   0.0 |  0.08
Modify  | 0.018425   | 0.020243   | 0.0219     |   0.7 |  7.86
Other   |            | 0.001932   |            |       |  0.75

Nlocal:        125.000 ave         138 max         116 min
Histogram: 1 2 6 7 6 8 0 1 0 1
Nghost:        1666.91 ave        1703 max        1646 min
Histogram: 3 5 7 4 5 4 1 0 2 1
Neighs:        11088.0 ave       12468 max       10095 min
Histogram: 1 2 5 8 9 2 2 1 1 1

Total # of neighbors = 354817
Ave neighs/atom = 88.704250
Neighbor list builds = 86
Dangerous builds = 20

# Equilibrate just above the melting temperature to avoid step fn in T

fix 1 all npt temp 1.25 1.25 0.1 iso 5.68 5.68 0.5 mtk yes tchain 5 pchain 5
run 1000
Per MPI rank memory allocation (min/avg/max) = 3.661 | 3.661 | 3.661 Mbytes
Step Temp E_pair E_mol TotEng Press Volume 
    1000    2.3765823   -4.4738755            0  -0.90989327    5.6796077     5154.488 
    1100    1.9625951   -4.6989107            0   -1.7557541    5.6812496    4983.8841 
    1200    1.7289901   -4.9599136            0   -2.3670769    5.8142104    4790.1519 
    1300    1.5792657   -5.2249024            0   -2.8565961    5.6289859    4660.4039 
    1400    1.4517319   -5.4215948            0   -3.2445414    5.5197346    4561.4045 
    1500     1.364265   -5.5680033            0   -3.5221174    5.5958139    4483.3542 
    1600    1.3084699   -5.6759595            0   -3.7137453    5.6057769    4426.4503 
    1700    1.2550401   -5.7394736            0   -3.8573841    5.7381181    4381.4433 
    1800    1.2507956   -5.8140506            0   -3.9383263    5.7576039    4349.7766 
    1900    1.2205858   -5.8218536            0   -3.9914327    5.7234503    4347.2659 
    2000    1.2599896   -5.8219529            0    -3.932441    5.7139167    4350.4536 
Loop time of 0.249411 on 32 procs for 1000 steps with 4000 atoms

Performance: 692830.956 tau/day, 4009.438 timesteps/s
99.7% CPU use with 32 MPI tasks x no OpenMP threads

MPI task timing breakdown:
Section |  min time  |  avg time  |  max time  |%varavg| %total
---------------------------------------------------------------
Pair    | 0.13389    | 0.13836    | 0.14338    |   0.6 | 55.47
Neigh   | 0.022701   | 0.023173   | 0.024196   |   0.2 |  9.29
Comm    | 0.057947   | 0.066316   | 0.071066   |   1.2 | 26.59
Output  | 0.00019753 | 0.00020435 | 0.00024486 |   0.0 |  0.08
Modify  | 0.017144   | 0.019115   | 0.021488   |   0.9 |  7.66
Other   |            | 0.002246   |            |       |  0.90

Nlocal:        125.000 ave         130 max         115 min
Histogram: 1 0 0 2 4 3 6 7 4 5
Nghost:        1853.16 ave        1868 max        1832 min
Histogram: 1 0 2 6 2 5 3 6 3 4
Neighs:        13129.4 ave       13744 max       12058 min
Histogram: 1 0 2 3 3 2 5 8 5 3

Total # of neighbors = 420140
Ave neighs/atom = 105.03500
Neighbor list builds = 75
Dangerous builds = 9


# Small amount of linear quench

fix 1 all npt temp 1.25 ${temp} 0.1 iso 5.68 5.68 0.5 mtk yes tchain 5 pchain 5
fix 1 all npt temp 1.25 0.59 0.1 iso 5.68 5.68 0.5 mtk yes tchain 5 pchain 5
run 2000
Per MPI rank memory allocation (min/avg/max) = 3.661 | 3.662 | 3.662 Mbytes
Step Temp E_pair E_mol TotEng Press Volume 
    2000    1.2599896   -5.8219529            0    -3.932441    5.7139167    4350.4536 
    2100    1.2440084   -5.8595521            0    -3.994006    5.6924163    4334.5177 
    2200    1.1882966   -5.8708295            0   -4.0888302    5.6532854    4325.8762 
    2300    1.1951989   -5.9400387            0   -4.1476885    5.7010417     4295.531 
    2400    1.1643689   -5.9785485            0   -4.2324317    5.7815899    4272.1012 
    2500    1.1378176    -6.060747            0   -4.3544473      5.48977    4260.7899 
    2600    1.0885948   -6.0903584            0   -4.4578744    5.5019966    4243.1618 
    2700    1.0717834   -6.1338468            0   -4.5265737    5.8348826    4199.8483 
    2800    1.0275674   -6.1796258            0   -4.6386601    5.7566803    4185.4599 
    2900   0.98937484   -6.2279609            0   -4.7442696    5.8126912    4159.2388 
    3000   0.96706145   -6.2897838            0   -4.8395543    5.7551172    4138.4494 
    3100   0.91607059   -6.3252467            0   -4.9514843    5.7926259    4118.8859 
    3200   0.89017494   -6.3760219            0   -5.0410933    5.8280431    4097.8196 
    3300   0.86360512   -6.4121914            0   -5.1171076    6.0087024    4069.5943 
    3400   0.83420387   -6.4758087            0   -5.2248158    5.8419582    4055.7263 
    3500   0.79594882    -6.540564            0   -5.3469392    5.5543554    4049.0997 
    3600   0.77591426   -6.6094202            0   -5.4458398    5.6013321    4022.6067 
    3700   0.73273704   -6.6475109            0   -5.5486801    5.6186825     4003.664 
    3800   0.71447384   -6.7115839            0   -5.6401411    5.6992995    3976.9159 
    3900   0.68542886   -6.7701466            0   -5.7422603    5.6837524    3955.7875 
    4000   0.64336703   -6.8195962            0   -5.8547869    5.6521873    3939.7624 
Loop time of 0.528558 on 32 procs for 2000 steps with 4000 atoms

Performance: 653854.831 tau/day, 3783.882 timesteps/s
99.7% CPU use with 32 MPI tasks x no OpenMP threads

MPI task timing breakdown:
Section |  min time  |  avg time  |  max time  |%varavg| %total
---------------------------------------------------------------
Pair    | 0.29161    | 0.30462    | 0.31339    |   0.9 | 57.63
Neigh   | 0.035795   | 0.037169   | 0.038536   |   0.3 |  7.03
Comm    | 0.12817    | 0.141      | 0.15716    |   1.5 | 26.68
Output  | 0.00041258 | 0.00041927 | 0.00050608 |   0.0 |  0.08
Modify  | 0.03554    | 0.039697   | 0.044075   |   1.2 |  7.51
Other   |            | 0.005659   |            |       |  1.07

Nlocal:        125.000 ave         132 max         116 min
Histogram: 1 0 1 3 4 10 6 2 4 1
Nghost:        1969.97 ave        1994 max        1951 min
Histogram: 2 3 5 3 5 7 4 1 0 2
Neighs:        14574.4 ave       15396 max       13389 min
Histogram: 1 0 1 2 8 7 2 5 4 2

Total # of neighbors = 466380
Ave neighs/atom = 116.59500
Neighbor list builds = 115
Dangerous builds = 0

#############################
# F R E E Z E  S Y S T E M  #
#############################

# Define solid atoms. This closely follows ten Wolde  Ruiz-Montero and Frenkel  Faraday Discuss  1996  104  93-110
# Compute components of the per-atom q6 vector
compute q6 all orientorder/atom degrees 1 6 components 6 nnn NULL cutoff 1.3 # compute the Q6 parameter.
                                                                             # Use all neighbours within 1.3 unit cell.

# get number of connections
compute coord_number all coord/atom orientorder q6 0.5

# An atom is solid if it has 8 or more connections (of a possible 14)
variable is_solid atom c_coord_number>=8
group solid dynamic all var is_solid    # Must be dynamic to update
dynamic group solid defined

# do clustering
compute cluster solid cluster/atom 1.3 # Create a cluster where all atoms within are solid and max 1.3 units from another member

# define chunks one chunk per cluster
compute clus_chunks solid chunk/atom c_cluster nchunk every compress yes  # Says which atoms are in which chunk

# count the size of each chunk
compute size_chunks solid property/chunk clus_chunks count


# Find the maximum entry in the vector of chunk sizes
variable max_n equal max(c_size_chunks)


# Thermo style which includes this variable
thermo_style custom step temp pe vol v_max_n

thermo ${N}  # Print the thermo information every 100 steps
thermo 100  

# Reset the npt fix at a lower temperature (below freezing)
fix 1  all npt temp  ${temp} ${temp}  0.1  iso  5.68  5.68  0.5  mtk yes tchain  5  pchain  5
fix 1  all npt temp  0.59 ${temp}  0.1  iso  5.68  5.68  0.5  mtk yes tchain  5  pchain  5
fix 1  all npt temp  0.59 0.59  0.1  iso  5.68  5.68  0.5  mtk yes tchain  5  pchain  5

dump dmp2 all dcd ${N} traj_${rand}.dcd
dump dmp2 all dcd 100 traj_${rand}.dcd
dump dmp2 all dcd 100 traj_462431.dcd


# fix rnuntil all halt ${N} v_max_n >= 3980 error soft message no   # Stop when solidified


run 100000 # 5000000  # Run for this many steps
Neighbor list info ...
  update every 1 steps, delay 10 steps, check yes
  max neighbors/atom: 2000, page size: 100000
  master list distance cutoff = 3.8
  ghost atom cutoff = 3.8
  binsize = 1.9, bins = 9 9 9
  4 neighbor lists, perpetual/occasional/extra = 1 3 0
  (1) pair lj/cut, perpetual
      attributes: half, newton on
      pair build: half/bin/atomonly/newton
      stencil: half/bin/3d
      bin: standard
  (2) compute orientorder/atom, occasional
      attributes: full, newton on
      pair build: full/bin/atomonly
      stencil: full/bin/3d
      bin: standard
  (3) compute coord/atom, occasional
      attributes: full, newton on
      pair build: full/bin/atomonly
      stencil: full/bin/3d
      bin: standard
  (4) compute cluster/atom, occasional
      attributes: full, newton on
      pair build: full/bin/atomonly
      stencil: full/bin/3d
      bin: standard
Per MPI rank memory allocation (min/avg/max) = 9.454 | 9.458 | 9.461 Mbytes
Step Temp PotEng Volume v_max_n 
    4000   0.64336703   -6.8195962    3939.7624           11 
    4100   0.61596107   -6.8430982    3917.2546           19 
    4200   0.59355208   -6.8802475    3911.7916           16 
    4300   0.59143203   -6.9064658    3908.1582           35 
    4400   0.58858132   -6.9100833    3890.6101           48 
    4500   0.59260406   -6.9412722    3903.4549           35 
    4600   0.56463869    -6.933415    3897.4138           46 
    4700   0.59407616   -6.9499251    3894.8734           33 
    4800   0.59647405   -6.9612514    3888.2222           58 
    4900   0.59432756    -6.974555    3886.9162           51 
    5000   0.59585742   -6.9605828    3878.8187           55 
    5100   0.57889794   -6.9797132    3881.1516           53 
    5200   0.59250317    -6.980652    3880.6682           47 
    5300   0.58212021   -6.9882498    3891.8482           41 
    5400   0.59457051   -6.9681938    3884.0018           53 
    5500    0.5872078   -6.9659087    3883.5575           33 
    5600   0.58569036   -6.9475991    3882.8317           33 
    5700   0.60177297   -6.9745366    3878.5084           35 
    5800   0.59775717   -6.9776461    3889.5984           17 
    5900   0.58408156   -6.9807842    3878.4706           33 
    6000   0.59853278   -6.9806528     3876.269           36 
    6100   0.58725722   -6.9773676    3884.5944           30 
    6200   0.58484087   -6.9811125     3882.561           34 
    6300   0.58558038   -6.9647433      3873.07           50 
    6400   0.58248833   -6.9660432    3880.4013           42 
    6500   0.58791439   -6.9866394    3888.2065           37 
    6600   0.57571615   -6.9795965    3873.0293           33 
    6700   0.58327405    -6.996837     3883.473           32 
    6800   0.58090264   -6.9778592    3880.1232           37 
    6900   0.58917385   -6.9963703    3888.6299           35 
    7000   0.59387302   -6.9839097    3864.8885           33 
    7100   0.60336714   -6.9999326    3874.5813           31 
    7200   0.58429906   -6.9735766    3889.1201           28 
    7300   0.59325351   -7.0044307    3869.3264           22 
    7400   0.58792672   -6.9840035     3870.681           52 
    7500   0.58994079   -6.9988506    3884.1252           57 
    7600   0.59532173   -6.9935942    3878.2637           51 
    7700     0.587212   -6.9856878    3869.7333           57 
    7800    0.5979984   -7.0080007    3879.8396           51 
    7900   0.59382294   -6.9949516    3871.2625           28 
    8000   0.58719368   -6.9993608    3878.2317           32 
    8100     0.595465   -7.0038181     3879.665           68 
    8200   0.59365095   -7.0153451    3872.7192           69 
    8300   0.59930155   -7.0002099    3870.2047           34 
    8400    0.5906518   -6.9934124    3870.8949           31 
    8500   0.57872609   -7.0236818    3872.2169           65 
    8600   0.57908265   -7.0296892     3869.971          116 
    8700   0.59533365   -7.0052517    3868.3912           42 
    8800   0.59168581   -6.9971353    3866.3539           41 
    8900   0.58262482   -7.0218209    3884.6572           64 
    9000   0.58198889   -7.0063757    3862.3072           68 
    9100    0.5920619   -6.9972559    3864.4009           68 
    9200   0.58934137   -7.0154059    3880.7434           73 
    9300   0.58255451    -7.026402    3867.1867           67 
    9400   0.58332871   -7.0010108    3864.0707           93 
    9500   0.59162161   -7.0173884    3876.5313           58 
    9600   0.59450515   -7.0209448    3866.9976           48 
    9700   0.59052628   -7.0365338    3860.5388           64 
    9800   0.59502788   -7.0266589    3885.0728           67 
    9900   0.57802281   -7.0057913    3868.7873           64 
   10000   0.60190897    -7.034301    3865.0963           91 
   10100    0.5925846   -7.0284513    3862.5329           90 
   10200   0.58335338   -7.0333316    3867.8842           93 
   10300   0.58693497   -7.0217846    3869.7588           85 
   10400   0.59437961   -7.0054353    3863.3776           79 
   10500   0.59460267    -7.003129    3875.1089           94 
   10600   0.58759288   -7.0195795    3871.2637           49 
   10700   0.58396878   -7.0122889    3869.0615           57 
   10800    0.5948426   -7.0066948    3868.3108           99 
   10900    0.5854877    -7.018748    3865.2128          101 
   11000   0.58313965   -7.0131639    3866.7997           83 
   11100   0.60195788   -7.0157527    3866.7186           96 
   11200   0.59252664   -7.0314939    3867.5043          151 
   11300   0.58129969   -7.0281129    3860.5533          171 
   11400   0.58856064   -7.0134801    3866.1415           91 
   11500   0.59389548   -7.0236247    3870.3101           89 
   11600   0.58385671   -7.0378937    3867.7843          116 
   11700    0.5768529   -7.0272735    3854.9999           97 
   11800   0.58857251   -7.0217346    3862.7178          162 
   11900   0.56789099   -7.0188107    3874.3197          106 
   12000   0.59866308   -7.0201304    3860.6663          142 
   12100   0.59422328   -7.0354218    3864.9808          124 
   12200   0.58864348   -7.0494419    3869.5087          227 
   12300   0.59504525   -7.0174442    3863.3501          152 
   12400   0.59292293   -7.0366446    3869.2768          133 
   12500   0.59681145    -7.026185    3864.5091          145 
   12600   0.59706934   -7.0219613    3861.8262          155 
   12700   0.59481909   -7.0297165    3862.2153          166 
   12800   0.58332425   -7.0292875    3866.7452          147 
   12900   0.59610864   -7.0228417    3860.5178          172 
   13000   0.59389408   -7.0245424    3867.3675          247 
   13100   0.57581142   -7.0456802    3866.1347          170 
   13200    0.5848497   -7.0236577    3861.5062          155 
   13300   0.57897326   -7.0203334    3870.9707          138 
   13400   0.58742588   -7.0311886    3872.8282          210 
   13500   0.58992399   -7.0363745    3857.3975          245 
   13600   0.60122617   -7.0337659    3866.1861          142 
   13700    0.5851689   -7.0323765    3868.8479          207 
   13800    0.5809388   -7.0364726    3857.9091          174 
   13900   0.59560645   -7.0411435    3873.8598          322 
   14000   0.58570746   -7.0335438     3863.521          238 
   14100   0.57983468   -7.0413874    3853.3199          320 
   14200   0.59269686   -7.0395096    3866.7904          141 
   14300   0.59331906   -7.0243055    3862.3819          179 
   14400   0.58147876   -7.0528623    3865.7257          342 
   14500   0.58771187   -7.0433242      3857.05          279 
   14600   0.59180167   -7.0540437    3870.7953          320 
   14700   0.57956051   -7.0339289    3864.2629          102 
   14800   0.58434467   -7.0567619    3863.8691          208 
   14900    0.5853415   -7.0468878    3848.3662          373 
   15000   0.59650394   -7.0384516    3864.5808          244 
   15100    0.5935809    -7.045147    3854.0351          414 
   15200   0.59778293   -7.0720839    3864.7413          236 
   15300   0.57282157   -7.0215397    3854.0803          170 
   15400   0.59223105   -7.0404919    3863.5537          257 
   15500   0.57529113   -7.0481836    3873.3983          254 
   15600   0.57493526   -7.0473413    3852.0754          345 
   15700   0.58843385   -7.0470519    3864.3546          366 
   15800   0.57291509   -7.0371046    3869.8438          351 
   15900    0.5778678   -7.0386927    3861.5544          468 
   16000   0.58944079   -7.0520349    3849.1453          491 
   16100   0.59200866   -7.0398952    3868.1376          446 
   16200   0.59299115   -7.0374998    3860.4411          179 
   16300   0.58472811   -7.0492426    3860.6374          326 
   16400   0.60062831   -7.0392739    3866.4868          377 
   16500   0.58902975   -7.0137094    3846.6838          216 
   16600   0.58969242   -7.0551257    3868.0503          215 
   16700   0.58582534   -7.0596984    3858.7548          239 
   16800   0.60355285   -7.0473086    3857.2558          202 
   16900   0.59176199   -7.0569322    3865.0351          174 
   17000   0.59342696   -7.0335788    3853.6425          196 
   17100   0.57385225   -7.0347087    3864.4388          366 
   17200   0.59357385   -7.0501947    3864.6987          357 
   17300   0.61020371   -7.0195753    3867.2254          185 
   17400   0.59675926   -7.0342917    3867.1779          203 
   17500   0.59075408   -7.0471329    3857.3564          226 
   17600   0.57917191    -7.029289    3861.9892          194 
   17700   0.58229871   -7.0351987    3867.7259          205 
   17800   0.57848002   -7.0250006    3849.2881          396 
   17900   0.59671108   -7.0370405    3868.0472          290 
   18000   0.59020713   -7.0467715    3864.2169          553 
   18100   0.58100137   -7.0500384    3851.1183          448 
   18200   0.57380205   -7.0528414    3854.4271          336 
   18300   0.58226246   -7.0489581    3864.2694          262 
   18400   0.58240298   -7.0344113    3859.4616          278 
   18500   0.59559721   -7.0286399    3859.8103          196 
   18600    0.5786558     -7.04827    3859.4616          269 
   18700   0.58653032   -7.0570633    3859.8035          259 
   18800   0.59376944   -7.0326413    3861.8266          537 
   18900   0.59157818   -7.0345997    3864.2781          561 
   19000   0.57395806   -7.0421527    3863.5193          507 
   19100   0.58531708   -7.0447064    3861.8684          517 
   19200   0.59824989   -7.0309177    3863.6563          512 
   19300   0.59784708   -7.0406596     3847.557          268 
   19400   0.58740871   -7.0571496    3866.3604          485 
   19500   0.60244523   -7.0572395    3852.9721          672 
   19600   0.58889778   -7.0556495    3846.8499          630 
   19700   0.58752239   -7.0505648    3862.9154          365 
   19800   0.59757711   -7.0479241    3865.6295          365 
   19900   0.58326326   -7.0473771    3861.1315          625 
   20000   0.59104825   -7.0487321    3862.9804          585 
   20100   0.58208075   -7.0467692    3859.8713          680 
   20200   0.58105753    -7.047017    3846.4301          370 
   20300   0.59014394   -7.0450971    3862.0346          716 
   20400   0.59291827   -7.0552034    3862.1101          644 
   20500   0.58462822   -7.0591418    3849.6855          406 
   20600   0.59455399    -7.052832    3858.1611          656 
   20700   0.60534377    -7.057398      3856.38          437 
   20800   0.59451837   -7.0564415    3852.4992          561 
   20900   0.58535075   -7.0425431    3852.2685          680 
   21000   0.59348345   -7.0484728     3867.322          680 
   21100   0.58563244   -7.0597334    3854.8547          730 
   21200   0.59207488   -7.0566161    3849.2215          784 
   21300   0.59407037   -7.0672166    3863.4913          752 
   21400   0.59465109   -7.0595447    3855.9536          747 
   21500   0.59069467   -7.0648908    3853.0041          638 
   21600   0.59651832   -7.0699734    3860.3898          580 
   21700   0.59649046   -7.0277667    3862.5326          325 
   21800   0.60585748   -7.0498562    3865.3467          353 
   21900   0.59386465    -7.055822    3849.8186          710 
   22000    0.5916974   -7.0643593    3858.3249          659 
   22100   0.58661663   -7.0392916    3856.2044          701 
   22200   0.58641595   -7.0769524     3858.605          680 
   22300   0.59579837   -7.0500795    3853.2001          710 
   22400    0.5920252   -7.0481828    3852.6304          271 
   22500   0.58876565   -7.0711268    3858.3242          251 
   22600   0.58662614   -7.0742038     3851.341          569 
   22700   0.59629842   -7.0562335    3855.5891          560 
   22800   0.59974944   -7.0559568    3858.3867          471 
   22900   0.59148646   -7.0755878    3856.4255          368 
   23000   0.59103031   -7.0662323    3852.1127          672 
   23100   0.59495926   -7.0660528    3854.6719          720 
   23200    0.5885448   -7.0646025     3851.025          679 
   23300   0.58790984   -7.0734343    3845.2719          682 
   23400   0.58873581   -7.0609873    3858.3038          630 
   23500   0.59360101   -7.0699574    3858.5131          496 
   23600   0.58619346   -7.0684232    3846.4058          744 
   23700   0.59777154   -7.0634052    3854.5522          734 
   23800   0.59815428   -7.0617694    3859.6944          732 
   23900   0.58084491   -7.0615307    3850.3479          735 
   24000   0.60716646   -7.0794765    3857.9182          712 
   24100   0.59271771   -7.0700586    3858.6509          748 
   24200   0.59124882   -7.0670607    3851.0005          702 
   24300    0.5856185    -7.063596    3852.7899          702 
   24400   0.58562124   -7.0736039     3851.822          750 
   24500   0.59381576   -7.0676242    3848.5685          718 
   24600    0.5851572   -7.0577903    3865.1485          404 
   24700   0.60129542   -7.0630124    3854.9443          821 
   24800    0.5870076   -7.0711173    3849.0779          756 
   24900   0.58238763   -7.0653206    3861.8419          732 
   25000   0.60058386   -7.0494298    3854.6084          728 
   25100   0.58741949    -7.063868    3846.4902          720 
   25200   0.58379152   -7.0797523    3857.3243          651 
   25300   0.59349265   -7.0681142    3850.3186          657 
   25400   0.58729603   -7.0585593    3856.5188          706 
   25500   0.58832984   -7.0793309    3857.0337          696 
   25600   0.59674054   -7.0689147    3852.0243          650 
   25700   0.59796405   -7.0619939    3848.6263          619 
   25800   0.58044995   -7.0666912    3851.2439          754 
   25900   0.59311467   -7.0574988    3856.3645          772 
   26000   0.58911818   -7.0675941    3850.3311          827 
   26100   0.58092663   -7.0825548     3855.264          500 
   26200   0.58021663   -7.0500028    3863.3817          728 
   26300   0.60589467   -7.0619235    3846.5373          749 
   26400   0.59031301   -7.0683121    3857.5124          787 
   26500   0.59997119   -7.0442863    3850.9802          787 
   26600   0.58273546   -7.0632867    3859.0534          836 
   26700    0.5778932   -7.0572809    3859.8112          758 
   26800   0.59688717   -7.0497573    3856.1551          793 
   26900   0.59503647   -7.0754331    3862.9536          761 
   27000   0.59791457   -7.0532792    3845.6681          790 
   27100   0.57823958   -7.0746392    3847.4469          740 
   27200   0.58667295   -7.0707498    3856.2506          741 
   27300   0.60006722   -7.0670573    3845.1471          732 
   27400   0.57591739   -7.0758938    3856.7638          803 
   27500   0.59249449    -7.063991    3857.2402          828 
   27600   0.58533453   -7.0473719    3850.4154          754 
   27700   0.58354312   -7.0841255    3860.2517          762 
   27800   0.58418824   -7.0796631    3846.1681          804 
   27900   0.59680798   -7.0500124    3846.0928          849 
   28000   0.60561993   -7.0693107    3859.7682          793 
   28100    0.5905763   -7.0789583    3858.1315          792 
   28200   0.57950185   -7.0428151    3842.5675          781 
   28300   0.59785391   -7.0616674     3862.162          822 
   28400   0.59220472    -7.055504    3845.0905          899 
   28500   0.58353893   -7.0639478    3848.6627          915 
   28600   0.59300852   -7.0616169     3859.735          903 
   28700   0.59979538   -7.0695237     3856.089          865 
   28800   0.59331592   -7.0649271    3837.4256          890 
   28900   0.58901739   -7.0797192     3855.209          845 
   29000   0.58274131   -7.0554179    3860.9775          790 
   29100   0.58616297   -7.0712496    3860.8193          877 
   29200   0.59040744   -7.0715404    3837.0704          870 
   29300   0.59490066   -7.0650834     3850.909          923 
   29400   0.58988241   -7.0651244    3855.3911          864 
   29500   0.59709928   -7.0842669     3850.046          916 
   29600    0.5994714   -7.0658869    3847.6147          935 
   29700   0.59295512   -7.0727976    3857.8596          993 
   29800   0.58186315   -7.0789064    3845.0516          982 
   29900   0.59905955   -7.0749626     3852.141          944 
   30000   0.58730482   -7.0743291     3854.387          959 
   30100   0.60576145   -7.0749564    3844.5379          923 
   30200   0.60229781    -7.061223    3851.7752          931 
   30300   0.59345949   -7.0760673    3850.4038          963 
   30400   0.59429032    -7.064338    3847.6177          951 
   30500   0.59541828    -7.064869    3866.2195          878 
   30600   0.58618565   -7.0714016    3849.0313          922 
   30700   0.59251637   -7.0847849    3835.4854          934 
   30800   0.58967369    -7.087862    3852.6113         1017 
   30900   0.58337227   -7.0561886    3861.3747         1027 
   31000   0.59370252   -7.0598444     3851.447          990 
   31100   0.58919178   -7.0768157    3841.1097         1008 
   31200   0.58142069   -7.0689884    3862.5363          988 
   31300   0.58598255   -7.0634731    3859.4673         1039 
   31400    0.5931353   -7.0747315    3848.7385         1037 
   31500   0.59418332   -7.0641937    3842.5272         1042 
   31600   0.58137021   -7.0721596    3855.5234         1077 
   31700   0.59495975   -7.0666029    3855.1181         1043 
   31800   0.58678195    -7.076088    3853.6562         1002 
   31900   0.58111954   -7.0504039    3855.9757          986 
   32000   0.59165427   -7.0616777    3862.2509         1000 
   32100   0.58791719   -7.0680796    3845.4998         1025 
   32200   0.58063305    -7.092254    3850.4094          979 
   32300   0.59988205   -7.0847486    3848.8063          983 
   32400    0.6001087   -7.0574286    3835.3869          986 
   32500   0.59151251   -7.0852698    3863.5575          923 
   32600   0.58179026   -7.0709087    3853.1236          970 
   32700   0.58474184   -7.0790484    3840.4764          993 
   32800    0.5812313   -7.0937081    3846.8734         1029 
   32900    0.5860287   -7.0714877    3852.2737         1019 
   33000   0.57387292   -7.0641163    3845.7099         1053 
   33100   0.60041782   -7.0851127    3858.9574         1087 
   33200   0.58604669   -7.0790348    3848.6881         1025 
   33300   0.59475176   -7.0866128    3844.6797          999 
   33400   0.59007559    -7.093286    3852.6355         1001 
   33500   0.58562252   -7.0841412    3847.5559         1031 
   33600   0.60476603    -7.083667    3850.1928         1106 
   33700   0.57478734   -7.0870967    3854.6284         1105 
   33800    0.5836314   -7.0896591    3854.2862         1093 
   33900   0.59672101   -7.0609125    3840.2251         1087 
   34000   0.59267607   -7.0869798    3857.0128         1104 
   34100   0.58304341   -7.0748377    3847.6847         1122 
   34200   0.57849503   -7.0922295    3843.2105         1160 
   34300    0.5945565   -7.0851714    3847.9575         1197 
   34400   0.59839741   -7.0791454    3846.3422         1189 
   34500   0.58681651   -7.1016764    3849.6571         1185 
   34600   0.59334874   -7.0787642    3844.7521         1157 
   34700   0.59317274   -7.0725015    3852.4232         1153 
   34800   0.58338002   -7.0844382    3851.0534         1126 
   34900   0.57058745   -7.0832731    3843.7476         1094 
   35000   0.58423437   -7.0736305      3849.71         1111 
   35100   0.59188434   -7.0832653    3851.9887         1115 
   35200   0.59333693   -7.0921438    3839.5171         1136 
   35300   0.59194376   -7.0893416    3842.9793         1150 
   35400   0.58284729   -7.0683968     3853.994         1122 
   35500   0.57756869    -7.071816     3850.197         1153 
   35600   0.58067635   -7.0858793    3852.2519         1140 
   35700   0.60781745   -7.0769149    3843.4129         1117 
   35800   0.58699081   -7.0743117    3844.1528         1098 
   35900   0.57614668    -7.097098    3853.8857         1119 
   36000   0.59021062   -7.0809369    3841.0572         1185 
   36100   0.59700798   -7.0743929    3851.8528         1176 
   36200   0.59934442   -7.0930982    3845.8481         1215 
   36300   0.58844581   -7.0861182    3844.3263         1209 
   36400    0.5987904   -7.0784772    3846.5764         1227 
   36500   0.58226374   -7.0876716    3851.3566         1241 
   36600   0.58357368   -7.0916536    3843.9002         1247 
   36700   0.59934112   -7.0941488    3842.8058         1192 
   36800   0.59246461   -7.0958666    3853.6206         1160 
   36900    0.5915339   -7.0937977    3840.1938         1189 
   37000   0.58356085   -7.0962398    3849.3843         1241 
   37100   0.59422694   -7.0869677    3853.1908         1247 
   37200   0.58088075   -7.0844705    3841.2753         1198 
   37300   0.60254974   -7.0881732    3839.3644         1228 
   37400   0.58445512   -7.0926477    3855.4595         1201 
   37500   0.58582697    -7.078512    3843.8852         1171 
   37600   0.60002722    -7.094381    3853.1537         1200 
   37700   0.59159473    -7.081871    3857.6838         1183 
   37800   0.58570493   -7.0840199    3840.8372         1182 
   37900   0.58304612   -7.0879776    3843.2121         1238 
   38000   0.59777407   -7.0883825    3857.3635         1229 
   38100   0.58829532   -7.0739455     3839.015         1257 
   38200    0.6025618   -7.0815973    3846.1233         1287 
   38300   0.58373887      -7.0969    3845.7242         1268 
   38400   0.60351524   -7.0997114    3842.6473         1293 
   38500    0.5894309   -7.1002344    3850.9916         1301 
   38600   0.59978121   -7.1030647    3843.8394         1251 
   38700    0.5916944   -7.1042049    3839.4943         1199 
   38800   0.59786447   -7.0855332    3846.0114         1268 
   38900   0.59270328   -7.0928663    3845.3935         1271 
   39000   0.58561192   -7.0924859    3842.5959         1310 
   39100   0.59542568   -7.0837483    3847.5005         1317 
   39200     0.584935   -7.0887618    3838.5099         1348 
   39300   0.59132601   -7.0937988     3846.296         1358 
   39400    0.5992012     -7.09949    3851.7374         1346 
   39500   0.58101918   -7.0795275    3840.5375         1349 
   39600   0.58487081   -7.1105365    3854.2687         1436 
   39700   0.58111516   -7.0931165    3832.3755         1408 
   39800   0.59945928   -7.1013633    3845.8721         1336 
   39900    0.5802866   -7.0957819    3850.1157         1349 
   40000   0.57945926   -7.1101298    3837.1393         1348 
   40100   0.58469951   -7.1204139    3833.1878         1356 
   40200   0.59572676    -7.103863    3843.0843         1365 
   40300   0.59038684   -7.1118708     3838.722         1357 
   40400   0.58937846   -7.1073123    3837.5712         1326 
   40500   0.59752567   -7.0936015    3839.5757         1264 
   40600   0.57596859   -7.0951878    3841.9283         1297 
   40700   0.59190178   -7.1241923    3834.6666         1362 
   40800   0.59166086   -7.0960556     3837.302         1346 
   40900   0.59112466   -7.1167157    3850.8626         1351 
   41000   0.58800828   -7.0973041    3832.6739         1408 
   41100   0.58812931   -7.0867435    3849.7343         1406 
   41200    0.5915677   -7.0915088    3845.3897         1388 
   41300   0.58489282   -7.0935993    3841.1953         1358 
   41400   0.59643113    -7.101141    3846.3283         1312 
   41500   0.58939146   -7.1091349    3843.4818         1358 
   41600   0.58923278   -7.1038642    3833.4052         1349 
   41700   0.60001309   -7.1039884    3848.9162         1356 
   41800   0.58304129   -7.0908339    3843.4994         1359 
   41900   0.59585759   -7.1047379    3833.1531         1364 
   42000   0.59394881   -7.0984017    3852.9542         1453 
   42100   0.58857194   -7.1009716    3839.5829         1373 
   42200   0.58600236   -7.0940444    3840.2658         1359 
   42300   0.59072396   -7.0972866    3845.7164         1343 
   42400    0.5936141   -7.1064524    3848.0056         1383 
   42500   0.58712052   -7.0911439    3841.2271         1387 
   42600   0.60633291   -7.1132254    3847.8952         1404 
   42700   0.60111917   -7.1092807    3828.4189         1395 
   42800   0.59068407   -7.1135004    3845.9043         1398 
   42900   0.58813952   -7.1069773    3838.0248         1435 
   43000   0.58924609    -7.120735    3846.0773         1461 
   43100   0.59053554   -7.0963882    3836.6074         1502 
   43200   0.58694038   -7.1027702    3843.9055         1431 
   43300   0.58468371   -7.1184486     3851.151         1430 
   43400   0.59066825   -7.0955857    3830.9755         1507 
   43500   0.59606393   -7.1122229    3840.5521         1537 
   43600   0.58689143   -7.0930003    3842.6512         1393 
   43700   0.58530319   -7.0940699    3836.5281         1422 
   43800   0.58468269   -7.1110025    3838.0102         1417 
   43900   0.59073815   -7.0964726    3840.5645         1450 
   44000   0.60639687   -7.0844565    3846.5416         1419 
   44100   0.59570626   -7.1110079    3845.0308         1445 
   44200   0.57207994   -7.0944642    3839.7649         1415 
   44300   0.59223626    -7.111529     3852.277         1409 
   44400    0.5836273    -7.084743    3838.9968         1468 
   44500    0.5905772   -7.1111867    3844.3857         1457 
   44600   0.58326205   -7.1006144    3837.4788         1442 
   44700   0.59792668   -7.1027002    3841.7499         1517 
   44800   0.58401745   -7.1129389    3850.9454         1471 
   44900   0.59869856    -7.103135    3834.5333         1449 
   45000   0.57907465   -7.1087959    3838.1627         1463 
   45100   0.59375825   -7.1017538    3848.8926         1468 
   45200   0.58454555   -7.0884117    3837.6585         1448 
   45300   0.58807753   -7.1204704    3847.1506         1437 
   45400   0.58410483   -7.1195372    3831.9775         1408 
   45500     0.604803   -7.1330468    3843.8757         1477 
   45600   0.60496184    -7.117548    3837.2693         1445 
   45700   0.58637189   -7.1322046    3836.6606         1429 
   45800   0.59100065   -7.1080147     3842.151         1432 
   45900   0.58117845    -7.089317     3835.748         1395 
   46000   0.58392529   -7.1217242    3851.9757         1365 
   46100   0.57706428   -7.1138821    3832.9915         1419 
   46200   0.59228848   -7.1135145    3840.2072         1411 
   46300    0.5872803   -7.1123379    3839.3827         1490 
   46400   0.57822647   -7.1186216    3840.0109         1385 
   46500   0.59473079   -7.0979789    3834.4561         1431 
   46600   0.58809209   -7.1080621    3841.4981         1413 
   46700    0.5856303    -7.115101    3839.9052         1479 
   46800   0.60117016   -7.1007128    3837.6594         1440 
   46900   0.59807241   -7.1128774     3839.138         1402 
   47000   0.58624781   -7.0982998    3838.7974         1367 
   47100   0.59544007   -7.1177509    3847.0214         1412 
   47200   0.59422085   -7.0904858    3828.4197         1454 
   47300   0.60814041   -7.1275605    3852.4838         1491 
   47400   0.59599309   -7.1240987    3834.5161         1490 
   47500    0.5908866    -7.112292    3825.3464         1522 
   47600   0.58884297   -7.1093954     3849.783         1546 
   47700   0.57376354   -7.1020785    3846.6956         1547 
   47800   0.59394539   -7.1149182    3836.4598         1529 
   47900   0.58471947   -7.1144996    3841.0581         1478 
   48000    0.5998733   -7.1086688    3845.8989         1533 
   48100   0.57883493   -7.0973651     3844.876         1516 
   48200   0.58954522    -7.104656    3834.3811         1569 
   48300   0.58449854   -7.1228908    3837.2516         1564 
   48400   0.58610104   -7.1201316    3843.0825         1549 
   48500   0.59743668   -7.0984144     3828.792         1585 
   48600   0.58533909   -7.1180619    3853.5567         1533 
   48700   0.59115842   -7.0945168    3835.6452         1572 
   48800   0.58506263   -7.1187581    3834.7436         1580 
   48900   0.59752087   -7.1220761    3833.9439         1588 
   49000   0.58737289   -7.1110876    3845.3844         1546 
   49100   0.58818628   -7.1008277    3844.7838         1582 
   49200   0.60045868    -7.123552     3831.265         1600 
   49300   0.57983332   -7.1116272    3831.9117         1600 
   49400   0.58607163    -7.113136    3847.2714         1611 
   49500   0.60047348   -7.1069007     3832.712         1625 
   49600   0.58893608   -7.1304316     3832.125         1571 
   49700   0.58861669   -7.1213818    3842.1078         1559 
   49800   0.59647153   -7.1081978    3834.8428         1514 
   49900   0.58920968   -7.1190575    3830.8761         1543 
   50000   0.59378119   -7.1016126    3841.6896         1517 
   50100   0.58847102   -7.0996614    3848.4705         1493 
   50200   0.59258008   -7.1303106    3830.3909         1533 
   50300   0.59310183   -7.1145356    3834.6729         1492 
   50400   0.60146169   -7.1279744    3838.7635         1523 
   50500   0.59178925   -7.1179603    3831.4604         1495 
   50600   0.59209785   -7.1308936    3839.2489         1592 
   50700   0.58336728   -7.1218481    3832.8733         1586 
   50800   0.59413667   -7.1150066    3838.8184         1505 
   50900   0.61020645   -7.1108064    3849.3387         1556 
   51000    0.5956738   -7.0978752    3835.8107         1551 
   51100   0.58563743   -7.1179736    3838.6508         1580 
   51200   0.58455315   -7.1289529    3839.7008         1572 
   51300   0.59317476    -7.104342    3832.9211         1669 
   51400     0.590393   -7.1195432    3838.1801         1643 
   51500   0.59662864    -7.115509    3830.1238         1567 
   51600   0.58628594   -7.1415652    3841.7654         1548 
   51700   0.59656576   -7.1132705    3843.0983         1537 
   51800   0.59719772   -7.1252258     3839.769         1550 
   51900   0.58750184   -7.1222757    3831.8518         1612 
   52000   0.59846223   -7.1004499    3835.4034         1624 
   52100   0.58790094   -7.1198473    3839.1426         1655 
   52200   0.59425846   -7.1256525    3829.9632         1614 
   52300   0.57851709    -7.125044    3829.4029         1625 
   52400   0.58203798   -7.1200747    3844.2507         1622 
   52500   0.59278741   -7.1151745    3834.0749         1611 
   52600    0.5805619    -7.124644    3839.8517         1665 
   52700   0.59610408   -7.1198615    3840.9777         1651 
   52800   0.60393323   -7.1000742    3836.5504         1612 
   52900   0.59509529   -7.1253361    3829.1786         1608 
   53000    0.5884358   -7.1261296    3844.2734         1648 
   53100   0.59603063   -7.1192506    3825.1024         1674 
   53200    0.5817852   -7.1154856    3826.4663         1650 
   53300   0.58499035   -7.1240411    3846.3364         1665 
   53400    0.5999936   -7.1144415     3829.613         1677 
   53500   0.58872521   -7.1327166    3832.0655         1623 
   53600   0.59456676   -7.1280317    3835.8305         1662 
   53700   0.59035564   -7.1121514    3842.3793         1724 
   53800   0.59053333   -7.1361715    3835.6962         1675 
   53900   0.58350725   -7.1353589    3843.1022         1662 
   54000   0.58774991   -7.1067479    3834.0437         1658 
   54100   0.59816993   -7.1308662    3840.7502         1703 
   54200   0.58899952   -7.1345143    3836.1903         1680 
   54300   0.58219736    -7.121951    3829.6354         1687 
   54400   0.59427068    -7.116787    3833.4917         1657 
   54500   0.58108217   -7.1267113    3832.8319         1717 
   54600   0.57984013    -7.132884    3837.5849         1691 
   54700   0.59341434   -7.1376656    3840.8949         1690 
   54800   0.58564371   -7.1310416      3814.46         1765 
   54900   0.58964489   -7.1586111    3836.9342         1773 
   55000   0.58778772   -7.1295575    3833.5702         1692 
   55100   0.59344174   -7.1074111    3830.6988         1760 
   55200   0.57826065   -7.1218944    3840.5352         1763 
   55300    0.5778588   -7.1391967    3832.4594         1791 
   55400   0.59040515   -7.1580383    3820.8952         1836 
   55500   0.58640777   -7.1363672    3830.1748         1848 
   55600   0.58640848    -7.126685    3835.3759         1835 
   55700   0.61132799   -7.1267183    3839.5176         1811 
   55800   0.59696855   -7.1261517    3829.4525         1854 
   55900     0.581935   -7.1094915    3820.6772         1754 
   56000   0.57127323   -7.1473958    3840.7777         1909 
   56100   0.59866003    -7.139829    3817.6863         1895 
   56200   0.60300254   -7.1242065    3826.7693         1896 
   56300   0.58494884   -7.1381327    3848.0384         1831 
   56400   0.58208917   -7.1320741    3831.8431         1792 
   56500   0.57732244   -7.1453321     3822.493         1888 
   56600    0.5987524   -7.1488836    3830.5058         1895 
   56700   0.58829423   -7.1144365    3827.6204         1865 
   56800   0.59052261   -7.1265629    3840.1271         1785 
   56900   0.58977943    -7.136067    3828.4719         1877 
   57000    0.5961019   -7.1459606    3822.3307         1897 
   57100   0.58156718   -7.1579595    3825.5413         1908 
   57200   0.60033498   -7.1524643     3832.146         1869 
   57300   0.58941532   -7.1206386    3822.8913         1859 
   57400   0.59723169   -7.1344397    3846.7238         1902 
   57500   0.58409915   -7.1295325    3825.4441         1958 
   57600   0.59406244    -7.143268    3822.8682         1917 
   57700   0.60537977   -7.1425386    3830.9427         1877 
   57800   0.58870365   -7.1317102    3823.3425         1848 
   57900   0.59054046   -7.1536287    3836.2026         1800 
   58000   0.58692235   -7.1397898     3832.897         1835 
   58100   0.59274365   -7.1439472    3830.8778         1856 
   58200   0.59282995   -7.1313405    3830.4683         1850 
   58300   0.60960982   -7.1471691    3836.7974         1834 
   58400   0.59638665   -7.1408761    3820.4269         1833 
   58500   0.59262778   -7.1528826    3826.2149         1844 
   58600   0.60401638   -7.1484807    3830.2212         1929 
   58700    0.6092438   -7.1221208    3827.9488         1884 
   58800   0.59875114   -7.1572673    3838.9851         1932 
   58900    0.5921233   -7.1452961    3824.0999         1889 
   59000   0.57835779   -7.1536353    3824.7898         1872 
   59100   0.58423283   -7.1370046    3833.4737         1911 
   59200   0.58565773   -7.1329759    3831.7331         1890 
   59300    0.5824519   -7.1454476    3839.7686         1885 
   59400   0.59910018   -7.1376708    3826.5065         1873 
   59500   0.58649342   -7.1480281    3828.1321         1930 
   59600   0.57228252   -7.1584742    3828.8657         1961 
   59700   0.58273897   -7.1536185    3822.5437         1963 
   59800   0.59298169   -7.1416976    3826.8074         1879 
   59900    0.5967448   -7.1268056    3830.6264         1897 
   60000   0.60612492    -7.149027    3838.9358         1956 
   60100   0.59292311   -7.1513348    3828.6089         1996 
   60200   0.59051397   -7.1574676     3829.149         2004 
   60300    0.5855154   -7.1125869    3825.7673         1980 
   60400   0.57707466   -7.1321799    3837.6508         1987 
   60500     0.595445   -7.1512795    3826.9831         1997 
   60600   0.58804705   -7.1568884    3824.6197         2012 
   60700   0.58187219   -7.1381913    3835.4134         1991 
   60800   0.58222916   -7.1429257    3832.4973         2032 
   60900   0.57878806   -7.1455229    3816.7742         2069 
   61000   0.58401703   -7.1451273    3836.0814         2061 
   61100   0.60006026   -7.1542802    3833.6675         2114 
   61200   0.59128587   -7.1619764    3820.5575         2075 
   61300   0.59300174   -7.1476536     3827.349         2058 
   61400   0.58892343   -7.1361845     3829.297         2047 
   61500   0.58491159   -7.1435806    3824.8591         2030 
   61600    0.5866639   -7.1620214     3822.254         2029 
   61700   0.59893148   -7.1323186    3825.8868         2093 
   61800    0.5877736   -7.1483777    3828.0195         2134 
   61900   0.59144787   -7.1639897    3831.7152         2138 
   62000   0.58547872   -7.1419309    3819.8458         2105 
   62100   0.60669696   -7.1507082    3827.5662         2113 
   62200   0.58448957   -7.1609598    3824.3161         2074 
   62300   0.59509656   -7.1605023    3818.8538         2131 
   62400   0.57667839   -7.1682223    3829.6255         2192 
   62500   0.58917986   -7.1465034    3825.3883         2243 
   62600   0.58229815   -7.1504468     3828.136         2179 
   62700   0.57577806   -7.1741379    3827.9704         2278 
   62800   0.58894603   -7.1590444    3814.6689         2226 
   62900   0.59938686   -7.1575753     3826.101         2203 
   63000   0.58714893   -7.1380856    3824.4016         2132 
   63100   0.58318066    -7.172058    3829.1665         2139 
   63200   0.60329068   -7.1626805    3821.2374         2211 
   63300   0.60482539   -7.1511343     3824.884         2244 
   63400    0.5878456   -7.1601998    3827.2994         2218 
   63500    0.5907577   -7.1575767    3829.3107         2220 
   63600   0.58804143   -7.1455122    3827.5587         2152 
   63700   0.60455448   -7.1457713    3825.8598         2242 
   63800    0.5903275   -7.1625822    3826.4057         2232 
   63900   0.57848206   -7.1451766    3823.1445         2180 
   64000   0.58603001    -7.148052     3830.356         2230 
   64100   0.59330562   -7.1652822    3828.1616         2273 
   64200   0.59858915   -7.1599862    3814.9798         2256 
   64300   0.58862449   -7.1572883    3824.9374         2262 
   64400   0.59264366   -7.1545484    3822.9307         2177 
   64500   0.57788574   -7.1682361    3827.2086         2185 
   64600   0.59126862   -7.1674098    3825.0834         2196 
   64700   0.59152375     -7.13904    3818.6489         2177 
   64800   0.58911415   -7.1898739    3832.9674         2182 
   64900   0.58755818   -7.1551986    3820.6002         2135 
   65000   0.59746085     -7.16388    3826.6458         2172 
   65100    0.5849631   -7.1460523    3823.9333         2247 
   65200   0.59355279   -7.1636212    3821.8754         2239 
   65300   0.59062257   -7.1747986    3825.9988         2235 
   65400   0.58974988   -7.1517778    3825.3563         2235 
   65500   0.59603803   -7.1400856     3828.805         2232 
   65600   0.58856947   -7.1578987    3823.1143         2271 
   65700   0.58624061   -7.1547392    3821.0133         2288 
   65800    0.5881633   -7.1711778    3828.5702         2304 
   65900   0.59835773    -7.156045    3820.9819         2321 
   66000   0.59942677   -7.1589621    3820.0647         2291 
   66100   0.58959511   -7.1850714    3824.6636         2242 
   66200   0.59198733   -7.1614897    3825.4598         2215 
   66300   0.58294958   -7.1380276    3823.7493         2260 
   66400   0.58246353   -7.1738967    3828.3007         2289 
   66500    0.5840098   -7.1716287    3818.2487         2320 
   66600    0.6042126   -7.1792908      3822.18         2301 
   66700   0.57946699   -7.1624256    3819.2877         2316 
   66800   0.59239003   -7.1679193    3830.2481         2260 
   66900   0.59132416   -7.1437326     3823.999         2289 
   67000   0.57413156   -7.1714398    3829.6728         2253 
   67100   0.57791278   -7.1467987    3823.8703         2258 
   67200   0.59885499   -7.1625709    3823.2871         2338 
   67300   0.58203446   -7.1728621    3824.4161         2305 
   67400   0.58513699   -7.1642586    3828.0686         2235 
   67500   0.58348279    -7.157664    3825.4433         2268 
   67600   0.59148211   -7.1561757    3822.3364         2263 
   67700   0.58881285   -7.1587878    3819.9934         2223 
   67800   0.59212149   -7.1836721    3814.9545         2237 
   67900   0.60093162   -7.1796287    3824.1045         2240 
   68000   0.59783622   -7.1542407    3821.3978         2257 
   68100   0.58490317   -7.1651938    3835.9069         2251 
   68200   0.58056289   -7.1419991    3819.9936         2289 
   68300   0.59946067    -7.145469    3823.5226         2255 
   68400   0.59089185   -7.1782273     3826.585         2263 
   68500   0.59098283   -7.1671893    3820.2404         2297 
   68600   0.60339223   -7.1564331    3826.8978         2232 
   68700   0.59181904   -7.1559923    3823.9364         2292 
   68800    0.5874521   -7.1579176    3817.1592         2275 
   68900   0.59837073   -7.1776952    3831.2997         2271 
   69000   0.59738803   -7.1661497    3824.2198         2271 
   69100   0.59567809   -7.1652215    3817.4536         2289 
   69200   0.57590244   -7.1677978    3818.8982         2326 
   69300   0.59425001   -7.1728084    3817.1564         2312 
   69400   0.58812612   -7.1563626     3821.379         2309 
   69500   0.59202125    -7.179477    3831.1022         2312 
   69600   0.58719366   -7.1745553    3816.7258         2321 
   69700   0.58521711   -7.1675482    3821.4913         2324 
   69800   0.58648379   -7.1531213    3828.3011         2378 
   69900   0.57658606   -7.1523086    3814.9331         2398 
   70000   0.59044871   -7.1818969    3823.7531         2433 
   70100   0.59557079   -7.1542714    3825.4849         2390 
   70200   0.58830803   -7.1653079    3820.4139         2361 
   70300   0.58952543   -7.1684782     3821.084         2302 
   70400   0.60335391   -7.1607813    3823.5474         2332 
   70500   0.59202049    -7.161751    3815.6292         2315 
   70600   0.58345261   -7.1796207    3822.0864         2361 
   70700   0.58996555   -7.1606585    3821.3731         2395 
   70800   0.59846666   -7.1785319    3817.1276         2408 
   70900   0.58130261    -7.191173    3820.1502         2420 
   71000   0.58255447    -7.168194    3823.9594         2378 
   71100   0.59911394   -7.1529229    3813.1055         2382 
   71200   0.58257567   -7.1754043     3819.793         2461 
   71300   0.58881838    -7.173229     3819.575         2426 
   71400   0.59085467    -7.172503    3818.6803         2425 
   71500   0.60505017   -7.1717712    3822.0552         2390 
   71600   0.59653477   -7.1757614    3822.8335         2348 
   71700   0.59847526    -7.182393    3806.2657         2397 
   71800   0.60552355   -7.1805704    3815.3973         2374 
   71900   0.58672338   -7.1798464    3830.2658         2381 
   72000   0.57805433   -7.1702157    3817.8753         2361 
   72100    0.5851464   -7.1616301    3822.4276         2397 
   72200   0.58802638   -7.1723491    3826.7833         2445 
   72300   0.58389867   -7.1806097    3813.7592         2471 
   72400   0.59349574   -7.1675729    3813.1193         2425 
   72500   0.58580814   -7.1774009     3828.982         2391 
   72600   0.59548619   -7.1587709    3823.6966         2418 
   72700   0.59023892   -7.1804512    3808.3793         2422 
   72800   0.59193204   -7.1845375    3821.3803         2451 
   72900   0.57956215   -7.1791121    3820.3997         2432 
   73000   0.58908803   -7.1605825    3823.5214         2414 
   73100   0.59588913   -7.1969873    3825.8911         2438 
   73200   0.58991743   -7.1884059    3813.5132         2469 
   73300   0.58515018   -7.1614403    3820.2928         2471 
   73400   0.58838146   -7.1777067     3827.259         2449 
   73500   0.58053498   -7.1793514    3811.0905         2462 
   73600   0.59553737   -7.1977802     3812.871         2501 
   73700   0.59205282   -7.1786168    3818.8969         2400 
   73800   0.58521169   -7.1738256    3821.3101         2387 
   73900   0.61202968   -7.1700437    3815.0921         2427 
   74000   0.58872759   -7.1823463      3822.93         2415 
   74100   0.58740956   -7.1808865    3818.6568         2418 
   74200   0.60129229   -7.1650191    3822.8906         2421 
   74300   0.59410674   -7.1758773    3822.7565         2432 
   74400   0.58905016   -7.1836231    3819.2048         2447 
   74500    0.5964947   -7.1730414     3821.652         2475 
   74600   0.58996693   -7.1686043    3830.6488         2457 
   74700   0.59358783   -7.1916758    3819.6395         2500 
   74800   0.58544788   -7.1672976    3811.6685         2487 
   74900   0.57972679   -7.1625284    3817.3972         2434 
   75000    0.5863185   -7.1960487    3820.5387         2500 
   75100   0.59527186   -7.1882477    3813.5108         2442 
   75200   0.59972148   -7.1804322    3814.9753         2512 
   75300   0.59996962   -7.2057364    3824.8865         2479 
   75400   0.58864504   -7.1810156    3807.4164         2480 
   75500   0.60419042   -7.1920778    3812.8153         2538 
   75600   0.58876052   -7.1878478    3821.9412         2548 
   75700   0.59026911   -7.1693865    3828.1708         2475 
   75800   0.60184338    -7.169752    3815.5791         2549 
   75900   0.59697277   -7.1876901    3815.4484         2536 
   76000   0.58683768   -7.1960125    3814.9625         2616 
   76100    0.5831173   -7.2137766    3814.2405         2611 
   76200   0.59213546   -7.1548709    3800.6219         2549 
   76300   0.59600418     -7.20552    3819.5135         2533 
   76400   0.57765973   -7.1862311    3808.9193         2589 
   76500    0.5817954   -7.1686341    3814.9609         2533 
   76600   0.59250167   -7.1840776    3821.6351         2473 
   76700   0.59107712    -7.196262    3816.3116         2498 
   76800   0.57247128   -7.1761247    3804.9064         2467 
   76900    0.5832806   -7.1785332     3824.395         2475 
   77000    0.5980706    -7.176381    3821.9196         2493 
   77100   0.59096958   -7.1897974    3811.5362         2480 
   77200   0.59356055   -7.1934555    3814.8417         2514 
   77300   0.59078605   -7.1977784    3818.4839         2527 
   77400   0.59276221    -7.170467    3811.3226         2554 
   77500   0.59482368   -7.1912931    3818.9662         2573 
   77600   0.58468943   -7.1951841     3803.002         2509 
   77700    0.5953992   -7.2080289    3823.4274         2472 
   77800   0.58146488   -7.1642391    3817.9245         2492 
   77900   0.58851435   -7.1746263    3817.6127         2509 
   78000   0.59268739   -7.1928296    3815.0435         2535 
   78100   0.58790262   -7.2075747    3818.5441         2546 
   78200    0.5834922   -7.1847732     3814.106         2528 
   78300   0.59125792   -7.1854661    3815.6328         2531 
   78400   0.57354512   -7.1904834    3823.1194         2470 
   78500   0.58100419   -7.1821194    3817.6536         2510 
   78600   0.60037002   -7.1703449     3812.923         2504 
   78700   0.59080872   -7.1934791    3817.2412         2498 
   78800   0.58524601   -7.1891549    3816.1063         2521 
   78900   0.59415947   -7.1961742    3817.7295         2568 
   79000   0.57462371   -7.1829925     3814.445         2530 
   79100   0.59429868   -7.1829638    3812.9644         2519 
   79200   0.59561297   -7.1702961    3824.2424         2488 
   79300   0.59438751   -7.1774438    3813.7531         2507 
   79400   0.58666608   -7.1976579    3820.4889         2545 
   79500   0.59351057   -7.1754725    3823.6074         2501 
   79600   0.60809811   -7.1766183    3811.2342         2524 
   79700    0.5898478   -7.1950924    3814.1567         2552 
   79800   0.57740095   -7.1845634    3812.9455         2557 
   79900   0.60872554   -7.1909561    3814.1429         2565 
   80000   0.59706057   -7.2048876    3814.0337         2589 
   80100   0.58223924   -7.1931145    3819.4485         2536 
   80200   0.58686044   -7.1749147    3822.8679         2542 
   80300   0.59205086   -7.1914278    3816.1476         2563 
   80400   0.59418507   -7.1942394    3802.6866         2599 
   80500   0.59118343     -7.20299    3819.1374         2585 
   80600   0.59855022   -7.2016254     3819.267         2610 
   80700   0.57929328   -7.1977719    3813.8295         2564 
   80800   0.58804092   -7.1968392    3806.8821         2564 
   80900   0.58881494   -7.1840033    3822.4907         2528 
   81000   0.57793555   -7.1832171    3820.7531         2530 
   81100   0.58838169   -7.2015579    3814.5443         2565 
   81200    0.5923812    -7.177866    3818.8746         2572 
   81300   0.59694819   -7.1692721    3809.0872         2552 
   81400   0.59576674   -7.2047542    3811.2669         2524 
   81500   0.58446175   -7.1978357    3809.2568         2592 
   81600   0.58903493   -7.1883324    3820.9442         2593 
   81700   0.57883434     -7.19116    3819.5897         2533 
   81800   0.59851613   -7.1786423    3815.3763         2611 
   81900   0.58376378    -7.202022    3821.2752         2651 
   82000   0.59271933   -7.1931126    3816.2385         2627 
   82100   0.61577113   -7.1761215    3808.3572         2645 
   82200   0.58730061   -7.1977192    3825.5294         2613 
   82300   0.58364194    -7.193654    3816.0596         2640 
   82400   0.59705938   -7.1694376    3820.1876         2656 
   82500      0.57589   -7.1865203    3820.4657         2617 
   82600   0.58906975    -7.204619    3814.1299         2666 
   82700   0.58367241   -7.2330725    3808.8897         2687 
   82800    0.5892713   -7.2014071    3806.4145         2648 
   82900   0.59444719   -7.1968499    3809.9935         2684 
   83000   0.59527693   -7.1763994    3824.0018         2640 
   83100   0.58734746   -7.1786074    3811.9163         2614 
   83200   0.58775575   -7.2011601    3812.8269         2626 
   83300   0.59155711   -7.1999227    3813.2858         2612 
   83400   0.58335398   -7.1870096    3819.4455         2641 
   83500   0.57563941   -7.1967751     3801.717         2672 
   83600   0.59231439   -7.2106873    3817.7837         2626 
   83700   0.58767394   -7.1887547    3806.8061         2672 
   83800   0.58305949   -7.2075918    3811.4136         2754 
   83900   0.59225733   -7.1915559    3820.0803         2674 
   84000   0.59111401   -7.1956603    3801.2493         2683 
   84100   0.58820461   -7.2232939    3816.0416         2698 
   84200   0.58995479   -7.1788351     3815.279         2626 
   84300   0.58872782   -7.1995348     3819.684         2663 
   84400   0.58706511   -7.2035349    3811.2936         2637 
   84500   0.60406886   -7.2037611    3807.5636         2614 
   84600    0.5887064   -7.2136862    3812.5656         2590 
   84700   0.57721829   -7.2117522    3810.1767         2644 
   84800   0.60095488   -7.1948462    3809.1488         2632 
   84900   0.58608311   -7.2015901    3810.0324         2695 
   85000   0.58577949   -7.2073254    3813.6085         2708 
   85100   0.59030317    -7.192806    3806.4212         2672 
   85200   0.58734033   -7.2110481    3830.5415         2652 
   85300   0.60669273   -7.2080242    3814.4979         2712 
   85400   0.59084332   -7.2051034    3803.7823         2646 
   85500    0.5907408   -7.2044523    3808.7182         2713 
   85600   0.58983852   -7.1989464    3812.7331         2678 
   85700   0.59529082   -7.1915275    3817.9592         2676 
   85800   0.60072237   -7.2070076    3805.2844         2669 
   85900    0.5939747   -7.2183804    3809.0176         2688 
   86000    0.6041485   -7.2066305    3815.0701         2710 
   86100   0.59302013   -7.1866763    3810.9588         2723 
   86200   0.59005707   -7.2250784    3818.0971         2794 
   86300   0.57831008   -7.1959468    3800.2786         2811 
   86400   0.59873985   -7.2054597    3814.1341         2738 
   86500   0.58297625   -7.2023404    3815.3425         2772 
   86600   0.58996616   -7.2132573    3801.1298         2830 
   86700   0.59166271   -7.2010178    3809.2622         2773 
   86800   0.58901324   -7.2142914    3819.9521         2786 
   86900   0.58720489   -7.2123289      3809.99         2753 
   87000   0.59645755   -7.2016365    3810.7668         2715 
   87100   0.59370367   -7.2016798    3815.3202         2728 
   87200   0.58660554   -7.1997078    3804.4424         2763 
   87300   0.58781608   -7.2458934    3810.2353         2747 
   87400   0.59228943   -7.2124813    3812.4106         2783 
   87500   0.59132613   -7.2160275    3802.1404         2746 
   87600   0.58216678   -7.2247647    3801.8995         2763 
   87700   0.59265946   -7.2143654     3812.038         2726 
   87800   0.58474936   -7.2031717    3810.1469         2714 
   87900    0.5775514   -7.2170818    3805.5742         2808 
   88000   0.58688025   -7.2222903    3814.9238         2821 
   88100   0.58068262   -7.2004835    3812.5793         2798 
   88200   0.58619875   -7.2247684    3814.1872         2810 
   88300   0.57479634   -7.2028253    3805.2658         2786 
   88400   0.59658891   -7.2163924     3812.608         2820 
   88500   0.58778458   -7.2303557      3811.92         2828 
   88600   0.59655598   -7.2217977    3796.9317         2845 
   88700   0.59701731    -7.201709    3813.2868         2809 
   88800   0.58905414   -7.2067647    3813.7622         2795 
   88900   0.58679574    -7.206906    3802.4166         2844 
   89000   0.58825471   -7.2117109    3808.3384         2854 
   89100   0.58595433    -7.227864    3816.2087         2868 
   89200   0.59495071   -7.2237196    3794.1255         2898 
   89300   0.58982953   -7.2294269    3804.4584         2865 
   89400   0.58086154    -7.198995    3815.7874         2815 
   89500   0.59056452   -7.1959143    3806.3119         2824 
   89600   0.58851397   -7.2275996    3815.3041         2787 
   89700   0.57458636   -7.2193303     3797.966         2834 
   89800   0.58641203   -7.2177422    3800.8117         2894 
   89900   0.59051978   -7.2228254    3811.3386         2831 
   90000   0.59193072   -7.2127909    3801.5181         2780 
   90100   0.59971386   -7.2074642    3802.6474         2802 
   90200   0.58843291   -7.2286765    3803.0274         2784 
   90300   0.59250421   -7.2273231     3803.928         2839 
   90400   0.59688319   -7.2143167     3807.441         2852 
   90500   0.57533701   -7.2004688     3799.985         2808 
   90600   0.58067614   -7.2272588    3810.9535         2771 
   90700   0.59845911    -7.212587    3810.2017         2789 
   90800    0.5918195   -7.2091677    3800.6253         2818 
   90900   0.58751971   -7.2433697    3811.0043         2853 
   91000   0.58090735   -7.2149517    3806.2613         2814 
   91100   0.59433818   -7.2030994    3801.4254         2793 
   91200   0.58897193   -7.2329719    3810.7715         2801 
   91300   0.59819878   -7.2221555    3802.1053         2843 
   91400   0.57891578   -7.2137566    3807.0257         2825 
   91500   0.58705604   -7.2288907      3809.56         2831 
   91600   0.59114032    -7.201466    3798.3549         2852 
   91700   0.58432983   -7.2573845    3809.0578         2847 
   91800   0.58225514   -7.2192087    3802.0597         2837 
   91900   0.59753953   -7.2262999    3801.5468         2835 
   92000    0.5850644   -7.2310311    3809.4818         2832 
   92100   0.59273183   -7.2050897    3808.6968         2869 
   92200    0.5899284   -7.2202063    3800.4286         2883 
   92300   0.57954617   -7.2304956    3806.9227         2892 
   92400   0.60503809   -7.2260437    3802.6943         2878 
   92500   0.59532025   -7.2149324    3801.4308         2854 
   92600   0.58364309   -7.2416979    3803.2996         2850 
   92700   0.59629136    -7.232673    3800.0663         2881 
   92800     0.599164   -7.2143921    3802.0675         2862 
   92900   0.59075404   -7.2423359    3807.7032         2845 
   93000   0.58389844   -7.2349281    3793.3151         2851 
   93100   0.58891146   -7.2261997    3798.8948         2840 
   93200   0.58873401   -7.2307296    3814.5932         2867 
   93300   0.58753054   -7.2115235     3804.271         2888 
   93400   0.59432197   -7.2171457    3800.9358         2876 
   93500   0.59016993   -7.2357871     3800.356         2924 
   93600   0.57567514   -7.2297122    3797.8319         2908 
   93700   0.58773328   -7.2330979    3807.7801         2871 
   93800   0.59246244   -7.2268164    3804.4096         2913 
   93900   0.59959028   -7.2161111    3803.6575         2896 
   94000   0.59113351   -7.2454951     3809.716         2845 
   94100   0.59456024   -7.2341911    3800.3182         2891 
   94200   0.58575059   -7.2346309    3799.7747         2904 
   94300   0.59997759    -7.230668    3803.6422         2885 
   94400   0.57231618   -7.2295213    3801.6548         2891 
   94500   0.58869916   -7.2416588    3803.7514         2880 
   94600   0.59769663   -7.2251948    3797.8411         2913 
   94700   0.60579009   -7.2393106    3800.0224         2831 
   94800   0.58791903   -7.2345054    3809.6563         2815 
   94900    0.5825387   -7.2146041     3800.639         2922 
   95000   0.58970033   -7.2270306      3809.01         2941 
   95100   0.57807452   -7.2343864    3810.5777         2965 
   95200   0.59715433   -7.2193153    3800.2239         2921 
   95300   0.58813248   -7.2051439    3806.9096         2894 
   95400   0.59020893   -7.2405233    3812.0867         2951 
   95500   0.59647926    -7.231231    3796.4205         2933 
   95600   0.58752294   -7.2263424    3797.2869         2872 
   95700   0.57891989   -7.2407845     3799.655         2894 
   95800   0.59471522   -7.2316979    3804.3702         2876 
   95900   0.59190668   -7.2234959    3800.8883         2953 
   96000   0.58586304   -7.2476682    3804.1514         2924 
   96100   0.58484294   -7.2186122    3795.4554         2919 
   96200   0.59650418   -7.2361766    3804.2666         2977 
   96300   0.57992647   -7.2335338    3801.9408         2927 
   96400   0.57150442   -7.2358766    3789.2439         2942 
   96500   0.58619033   -7.2424402    3806.2033         2956 
   96600   0.60120991   -7.2229657    3796.7232         3005 
   96700   0.59959761   -7.2428329    3802.1591         2981 
   96800   0.58387038   -7.2399894    3804.0006         2992 
   96900   0.59518834   -7.2205822    3800.1466         2932 
   97000   0.58514292   -7.2071485    3806.4971         2943 
   97100   0.58886909   -7.2522082    3795.5147         2998 
   97200   0.59169413   -7.2322155    3792.5606         2982 
   97300   0.58675936   -7.2263692    3805.5783         2944 
   97400   0.58249312   -7.2290441    3808.9004         2948 
   97500   0.58809554   -7.2346775    3799.3186         2952 
   97600   0.59771209   -7.2518524    3798.5141         2952 
   97700   0.59338225   -7.2331507    3801.5802         2936 
   97800   0.58634169   -7.2068032    3804.1942         2928 
   97900   0.59380496   -7.2526962    3796.1673         3012 
   98000   0.58642681   -7.2411269    3798.1368         3009 
   98100   0.59070894   -7.2214624    3810.0357         2953 
   98200    0.5810041   -7.2182983    3804.9799         2951 
   98300   0.57625612   -7.2348362    3793.0105         2944 
   98400    0.5910914   -7.2614854    3802.1022         2906 
   98500   0.60235813   -7.2352078    3797.9254         2908 
   98600   0.59103171   -7.2173333    3798.5021         2984 
   98700   0.58424453    -7.265497    3807.9764         3007 
   98800    0.5927378   -7.2335226    3794.9981         2963 
   98900   0.59116759   -7.2405009     3804.769         2946 
   99000   0.57223911   -7.2222586    3801.9334         2937 
   99100   0.58823365   -7.2264186    3803.4658         2934 
   99200   0.59446767   -7.2340364    3802.5748         2988 
   99300   0.59674277   -7.2492513    3801.1665         2940 
   99400   0.58406605   -7.2230326    3781.9052         2964 
   99500    0.5950041   -7.2569396    3805.5433         2986 
   99600   0.59164347   -7.2175271    3805.9475         2904 
   99700   0.58887322   -7.2220666     3801.115         2895 
   99800   0.58885371   -7.2360185    3804.3001         2924 
   99900   0.59469946   -7.2366761     3810.015         2957 
  100000   0.57648434   -7.2329037     3798.083         2968 
  100100   0.58911297   -7.2285393    3789.1136         2989 
  100200    0.6034518   -7.2554181    3807.0396         2968 
  100300   0.58651468   -7.2359352    3795.7489         2987 
  100400    0.5829797    -7.256448    3797.8085         3004 
  100500   0.58537353   -7.2259396    3804.0153         2969 
  100600   0.59438437   -7.2341381    3799.4013         2952 
  100700   0.57562149   -7.2391266    3799.3031         2964 
  100800   0.59347287   -7.2370067    3804.8761         2952 
  100900   0.59997983   -7.2276373    3795.8926         2916 
  101000   0.57931191   -7.2303635    3803.5164         2927 
  101100   0.59316339   -7.2065723    3805.9772         2882 
  101200   0.59002896   -7.2192855    3806.3647         2869 
  101300   0.57882689    -7.223055    3799.9807         2935 
  101400   0.58123996   -7.2393304    3804.1712         2986 
  101500   0.60185123   -7.2422888     3799.083         2996 
  101600   0.60492378   -7.2186617    3797.1783         3001 
  101700   0.59860617   -7.2336354    3810.2564         3006 
  101800   0.58342257   -7.2373207    3804.6393         2983 
  101900   0.59311393    -7.235515    3791.6182         2936 
  102000   0.60878667   -7.2365371    3804.8154         2937 
  102100     0.592301   -7.2459547    3804.8297         2989 
  102200   0.58717159   -7.2275529    3797.4168         2967 
  102300   0.60394404   -7.2420714    3803.8058         2992 
  102400   0.58964967   -7.2514253     3796.765         2961 
  102500   0.59214348   -7.2351946    3802.0974         2925 
  102600   0.59404994    -7.228619    3801.3143         2933 
  102700   0.59735068   -7.2516201    3800.2508         2966 
  102800   0.58526389   -7.2488851     3796.382         2967 
  102900   0.59057448   -7.2358343    3809.2972         2904 
  103000   0.58374577   -7.2293227     3801.918         2969 
  103100   0.58368184   -7.2388751    3788.1925         2993 
  103200   0.57411212   -7.2612881    3808.2145         2976 
  103300   0.58358023   -7.2425229    3806.2266         2950 
  103400   0.59108539   -7.2253452    3799.0419         2917 
  103500   0.60285615    -7.230389     3808.677         2890 
  103600   0.58448654    -7.225376    3798.7628         2869 
  103700   0.57797406    -7.240302    3800.9123         2889 
  103800   0.59057507   -7.2157615    3800.8294         2917 
  103900   0.59259587   -7.2364517      3801.19         2909 
  104000   0.58312798   -7.2397543    3793.5145         2919 
Loop time of 189.876 on 32 procs for 100000 steps with 4000 atoms

Performance: 91006.617 tau/day, 526.659 timesteps/s
99.7% CPU use with 32 MPI tasks x no OpenMP threads

MPI task timing breakdown:
Section |  min time  |  avg time  |  max time  |%varavg| %total
---------------------------------------------------------------
Pair    | 16.645     | 17.014     | 17.813     |   6.8 |  8.96
Neigh   | 1.4857     | 1.5215     | 1.571      |   1.9 |  0.80
Comm    | 8.0237     | 9.3411     | 10.327     |  16.3 |  4.92
Output  | 6.2838     | 6.2844     | 6.2961     |   0.1 |  3.31
Modify  | 150.8      | 153.04     | 154.53     |   7.6 | 80.60
Other   |            | 2.671      |            |       |  1.41

Nlocal:        125.000 ave         132 max         116 min
Histogram: 1 1 4 3 3 5 5 1 7 2
Nghost:        2029.50 ave        2051 max        2004 min
Histogram: 4 2 3 0 2 4 6 5 5 1
Neighs:        15194.5 ave       16033 max       14223 min
Histogram: 1 3 2 4 6 2 3 4 5 2
FullNghs:      30391.3 ave       31999 max       28283 min
Histogram: 1 1 4 4 3 5 3 2 4 5

Total # of neighbors = 972521
Ave neighs/atom = 243.13025
Neighbor list builds = 4572
Dangerous builds = 0

#clear
#
#next RN
#
#jump SELF
Total wall time: 0:03:10
