
units lj                  # Use reduced LJ style units
atom_style atomic         # Uncharged point particles
atom_modify map hash      # Needed for indexing of clusters etc
                          # Used to be able to find where atoms are in relation to each other.

# Define a lattice with which to populate the simulation cell. With units
# set to 'lj' the second argument to the lattice command is the reduced
# density rho* and the spacings are multiples of that required to acheive
# that density. Also define a simulation cell called 'box' in lattice units
# and fill it with atoms. Here we're creating a box which is ten lattice
# constants in each direction.
lattice fcc 1.0 spacing 1 1 1                 # All equal sizes - gives the right reduced density.
Lattice spacing in x,y,z = 1.5874011 1.5874011 1.5874011

region box block 0 10 0 10 0 10 units lattice # Defines a region, "box", in lattice units
create_box 1 box                              # Creates a simulation box as specified above,
Created orthogonal box = (0.0000000 0.0000000 0.0000000) to (15.874011 15.874011 15.874011)
  3 by 4 by 4 MPI processor grid
                                              # with one type of atom
create_atoms 1 box                            # Creates particles on lattice points
Created 4000 atoms
  using lattice units in orthogonal box = (0.0000000 0.0000000 0.0000000) to (15.874011 15.874011 15.874011)
  create_atoms CPU = 0.003 seconds


# Set the mass of the first (and only) atom type.
mass 1 1.0

# Lennard-Jones interactions between particles, 3.5 sigma cut-off. Apply
# long range tail corrections to energy and pressure and set all coefficients
# to unity since we work in reduced units here. Note that this doesn't shift
# the potential such that it goes to zero at the cutoff. That would require
# pair_modify('shift', 'yes').
pair_style lj/cut  3.5      # non-GPU version
pair_modify tail  yes
pair_coeff 1  1  1.0  1.0   # Intearaction between 1 and 1 set with epsilon = 1 and sigma = 1

write_data data.*
System init for write_data ...
Neighbor list info ...
  update every 1 steps, delay 10 steps, check yes
  max neighbors/atom: 2000, page size: 100000
  master list distance cutoff = 3.8
  ghost atom cutoff = 3.8
  binsize = 1.9, bins = 9 9 9
  1 neighbor lists, perpetual/occasional/extra = 1 0 0
  (1) pair lj/cut, perpetual
      attributes: half, newton on
      pair build: half/bin/atomonly/newton
      stencil: half/bin/3d
      bin: standard

#############################
#   M E L T   S Y S T E M   #
#############################

velocity all create 2.4 5833274 mom yes dist gaussian # Assign velocities
                                                    # Temperature 2.4, random number seed, zero linear momentum
						                                                        # Gaussian distribution

timestep 0.002   # simulation timestep
thermo 1000       # output thermodynamic data every 1000 steps

# Define a fix  in this case with index 1 applied to all
# particles in the simulation. This fix is for simulations
# in the anisotropic NPT ensemble. Note that we use the MTK
# correction.
fix 1 all npt temp 2.4 2.4 0.1 iso 5.68 5.68 0.5 mtk yes tchain 5 pchain 5 # Use NPT ensemble
                                                                         # Set temperature and pressure and damping
                                                                         # Numbers of thermostats in chain and in barostat
run 1000         # run for 10000 steps
Per MPI rank memory allocation (min/avg/max) = 3.642 | 3.644 | 3.648 Mbytes
Step Temp E_pair E_mol TotEng Press Volume 
       0          2.4   -8.3859253            0   -4.7868253   -2.2405722         4000 
    1000    2.3797751   -4.4966384            0  -0.92786813    5.4591985    5168.8144 
Loop time of 0.218004 on 48 procs for 1000 steps with 4000 atoms

Performance: 792647.688 tau/day, 4587.082 timesteps/s
99.3% CPU use with 48 MPI tasks x no OpenMP threads

MPI task timing breakdown:
Section |  min time  |  avg time  |  max time  |%varavg| %total
---------------------------------------------------------------
Pair    | 0.092094   | 0.10024    | 0.10848    |   1.2 | 45.98
Neigh   | 0.017532   | 0.018823   | 0.0207     |   0.5 |  8.63
Comm    | 0.065573   | 0.074952   | 0.083511   |   1.6 | 34.38
Output  | 2.5129e-05 | 2.7685e-05 | 3.6159e-05 |   0.0 |  0.01
Modify  | 0.019317   | 0.022401   | 0.024914   |   1.0 | 10.28
Other   |            | 0.001558   |            |       |  0.71

Nlocal:        83.3333 ave          95 max          76 min
Histogram: 5 3 8 10 11 3 4 3 0 1
Nghost:        1390.04 ave        1421 max        1371 min
Histogram: 5 8 6 7 8 4 4 3 1 2
Neighs:        7371.42 ave        8414 max        6707 min
Histogram: 8 7 3 4 13 5 4 1 0 3

Total # of neighbors = 353828
Ave neighs/atom = 88.457000
Neighbor list builds = 87
Dangerous builds = 16

# Equilibrate just above the melting temperature to avoid step fn in T

fix 1 all npt temp 1.25 1.25 0.1 iso 5.68 5.68 0.5 mtk yes tchain 5 pchain 5
run 1000
Per MPI rank memory allocation (min/avg/max) = 3.642 | 3.644 | 3.648 Mbytes
Step Temp E_pair E_mol TotEng Press Volume 
    1000    2.3797751   -4.4966384            0  -0.92786813    5.4591985    5168.8144 
    2000    1.2516439   -5.8169213            0   -3.9399248    5.7560827    4346.0008 
Loop time of 0.212819 on 48 procs for 1000 steps with 4000 atoms

Performance: 811956.383 tau/day, 4698.822 timesteps/s
99.6% CPU use with 48 MPI tasks x no OpenMP threads

MPI task timing breakdown:
Section |  min time  |  avg time  |  max time  |%varavg| %total
---------------------------------------------------------------
Pair    | 0.093906   | 0.099809   | 0.1055     |   0.9 | 46.90
Neigh   | 0.015446   | 0.016095   | 0.017522   |   0.3 |  7.56
Comm    | 0.066449   | 0.072502   | 0.080295   |   1.2 | 34.07
Output  | 2.4176e-05 | 2.4862e-05 | 3.1606e-05 |   0.0 |  0.01
Modify  | 0.020079   | 0.022401   | 0.024959   |   0.8 | 10.53
Other   |            | 0.001987   |            |       |  0.93

Nlocal:        83.3333 ave          89 max          74 min
Histogram: 1 1 1 3 8 4 13 5 8 4
Nghost:        1549.94 ave        1572 max        1533 min
Histogram: 3 3 10 7 6 10 5 1 1 2
Neighs:        8760.96 ave        9501 max        7906 min
Histogram: 1 3 6 6 7 6 6 5 3 5

Total # of neighbors = 420526
Ave neighs/atom = 105.13150
Neighbor list builds = 74
Dangerous builds = 4


# Small amount of linear quench

fix 1 all npt temp 1.25 ${temp} 0.1 iso 5.68 5.68 0.5 mtk yes tchain 5 pchain 5
fix 1 all npt temp 1.25 0.42 0.1 iso 5.68 5.68 0.5 mtk yes tchain 5 pchain 5
run 2000
Per MPI rank memory allocation (min/avg/max) = 3.643 | 3.645 | 3.648 Mbytes
Step Temp E_pair E_mol TotEng Press Volume 
    2000    1.2516439   -5.8169213            0   -3.9399248    5.7560827    4346.0008 
    3000   0.91870288   -6.4042901            0   -5.0265803    5.5169024     4111.363 
    4000   0.49280867   -7.0206328            0   -6.2816046    5.6288266    3867.4933 
Loop time of 0.455738 on 48 procs for 2000 steps with 4000 atoms

Performance: 758330.774 tau/day, 4388.488 timesteps/s
99.7% CPU use with 48 MPI tasks x no OpenMP threads

MPI task timing breakdown:
Section |  min time  |  avg time  |  max time  |%varavg| %total
---------------------------------------------------------------
Pair    | 0.21095    | 0.22234    | 0.237      |   1.1 | 48.79
Neigh   | 0.02465    | 0.025706   | 0.027811   |   0.4 |  5.64
Comm    | 0.14442    | 0.15636    | 0.16939    |   1.5 | 34.31
Output  | 4.6534e-05 | 4.802e-05  | 6.2292e-05 |   0.0 |  0.01
Modify  | 0.037339   | 0.046095   | 0.051631   |   2.2 | 10.11
Other   |            | 0.005185   |            |       |  1.14

Nlocal:        83.3333 ave          90 max          76 min
Histogram: 1 1 3 9 5 11 8 6 2 2
Nghost:        1681.46 ave        1702 max        1662 min
Histogram: 1 2 4 7 11 8 6 8 0 1
Neighs:        9921.40 ave       10842 max        8976 min
Histogram: 1 4 2 7 10 9 6 2 6 1

Total # of neighbors = 476227
Ave neighs/atom = 119.05675
Neighbor list builds = 112
Dangerous builds = 0

#############################
# F R E E Z E  S Y S T E M  #
#############################

# Define solid atoms. This closely follows ten Wolde  Ruiz-Montero and Frenkel  Faraday Discuss  1996  104  93-110
# Compute components of the per-atom q6 vector
compute q6 all orientorder/atom degrees 1 6 components 6 nnn NULL cutoff 1.3 # compute the Q6 parameter.
                                                                             # Use all neighbours within 1.3 unit cell.

# get number of connections
compute coord_number all coord/atom orientorder q6 0.5

# An atom is solid if it has 8 or more connections (of a possible 14)
variable is_solid atom c_coord_number>=8
group solid dynamic all var is_solid    # Must be dynamic to update
dynamic group solid defined

# do clustering
compute cluster solid cluster/atom 1.3 # Create a cluster where all atoms within are solid and max 1.3 units from another member

# define chunks one chunk per cluster
compute clus_chunks solid chunk/atom c_cluster nchunk every compress yes  # Says which atoms are in which chunk

# count the size of each chunk
compute size_chunks solid property/chunk clus_chunks count


# Find the maximum entry in the vector of chunk sizes
variable max_n equal max(c_size_chunks)


# Thermo style which includes this variable
thermo_style custom step temp pe vol v_max_n

thermo ${N}  # Print the thermo information every 100 steps
thermo 1000  

# Reset the npt fix at a lower temperature (below freezing)
fix 1  all npt temp  ${temp} ${temp}  0.1  iso  5.68  5.68  0.5  mtk yes tchain  5  pchain  5
fix 1  all npt temp  0.42 ${temp}  0.1  iso  5.68  5.68  0.5  mtk yes tchain  5  pchain  5
fix 1  all npt temp  0.42 0.42  0.1  iso  5.68  5.68  0.5  mtk yes tchain  5  pchain  5

dump dmp2 all dcd ${N} traj_${rand}.dcd
dump dmp2 all dcd 1000 traj_${rand}.dcd
dump dmp2 all dcd 1000 traj_462431.dcd


# fix rnuntil all halt ${N} v_max_n >= 3980 error soft message no   # Stop when solidified


run 1000000 # 5000000  # Run for this many steps
Neighbor list info ...
  update every 1 steps, delay 10 steps, check yes
  max neighbors/atom: 2000, page size: 100000
  master list distance cutoff = 3.8
  ghost atom cutoff = 3.8
  binsize = 1.9, bins = 9 9 9
  4 neighbor lists, perpetual/occasional/extra = 1 3 0
  (1) pair lj/cut, perpetual
      attributes: half, newton on
      pair build: half/bin/atomonly/newton
      stencil: half/bin/3d
      bin: standard
  (2) compute orientorder/atom, occasional
      attributes: full, newton on
      pair build: full/bin/atomonly
      stencil: full/bin/3d
      bin: standard
  (3) compute coord/atom, occasional
      attributes: full, newton on
      pair build: full/bin/atomonly
      stencil: full/bin/3d
      bin: standard
  (4) compute cluster/atom, occasional
      attributes: full, newton on
      pair build: full/bin/atomonly
      stencil: full/bin/3d
      bin: standard
Per MPI rank memory allocation (min/avg/max) = 9.385 | 9.388 | 9.390 Mbytes
Step Temp PotEng Volume v_max_n 
    4000   0.49280867   -7.0206328    3867.4933           20 
    5000   0.42828498    -7.179734    3800.5763           49 
    6000   0.42688286   -7.2135395    3799.8662           70 
    7000   0.42409928   -7.2307778    3802.2264          112 
    8000   0.41643948   -7.2409718    3789.1636          256 
    9000   0.43012542   -7.2616395    3792.6367          311 
   10000   0.42793054   -7.2573959    3791.4891          292 
   11000   0.42682818   -7.2641146    3794.4422          423 
   12000   0.42175525   -7.2618087     3787.765          313 
   13000   0.41654219   -7.2459763    3773.1236          454 
   14000   0.41924664   -7.2816495    3784.3371          481 
   15000   0.42233902   -7.2676349     3777.282          549 
   16000   0.41606004   -7.2732213    3780.4765          595 
   17000    0.4229242   -7.2816957    3780.9259          583 
   18000   0.42675718   -7.2893541    3785.8021          705 
   19000   0.43306883   -7.2896981    3781.7228          652 
   20000   0.42378796   -7.2889424    3780.1604          680 
   21000   0.42431142   -7.2866613    3777.7865          744 
   22000    0.4197721   -7.2869957    3778.2711          709 
   23000   0.41819816   -7.2855536    3766.8301          931 
   24000    0.4116719   -7.3034781    3769.8458          903 
   25000   0.42765597   -7.2839869    3770.9989          872 
   26000   0.41947117   -7.2921533    3773.4862          891 
   27000   0.41575322    -7.295611    3773.9532         1006 
   28000   0.41972211    -7.303969    3778.8744          981 
   29000    0.4159978   -7.3125467     3776.539          961 
   30000   0.41731784   -7.2985976    3756.6118          968 
   31000   0.41918699   -7.2969542    3769.9165         1089 
   32000   0.42925869   -7.2967298    3778.1963         1081 
   33000   0.42416344   -7.3028465    3769.6283         1008 
   34000   0.41573683   -7.3124636    3766.6266         1022 
   35000   0.41514596   -7.3067819    3768.8888         1198 
   36000   0.41357881   -7.3103598    3767.6041         1167 
   37000   0.42270498     -7.31959    3767.4494         1174 
   38000   0.42013726   -7.3121709    3765.3072         1104 
   39000   0.41881866   -7.3177983    3770.4153         1182 
   40000    0.4221229   -7.3228801    3775.7819         1186 
   41000   0.42662513   -7.2954194    3768.1422         1213 
   42000   0.42018928   -7.3267121    3763.7212         1244 
   43000   0.42208694    -7.318395    3769.2854         1149 
   44000   0.41856998   -7.3199216    3773.0049         1221 
   45000   0.42625147   -7.3078693    3768.4755         1312 
   46000   0.42124441   -7.3225204    3771.6329         1275 
   47000   0.41231983    -7.329999     3765.717         1378 
   48000   0.42362718   -7.3140316    3757.8867         1410 
   49000   0.42277638   -7.3321305    3763.1497         1424 
   50000    0.4081817   -7.3060452     3765.883         1414 
   51000   0.43216272   -7.3254162    3761.2915         1413 
   52000   0.42256457   -7.3289907    3765.1064         1402 
   53000   0.42213588   -7.3297834    3769.9484         1423 
   54000   0.42222801   -7.3203656    3765.4894         1430 
   55000   0.42756298   -7.3088557    3769.8777         1405 
   56000   0.41496433   -7.3310553    3769.3126         1472 
   57000   0.42749156   -7.3272697    3765.7418         1527 
   58000   0.42696187    -7.327205    3764.3689         1564 
   59000   0.42410059   -7.3247357    3770.7877         1625 
   60000   0.42564857   -7.3550105    3768.8455         1672 
   61000   0.41477411   -7.3309673    3753.5891         1752 
   62000    0.4243818    -7.331645    3767.9489         1794 
   63000   0.42810915    -7.340968    3766.3372         1714 
   64000   0.43411183   -7.3622126    3756.8941         1858 
   65000   0.42405335    -7.332803    3766.6694         1822 
   66000    0.4222769    -7.341609    3760.4855         1833 
   67000   0.42020864   -7.3409217      3759.03         1890 
   68000   0.42485278   -7.3305177    3768.3818         1922 
   69000   0.42492046   -7.3527759    3763.1736         2006 
   70000   0.43765946   -7.3502817    3756.7956         2029 
   71000   0.41658876   -7.3500585     3756.202         2021 
   72000   0.42706827   -7.3615696    3761.1214         2094 
   73000   0.42389873   -7.3555778    3748.3506         2050 
   74000   0.43280212   -7.3468858    3750.0515         2114 
   75000    0.4237379   -7.3555521     3759.361         2146 
   76000   0.42753312   -7.3588421    3760.7475         2103 
   77000   0.42197222   -7.3514794    3752.0396         2139 
   78000   0.43422595   -7.3624145    3753.2428         2145 
   79000   0.43161173    -7.375024    3747.6689         2268 
   80000   0.41545896   -7.3655965    3758.4133         2262 
   81000   0.42613815   -7.3769033    3749.8054         2336 
   82000   0.41695486    -7.377571    3745.8828         2316 
   83000   0.42501753   -7.3656412    3755.3097         2318 
   84000   0.41697957   -7.3611222    3750.0192         2396 
   85000   0.42560462   -7.3679521    3759.8371         2337 
   86000   0.41860473   -7.3893489    3750.1056         2347 
   87000   0.42032206   -7.3787725    3741.7782         2384 
   88000   0.41553927   -7.3818501    3748.0322         2394 
   89000   0.42494402    -7.377689    3750.2879         2445 
   90000   0.42338492   -7.3816028    3757.5829         2399 
   91000   0.42026735   -7.3843299    3740.1909         2446 
   92000   0.42189927    -7.384887    3747.8397         2577 
   93000   0.41874922   -7.4046732    3746.3063         2508 
   94000   0.41722374   -7.4047329    3738.9555         2543 
   95000   0.41312251   -7.3931058    3746.8431         2577 
   96000   0.42294664   -7.3883909    3742.5629         2573 
   97000   0.41844911   -7.4083329    3743.4275         2611 
   98000   0.41901946   -7.3870887    3748.9506         2576 
   99000   0.43136868   -7.3935651     3735.131         2721 
  100000   0.41755561   -7.3932542    3741.2689         2668 
  101000   0.43097715   -7.3983849    3739.6063         2696 
  102000   0.42557883   -7.4060585    3743.9887         2741 
  103000   0.41381771    -7.407436    3732.2166         2785 
  104000   0.41242663   -7.4131657    3750.1883         2736 
  105000   0.42134855   -7.4013602    3746.7513         2703 
  106000   0.42367201   -7.4153925    3747.0305         2781 
  107000   0.42313967   -7.4208314    3743.3031         2817 
  108000   0.42586812   -7.4196048    3744.0526         2868 
  109000   0.42604515   -7.4255274    3740.9761         2835 
  110000   0.42517925   -7.4126046    3739.6284         2889 
  111000   0.42164684    -7.412162    3743.6557         2844 
  112000   0.42498935    -7.425754    3741.1244         2905 
  113000   0.42723974   -7.4339463    3741.6074         2944 
  114000   0.42319329   -7.4213467    3734.4619         2942 
  115000   0.41907449   -7.4368918    3733.2033         2972 
  116000   0.43048504    -7.444267    3730.1104         3000 
  117000   0.42525547   -7.4304721    3728.7888         3056 
  118000   0.41585356   -7.4441967    3733.1497         3027 
  119000   0.41563039   -7.4441184    3736.8291         3049 
  120000    0.4211557   -7.4575449    3736.5804         2961 
  121000   0.43059218   -7.4502262    3735.3285         2988 
  122000   0.42079927   -7.4419791    3733.6452         2976 
  123000   0.44226445   -7.4390194    3734.1294         3052 
  124000   0.41717786   -7.4452975    3737.3945         3087 
  125000   0.42564941   -7.4419822    3733.2977         3100 
  126000    0.4128144   -7.4485432    3729.6131         3092 
  127000   0.42518734   -7.4413449    3725.1699         3119 
  128000   0.41375576   -7.4460623    3731.3813         3133 
  129000   0.42372343   -7.4486252    3729.5437         3205 
  130000   0.41303313   -7.4327918    3738.0653         3127 
  131000   0.41702213   -7.4615311    3733.7198         3198 
  132000     0.429171    -7.440365    3722.1133         3214 
  133000   0.43208044   -7.4561784    3729.2435         3210 
  134000   0.42614926   -7.4604456    3721.8855         3223 
  135000   0.42450317   -7.4463494    3725.4286         3282 
  136000   0.42792205    -7.478267    3724.2816         3280 
  137000    0.4200202   -7.4671002    3723.4505         3242 
  138000   0.42427573    -7.474542    3723.1152         3296 
  139000   0.41706362   -7.4720253    3729.6545         3307 
  140000   0.41824972   -7.4703886    3723.5751         3280 
  141000   0.41706655   -7.4879344    3729.2365         3317 
  142000   0.42678993   -7.4727749    3712.4258         3352 
  143000    0.4209354   -7.4935922     3720.357         3399 
  144000   0.42858428     -7.48907    3710.2643         3409 
  145000   0.42014799   -7.4977616    3713.4412         3453 
  146000   0.41245192   -7.5126363    3716.7222         3408 
  147000    0.4143936   -7.5108469    3715.0551         3468 
  148000   0.41307059   -7.5094023      3722.11         3484 
  149000   0.42202832   -7.5153083     3713.788         3534 
  150000   0.41140351   -7.5153124    3714.3933         3506 
  151000   0.41523155   -7.5171787    3704.4562         3511 
  152000    0.4166393   -7.5389895    3711.3261         3552 
  153000   0.42258878   -7.5418018    3706.7066         3562 
  154000   0.41779961   -7.5281345    3710.1601         3568 
  155000   0.41597068   -7.5425391    3714.3865         3596 
  156000    0.4239707   -7.5383779     3701.651         3558 
  157000   0.41702698   -7.5474894    3701.8838         3602 
  158000   0.41993706   -7.5497905    3706.4949         3598 
  159000   0.41858335   -7.5534017    3708.5291         3589 
  160000    0.4245247   -7.5530253    3707.1105         3602 
  161000   0.41770039   -7.5650148    3703.9049         3564 
  162000   0.41735807   -7.5669635    3701.1903         3608 
  163000   0.41241863    -7.559636     3694.269         3592 
  164000   0.42164409   -7.5589804    3697.1324         3618 
  165000    0.4165017    -7.542045    3702.9935         3608 
  166000   0.42183596   -7.5496602    3697.6087         3618 
  167000   0.41985783   -7.5577611    3700.2703         3606 
  168000   0.43030977   -7.5462934    3702.9258         3630 
  169000   0.42238615   -7.5676323    3698.0625         3614 
  170000   0.42196889   -7.5624028    3697.5803         3615 
  171000   0.42116659   -7.5706094     3699.666         3607 
  172000   0.41694007   -7.5797662    3708.7582         3620 
  173000   0.41729885   -7.5735765    3706.1364         3582 
  174000   0.41055214   -7.5547305    3700.2278         3619 
  175000   0.42156351   -7.5655346    3703.8158         3617 
  176000   0.41877005   -7.5511485    3698.9122         3644 
  177000   0.42026575   -7.5565718    3694.6125         3634 
  178000    0.4147104   -7.5669743    3701.4582         3618 
  179000    0.4194712   -7.5743206    3694.3458         3624 
  180000   0.41841213   -7.5694085    3702.3898         3641 
  181000   0.42717087   -7.5596392    3702.3378         3634 
  182000   0.42941762   -7.5722771    3703.9952         3613 
  183000   0.42567083   -7.5715624    3691.2771         3634 
  184000   0.42401354   -7.5670574     3698.831         3678 
  185000   0.42006474   -7.5676388    3699.4432         3678 
  186000   0.42356607    -7.566802    3701.5826         3651 
  187000   0.41237971    -7.554974    3695.4144         3633 
  188000   0.41567021   -7.5893617    3703.0754         3658 
  189000   0.42354796   -7.5682129    3701.4445         3637 
  190000   0.41129173   -7.5803246    3697.1379         3635 
  191000   0.41852079   -7.5696891    3691.0521         3642 
  192000   0.41802581   -7.5746061    3699.6551         3601 
  193000   0.42346965   -7.5806986    3698.4925         3669 
  194000   0.41354645    -7.565915    3697.4345         3621 
  195000   0.42556573   -7.5903747    3705.6322         3627 
  196000   0.41768598   -7.5680061    3694.9288         3635 
  197000   0.41938718   -7.5820653    3697.5799         3615 
  198000   0.41840405   -7.5712987    3699.1864         3665 
  199000   0.42808584   -7.5871584    3705.7236         3670 
  200000   0.42195836   -7.5746748    3702.2093         3672 
  201000   0.42025359   -7.5688246    3691.0625         3664 
  202000   0.41943384   -7.5862045    3696.9896         3653 
  203000   0.41540425   -7.5749439    3698.0226         3685 
  204000   0.41313071   -7.5937007    3694.7908         3670 
  205000   0.42501829   -7.5807079    3686.4056         3685 
  206000   0.41915257   -7.5768359     3700.997         3692 
  207000   0.41434018   -7.5772188    3695.9782         3679 
  208000   0.41417189   -7.5802493    3690.0863         3658 
  209000   0.41402431   -7.5642316    3700.1139         3663 
  210000   0.42031992   -7.5772376    3697.1538         3683 
  211000   0.41400317   -7.5849728    3701.8656         3689 
  212000   0.41720424   -7.5690075    3686.3649         3674 
  213000   0.42082245   -7.5926412    3697.4113         3666 
  214000   0.41625869   -7.5665927    3698.8539         3669 
  215000   0.41898842   -7.5675182    3703.2815         3697 
  216000    0.4246673   -7.5681663    3692.3286         3669 
  217000   0.43126879   -7.5800238    3691.5979         3697 
  218000   0.41450312   -7.5793129    3704.3921         3679 
  219000   0.41847644   -7.5698295    3696.7381         3686 
  220000   0.40856669   -7.5798481    3692.2996         3683 
  221000   0.41228948   -7.5840569    3695.0842         3707 
  222000    0.4181633   -7.5810653    3695.6053         3690 
  223000    0.4178854   -7.5784167    3695.3978         3703 
  224000   0.42795733   -7.5723094    3699.3871         3682 
  225000   0.42424694   -7.5838038     3695.783         3701 
  226000   0.41178493   -7.5811936    3694.5658         3716 
  227000   0.41540931   -7.5850993    3699.4974         3664 
  228000   0.41512879   -7.5739963    3694.6487         3699 
  229000    0.4221095   -7.5689266    3693.4245         3719 
  230000   0.40819622   -7.5857711    3698.4798         3683 
  231000   0.41286846   -7.5857407    3692.3926         3716 
  232000   0.41791043   -7.5674465    3695.7372         3693 
  233000    0.4214558    -7.571342    3696.9776         3677 
  234000   0.41937062   -7.5727675     3700.842         3713 
  235000   0.41423776    -7.577391    3702.6346         3689 
  236000   0.41454581    -7.586957    3692.0032         3715 
  237000   0.41941538    -7.591205    3690.8598         3690 
  238000   0.43318749   -7.5843756    3696.2363         3711 
  239000   0.41035527   -7.5825906    3703.6836         3683 
  240000   0.41994501   -7.5990157    3696.8262         3674 
  241000   0.41773504   -7.5727445    3689.8631         3686 
  242000   0.42665896   -7.5775561    3687.0812         3684 
  243000   0.42297611    -7.594496    3698.1436         3646 
  244000   0.41881613   -7.5943287     3691.185         3691 
  245000   0.42299479   -7.5905149    3697.0255         3721 
  246000   0.42441031   -7.5941322    3698.2215         3662 
  247000   0.41303527   -7.5857439    3695.4112         3667 
  248000   0.42706491   -7.5737467    3686.4724         3673 
  249000    0.4158867   -7.5801428    3689.9303         3669 
  250000   0.41475651   -7.5896175    3692.2268         3690 
  251000   0.42419984   -7.5752994    3695.8869         3676 
  252000   0.42009659   -7.5921656    3700.6787         3706 
  253000   0.42280661   -7.5825228    3699.2144         3694 
  254000   0.42326196   -7.5823448    3696.8121         3685 
  255000   0.41772962   -7.5761545    3695.7121         3701 
  256000   0.43624828   -7.5880793    3692.8332         3666 
  257000   0.41140123   -7.5848233    3693.6085         3650 
  258000   0.42900007   -7.5843718    3695.4285         3691 
  259000   0.42089496   -7.5883827    3700.6358         3705 
  260000   0.41594529   -7.5869062    3690.5039         3673 
  261000   0.41871983   -7.5970646    3690.8354         3686 
  262000   0.41524462   -7.5936191     3689.924         3689 
  263000   0.42209028   -7.5894697     3693.213         3703 
  264000   0.41432473   -7.5876732    3688.7553         3705 
  265000   0.42086359   -7.5905704    3689.1539         3686 
  266000   0.42123991    -7.588146    3688.1425         3694 
  267000    0.4352193     -7.59641    3689.8063         3657 
  268000   0.41777937   -7.5887315    3692.4562         3645 
  269000   0.41852311   -7.6129383    3697.5218         3698 
  270000   0.42754772   -7.5954686      3698.27         3675 
  271000   0.41652905   -7.6030512    3705.5519         3658 
  272000   0.41612125   -7.5829296    3693.3136         3644 
  273000   0.41382964   -7.6005056    3693.5308         3651 
  274000   0.42504406   -7.5927162    3688.8686         3683 
  275000   0.41929889    -7.589909    3692.2171         3688 
  276000   0.41432355   -7.5805556    3704.3692         3699 
  277000   0.42987415   -7.5867773    3693.7541         3642 
  278000   0.41326755   -7.5819873    3700.0933         3683 
  279000   0.41598894   -7.6108835    3691.3482         3684 
  280000   0.42242189   -7.5942949     3700.057         3691 
  281000   0.42757042   -7.5773471    3688.3931         3690 
  282000   0.42315547   -7.5913191    3698.7418         3702 
  283000   0.43464382   -7.5930171    3688.8916         3722 
  284000   0.42466129   -7.5893576    3694.6129         3693 
  285000   0.41781662   -7.5958745    3688.6876         3723 
  286000   0.41152933   -7.5851344    3685.2786         3707 
  287000   0.41663927   -7.5897167    3698.8735         3721 
  288000   0.42172935   -7.5935054       3688.9         3719 
  289000   0.42645275   -7.5873076    3690.7677         3691 
  290000   0.41652154   -7.5931943    3694.8435         3726 
  291000   0.42704181   -7.6014586    3695.3349         3696 
  292000   0.41668762   -7.5956645    3693.2927         3683 
  293000   0.42217056   -7.5868597    3688.5785         3707 
  294000   0.41352247   -7.6173467    3686.7696         3697 
  295000   0.41980867     -7.59756    3698.1632         3695 
  296000   0.41878681   -7.5924768    3688.7881         3693 
  297000   0.41715994   -7.5951171    3690.5256         3714 
  298000   0.42681011   -7.5803805    3689.0486         3688 
  299000   0.41605912   -7.5949469    3691.4157         3705 
  300000    0.4225856   -7.5875171    3691.2872         3706 
  301000   0.41921141   -7.5883623     3695.447         3690 
  302000   0.41643472   -7.5887684    3681.2727         3702 
  303000   0.41655089   -7.6037267    3697.5671         3717 
  304000   0.42371521   -7.5962513    3690.6315         3657 
  305000   0.41445847   -7.5995829    3693.4127         3681 
  306000   0.40994665   -7.5997236      3690.59         3698 
  307000    0.4201502     -7.59941    3693.1959         3700 
  308000   0.42389138     -7.59813    3690.2742         3677 
  309000   0.41630603   -7.5961373    3697.4685         3686 
  310000   0.42797819   -7.5844795    3687.0142         3670 
  311000   0.41863629   -7.5894259    3693.4618         3688 
  312000   0.41161818   -7.5862999    3696.2083         3669 
  313000   0.42368903   -7.5931428    3689.6239         3691 
  314000    0.4207377   -7.5862644    3692.3228         3676 
  315000   0.41704216   -7.5935042    3688.2605         3690 
  316000   0.42616786   -7.6022007    3691.5167         3682 
  317000   0.41546589   -7.6016623    3694.5481         3664 
  318000   0.42062399   -7.5995538    3691.5183         3696 
  319000   0.41603957   -7.5753697    3685.6194         3650 
  320000   0.41722807   -7.5930141    3695.4666         3687 
  321000   0.41716669   -7.5983112    3691.3095         3686 
  322000    0.4148268   -7.6033761    3692.0286         3697 
  323000   0.42818523   -7.6033944    3691.1226         3706 
  324000   0.41585625   -7.5924717    3695.6577         3701 
  325000   0.41475948   -7.5918162    3692.1624         3692 
  326000   0.41946473   -7.5820594    3688.9862         3686 
  327000   0.42696904   -7.5811227    3698.2146         3711 
  328000   0.42068392   -7.5967965    3681.7319         3695 
  329000   0.41800273    -7.587129    3688.9169         3690 
  330000   0.42208145   -7.5997729    3696.7211         3728 
  331000   0.42127211   -7.5923253    3689.1606         3682 
  332000   0.42865916   -7.6004298    3691.8684         3672 
  333000   0.42688167   -7.6110252     3693.779         3704 
  334000   0.41395584   -7.5793603    3699.3196         3682 
  335000   0.42146955   -7.5812613     3689.719         3658 
  336000   0.40968262   -7.5870977    3690.9328         3701 
  337000   0.42255594   -7.5919664    3691.2572         3704 
  338000   0.41535767   -7.6077601    3688.7575         3704 
  339000   0.42050135   -7.5875201     3697.064         3672 
  340000   0.41776656   -7.5869833    3690.8486         3692 
  341000   0.41708574   -7.5894083    3685.7929         3690 
  342000    0.4190797   -7.5916955    3701.0179         3717 
  343000   0.41703512    -7.591776    3693.1279         3722 
  344000   0.42132059   -7.5891217    3693.2542         3689 
  345000   0.41188862   -7.5898746    3699.5676         3667 
  346000   0.42068148    -7.597171    3688.3421         3695 
  347000   0.41982777   -7.5894564    3688.4675         3713 
  348000   0.42340642   -7.6058804    3691.8023         3711 
  349000   0.41899596   -7.6038337    3695.7552         3697 
  350000   0.41743398   -7.5846124    3697.4513         3717 
  351000   0.42604781   -7.5804707    3690.1535         3696 
  352000   0.42189601   -7.6038541    3696.7853         3691 
  353000   0.41209921   -7.6067833    3694.7828         3707 
  354000    0.4210616   -7.5953952    3696.2688         3708 
  355000   0.42077019   -7.5892188    3691.2875         3707 
  356000   0.41184041   -7.5958945    3693.0353         3705 
  357000       0.4326   -7.5901974    3691.2987         3694 
  358000   0.41396415   -7.5965568    3688.6094         3687 
  359000   0.41418594   -7.5910842    3689.5829         3699 
  360000   0.41216539   -7.5854451    3698.4892         3679 
  361000   0.42258204   -7.5983183    3696.1915         3709 
  362000    0.4222237   -7.5744212    3689.8017         3724 
  363000   0.41956012   -7.5887263     3689.816         3686 
  364000    0.4169369   -7.5795531    3684.3741         3670 
  365000   0.42006193   -7.5967936     3692.686         3724 
  366000   0.42115025    -7.579275     3688.435         3698 
  367000   0.41835233   -7.5853643    3693.4201         3674 
  368000   0.42274893   -7.5915423    3693.0886         3713 
  369000   0.41547936   -7.6010699    3692.3347         3710 
  370000   0.41740858   -7.5975641    3698.3473         3699 
  371000   0.41747764   -7.5871172    3689.2924         3704 
  372000   0.42262225   -7.5987983    3693.0672         3658 
  373000   0.41097079   -7.5938476    3698.0426         3672 
  374000   0.42527494   -7.5792829    3689.1281         3682 
  375000   0.41032914   -7.5947868    3687.6859         3693 
  376000   0.42284868   -7.5934841     3699.425         3682 
  377000   0.41204872   -7.6037351    3690.5386         3675 
  378000    0.4178261   -7.6010238    3687.6463         3697 
  379000   0.42567542   -7.5949283    3687.8766         3691 
  380000   0.41539845   -7.5871271    3694.3915         3682 
  381000   0.42483755   -7.6030853    3691.1616         3682 
  382000   0.41655706   -7.5907409    3687.5882         3715 
  383000    0.4230126   -7.5995066    3697.6138         3687 
  384000   0.41774963   -7.6050582    3692.9824         3702 
  385000   0.41539687   -7.5963275    3696.8532         3695 
  386000   0.42685821   -7.5973743    3689.6096         3716 
  387000   0.42257788   -7.6039167    3688.2849         3690 
  388000   0.41938114   -7.5994826    3694.1896         3725 
  389000   0.42549714   -7.5809342    3693.5931         3721 
  390000   0.42662808   -7.5987257    3700.3206         3728 
  391000   0.42510174   -7.5898046     3693.003         3697 
  392000   0.41790525    -7.582102    3685.1626         3710 
  393000   0.42164282   -7.5971585    3688.4416         3719 
  394000   0.42480039   -7.5967695    3687.0719         3708 
  395000   0.42180339   -7.5893711    3690.9393         3697 
  396000   0.41702208   -7.5856622    3691.4513         3703 
  397000   0.41388283   -7.5978066    3690.7438         3683 
  398000    0.4217779   -7.5790945     3684.459         3683 
  399000   0.42456091   -7.5906059    3701.0373         3721 
  400000   0.42330629   -7.5938758    3689.9726         3717 
  401000   0.41981592   -7.5872646    3689.5544         3724 
  402000    0.4176735   -7.5836998    3687.8584         3712 
  403000   0.42070502   -7.5767163     3691.263         3701 
  404000   0.42572158   -7.5912614    3696.7888         3704 
  405000   0.41796618   -7.5827079    3688.3619         3697 
  406000     0.416178   -7.5852029    3686.0527         3684 
  407000   0.41930693   -7.5855134    3686.5025         3714 
  408000   0.41749413   -7.6046583    3699.4456         3682 
  409000   0.41113007   -7.5823527    3689.4146         3696 
  410000   0.43115002   -7.5911794    3688.5177         3709 
  411000   0.42051721   -7.6090602    3692.7193         3690 
  412000   0.41190122   -7.5948332    3691.9498         3690 
  413000   0.42330935   -7.6017727    3693.9671         3694 
  414000   0.41160218   -7.5958074    3686.8511         3705 
  415000   0.42587127   -7.5916894    3690.2948         3688 
  416000   0.42096226    -7.594098    3691.2295         3710 
  417000   0.41849214    -7.600212    3691.3824         3678 
  418000   0.41970675   -7.5956117    3692.6861         3711 
  419000   0.42664334   -7.5824313       3685.8         3716 
  420000   0.42284051   -7.6031427    3696.9639         3718 
  421000   0.41683989   -7.5921261    3689.1918         3711 
  422000   0.42078882   -7.5910136    3693.6073         3712 
  423000   0.41759301   -7.6072826    3693.8546         3703 
  424000   0.42745528    -7.586179    3696.5689         3711 
  425000    0.4230982   -7.5881634    3687.4305         3695 
  426000   0.41836226   -7.5884785     3697.123         3691 
  427000   0.41519701   -7.5996107    3688.1753         3681 
  428000   0.41565598    -7.574789    3685.2655         3694 
  429000   0.41592188   -7.5839782    3687.5139         3693 
  430000   0.42287745   -7.6001784    3691.6304         3698 
  431000   0.42072994   -7.5967765    3693.2259         3682 
  432000    0.4201282   -7.5913001    3687.7944         3672 
  433000   0.41005747   -7.5846384    3693.0673         3704 
  434000   0.42061891   -7.5764633    3687.8518         3716 
  435000   0.42238526   -7.6109201    3692.6442         3687 
  436000   0.42189933   -7.5826211    3687.0501         3679 
  437000   0.42133604   -7.5905576    3697.6437         3698 
  438000   0.41818318   -7.5993939    3689.4252         3687 
  439000   0.41624027   -7.5876692    3682.9974         3686 
  440000   0.41060412   -7.5928239    3688.3316         3695 
  441000   0.41650311   -7.5916796    3689.2151         3705 
  442000   0.41858218   -7.5865256    3689.1721         3687 
  443000   0.42349892   -7.5793607    3693.6972         3710 
  444000   0.40900805   -7.5849611    3696.5348         3710 
  445000   0.42126515   -7.6003173    3683.2621         3700 
  446000   0.42280755   -7.5939543    3692.5057         3704 
  447000   0.41647019   -7.5746696    3686.4966         3703 
  448000   0.41580588   -7.5941147    3698.0591         3703 
  449000   0.41646896   -7.5920259    3691.2143         3680 
  450000   0.40913446   -7.5837007    3694.8064         3689 
  451000    0.4159576    -7.583145    3694.1456         3712 
  452000   0.42264345   -7.5915831    3697.2502         3690 
  453000   0.41526846   -7.5989258    3694.6564         3720 
  454000   0.41748405   -7.6048607    3696.4579         3706 
  455000   0.41487545   -7.5906613    3688.3389         3688 
  456000   0.41516207   -7.6165059    3695.2426         3723 
  457000   0.42400691   -7.6010328    3691.9793         3706 
  458000   0.41981558   -7.5807085    3685.7095         3704 
  459000   0.41318066   -7.5827415    3690.3273         3677 
  460000   0.42082705   -7.5827569    3683.7415         3697 
  461000   0.42593723   -7.5959093    3695.8778         3686 
  462000   0.42379936   -7.5945004    3690.7957         3711 
  463000   0.42028674   -7.5931787    3693.2076         3686 
  464000   0.41955704   -7.5858527    3693.3354         3683 
  465000   0.41806071   -7.5916362    3691.9234         3700 
  466000   0.42205478   -7.5878641    3694.9814         3700 
  467000   0.41924257   -7.5818665    3690.4805         3690 
  468000   0.40980981    -7.588185    3689.2698         3719 
  469000   0.42360692   -7.5928779    3688.0751         3711 
  470000   0.42094197    -7.602982    3691.6398         3722 
  471000   0.41175565   -7.5875325    3690.6387         3707 
  472000   0.41323312   -7.5848759     3688.827         3689 
  473000   0.41498476   -7.5948402    3690.3832         3689 
  474000   0.41839544   -7.5800899    3692.7642         3707 
  475000   0.40933053   -7.5924917    3701.1383         3702 
  476000   0.41652472   -7.5833362    3690.9472         3709 
  477000   0.41344933   -7.5831963    3693.1693         3704 
  478000   0.42146589   -7.5862938    3690.8138         3698 
  479000   0.42652348    -7.602964    3688.5313         3696 
  480000   0.41581072   -7.5818832    3691.3902         3684 
  481000   0.41127346   -7.5996801    3700.1814         3694 
  482000   0.41912005   -7.5813839    3688.4687         3715 
  483000   0.43179622   -7.5870153    3692.8292         3721 
  484000   0.41630034   -7.5796761     3689.872         3720 
  485000   0.41005013    -7.576203    3692.8447         3714 
  486000   0.41919981   -7.5917886    3695.5322         3729 
  487000   0.42538637   -7.5932453    3694.5033         3720 
  488000   0.42973502   -7.5914651    3706.1944         3752 
  489000   0.42299319   -7.5865043    3688.7419         3749 
  490000   0.42865834   -7.5889473    3693.2094         3750 
  491000   0.41830248    -7.599491    3691.3197         3736 
  492000   0.42394178   -7.5946101    3688.4428         3730 
  493000   0.41507174   -7.5894754    3691.6671         3726 
  494000   0.41500222   -7.5999406     3696.099         3714 
  495000   0.42307161   -7.5900162    3683.0276         3743 
  496000     0.419423   -7.6145056     3688.697         3778 
  497000   0.41570846   -7.6048752    3693.9407         3743 
  498000    0.4257289   -7.5931938    3690.1199         3729 
  499000   0.42249099    -7.610834    3692.5883         3765 
  500000   0.41789109   -7.5938871    3686.3145         3781 
  501000   0.41793625   -7.5988798    3683.6377         3718 
  502000   0.42319229   -7.6070326    3688.6862         3743 
  503000   0.41482361   -7.6008125    3692.4153         3736 
  504000    0.4168212   -7.6008751    3690.0938         3729 
  505000   0.42733633   -7.6065265    3687.8457         3721 
  506000   0.42087106   -7.6103583    3694.1826         3700 
  507000   0.41556384   -7.5959795    3679.2707         3719 
  508000   0.41806674     -7.60305    3687.3372         3719 
  509000   0.41254792   -7.6158757    3686.0935         3704 
  510000   0.42051529    -7.605327    3691.1406         3702 
  511000   0.41538391   -7.6034107     3693.596         3674 
  512000    0.4146938   -7.5800122    3684.5566         3703 
  513000   0.41445194   -7.6037534    3694.8366         3734 
  514000   0.41779967   -7.5999835    3687.5599         3760 
  515000   0.40868858   -7.5890403    3688.0391         3762 
  516000    0.4256287   -7.6055621     3692.214         3750 
  517000   0.42260213   -7.5996285    3685.4272         3757 
  518000   0.42000852   -7.6063788     3685.676         3771 
  519000   0.41851438    -7.605333    3692.1159         3745 
  520000    0.4297781   -7.6083589    3691.3281         3770 
  521000   0.41654926   -7.5941195    3687.8965         3738 
  522000   0.42622474   -7.5930844    3690.1476         3749 
  523000   0.42008902   -7.5997677    3684.5045         3754 
  524000    0.4136987   -7.6151062    3686.1283         3767 
  525000   0.42155949    -7.603781     3686.591         3758 
  526000   0.41663297   -7.6086496    3684.8294         3768 
  527000   0.41294863   -7.5987645    3679.5953         3759 
  528000   0.41798754   -7.6093098    3691.3859         3750 
  529000   0.42780689   -7.6037602    3683.0924         3764 
  530000   0.41684765   -7.6113973     3690.326         3795 
  531000   0.42783346   -7.6348826    3682.3862         3797 
  532000   0.41602542   -7.6335544    3687.2356         3792 
  533000   0.43205299   -7.6133193    3687.8031         3785 
  534000   0.42322605   -7.6331762    3683.0197         3757 
  535000   0.43038959   -7.6345767    3684.4331         3776 
  536000   0.43013854   -7.6505639    3684.0605         3796 
  537000   0.42340556   -7.6301636    3673.9543         3792 
  538000   0.42415614   -7.6637266    3677.9364         3834 
  539000   0.41981743   -7.6854267    3665.0284         3881 
  540000   0.42301073   -7.7103429    3652.2758         3893 
  541000   0.41887191   -7.7094547    3660.5777         3927 
  542000   0.42487722   -7.7232264    3659.8079         3929 
  543000   0.42219559   -7.7247192    3660.3517         3921 
  544000   0.41654273   -7.7224336    3651.8544         3926 
  545000   0.42123022   -7.7450471    3655.8806         3959 
  546000   0.41435618   -7.7558209    3647.6939         3946 
  547000   0.42189757   -7.7568623    3648.8163         3960 
  548000   0.42094792    -7.769267    3642.9518         3960 
  549000   0.41521689   -7.7718684    3643.1831         3961 
  550000   0.42040321   -7.7932764    3643.1118         3954 
  551000   0.42396269   -7.7981968    3639.0508         3952 
  552000   0.40819956   -7.8196103    3632.6069         3971 
  553000   0.42365752   -7.8203747    3635.9498         3968 
  554000   0.41505688    -7.823357    3630.7432         3987 
  555000   0.42290721   -7.8178245    3635.4913         3988 
  556000   0.42353109    -7.821766    3626.9597         3989 
  557000   0.42414621    -7.833446     3640.553         3991 
  558000    0.4180499   -7.8385622     3627.467         3991 
  559000    0.4074882   -7.8307481    3635.0422         3993 
  560000   0.41898061   -7.8391352     3636.726         3991 
  561000   0.42995814   -7.8365578    3625.4519         3987 
  562000   0.41954475   -7.8243052    3630.8277         3991 
  563000   0.41904398   -7.8314695    3632.3576         3992 
  564000   0.42928444   -7.8374899    3632.0172         3992 
  565000   0.41458572   -7.8297485    3622.1378         3994 
  566000   0.41515003   -7.8318601    3629.8592         3990 
  567000   0.41753019   -7.8217344    3632.5997         3992 
  568000   0.41996813   -7.8302592    3633.6967         3988 
  569000   0.41196855   -7.8296225    3633.9097         3993 
  570000   0.41880718   -7.8221903    3629.4003         3989 
  571000   0.42508341   -7.8308028    3636.9035         3988 
  572000   0.42328234   -7.8370477    3625.1692         3988 
  573000   0.42695353   -7.8356188     3629.124         3986 
  574000   0.41411841   -7.8356889    3630.9581         3988 
  575000   0.41869758   -7.8187567    3623.5286         3988 
  576000    0.4123252   -7.8117677    3620.0421         3987 
  577000   0.41635925   -7.8200896    3632.3161         3989 
  578000   0.41808467   -7.8298417    3634.2118         3987 
  579000   0.41499872   -7.8355735    3629.1066         3991 
  580000   0.41967106   -7.8317542    3625.0995         3984 
  581000    0.4166959   -7.8204325    3634.7076         3990 
  582000   0.41568179   -7.8386191    3626.1131         3990 
  583000   0.41422425   -7.8282596    3632.5845         3989 
  584000   0.42343593   -7.8206749     3622.411         3988 
  585000   0.41878972   -7.8395719      3627.23         3987 
  586000   0.42409222   -7.8324007    3630.7071         3988 
  587000   0.41334344   -7.8245821     3638.508         3990 
  588000   0.41094656   -7.8187618    3633.3227         3982 
  589000   0.42509364   -7.8270839    3629.3351         3989 
  590000   0.41661709   -7.8335552    3625.8778         3986 
  591000   0.41589287   -7.8256794    3628.2509         3993 
  592000   0.42488355   -7.8275675    3627.2286         3987 
  593000   0.41925268    -7.828945    3630.8476         3990 
  594000   0.42385503   -7.8285847    3626.9531         3992 
  595000   0.42325985   -7.8401135    3629.0102         3994 
  596000   0.41910543    -7.844299    3627.8165         3989 
  597000   0.42153635   -7.8240097    3628.3987         3992 
  598000   0.41715782   -7.8358218    3619.4883         3984 
  599000   0.42155373   -7.8430821    3627.8185         3991 
  600000   0.41476177   -7.8365478    3629.0654         3985 
  601000   0.41109152   -7.8413727    3631.4861         3985 
  602000   0.42615249    -7.841624    3630.8445         3992 
  603000   0.42161463    -7.836682    3637.4363         3990 
  604000   0.41345669   -7.8157724    3627.3565         3990 
  605000   0.42954112   -7.8331706    3623.8643         3984 
  606000   0.41720906   -7.8324439    3630.3462         3986 
  607000   0.41213391   -7.8331259    3627.3966         3990 
  608000    0.4214818    -7.828785     3633.669         3987 
  609000   0.42013189   -7.8265314    3623.6827         3987 
  610000    0.4114312   -7.8410457    3632.0483         3991 
  611000     0.412114   -7.8344373    3635.7422         3987 
  612000   0.41127034   -7.8365968    3624.2924         3985 
  613000   0.42745962   -7.8353186    3631.8417         3984 
  614000   0.42900992   -7.8245091    3627.1836         3988 
  615000    0.4249588   -7.8289933    3634.0539         3993 
  616000   0.41857746   -7.8318389     3631.232         3988 
  617000   0.42408464   -7.8376595    3638.3684         3985 
  618000   0.42242653   -7.8282591    3630.7096         3990 
  619000   0.41422415   -7.8310505    3630.0567         3990 
  620000   0.41374102   -7.8292291    3627.0313         3994 
  621000   0.41992953   -7.8333048    3628.5294         3993 
  622000   0.41890507   -7.8304055    3632.4813         3981 
  623000   0.42541774   -7.8360625    3633.2891         3987 
  624000     0.427848   -7.8154805    3629.5286         3992 
  625000   0.41559697   -7.8353332    3633.1489         3992 
  626000   0.42035555   -7.8513647    3637.1935         3989 
  627000   0.41871839   -7.8388077    3629.3437         3982 
  628000    0.4215251   -7.8222935    3627.4238         3984 
  629000   0.41994142   -7.8352109    3629.4427         3986 
  630000   0.43168604   -7.8412625    3632.7631         3989 
  631000   0.42753376   -7.8359868    3628.9227         3986 
  632000   0.42368741   -7.8198332     3628.294         3989 
  633000   0.42414338   -7.8257176    3634.1114         3990 
  634000   0.42367039   -7.8336697    3638.5607         3987 
  635000   0.42544394   -7.8344456    3631.6678         3993 
  636000   0.42743497   -7.8405074    3633.2388         3988 
  637000    0.4224598   -7.8336533    3627.5361         3988 
  638000   0.41953271   -7.8374082     3633.308         3986 
  639000   0.41657918   -7.8287207     3632.058         3992 
  640000   0.42332015   -7.8293282    3634.9616         3985 
  641000   0.41743605   -7.8308832    3619.6142         3982 
  642000   0.41038868    -7.836154    3630.0478         3989 
  643000   0.41621737   -7.8308133    3632.7683         3990 
  644000   0.41973771   -7.8229118    3627.6709         3984 
  645000   0.42538274   -7.8335969    3620.1729         3987 
  646000    0.4198931   -7.8347675    3630.9984         3992 
  647000   0.42190974   -7.8193558    3624.9811         3988 
  648000   0.41843841   -7.8343024    3626.1555         3989 
  649000   0.41556614   -7.8320246    3629.0779         3986 
  650000   0.42038562   -7.8382272    3624.1535         3985 
  651000   0.41827839   -7.8212105    3633.7202         3981 
  652000   0.43022764   -7.8220761    3632.4637         3992 
  653000   0.42017507    -7.827725    3628.3387         3988 
  654000   0.41373678   -7.8325713    3628.9903         3991 
  655000   0.42132603   -7.8312811    3624.5051         3987 
  656000   0.42492944   -7.8423896    3635.0368         3990 
  657000   0.42026256   -7.8389548      3625.47         3984 
  658000   0.42096773   -7.8389393    3626.5151         3984 
  659000    0.4208286   -7.8360957    3622.6948         3990 
  660000   0.41531022   -7.8335112    3627.5957         3984 
  661000   0.41805343   -7.8314976    3627.0473         3984 
  662000   0.42161313   -7.8259901    3633.4116         3984 
  663000    0.4248355   -7.8319244    3630.7976         3983 
  664000   0.41853657   -7.8243841    3630.9342         3981 
  665000   0.41452766   -7.8259737    3632.1954         3983 
  666000   0.42597798   -7.8433712    3632.4211         3988 
  667000   0.43053104   -7.8313021    3632.4374         3984 
  668000   0.41133341   -7.8221955    3634.9787         3987 
  669000   0.42792982   -7.8334489    3638.6238         3985 
  670000   0.40834779   -7.8155038    3629.6663         3986 
  671000   0.42341121   -7.8314958    3630.5439         3986 
  672000   0.41683072   -7.8187101    3628.8199         3979 
  673000   0.41100406   -7.8477863    3626.6615         3986 
  674000   0.41787755   -7.8493204    3641.0833         3988 
  675000   0.42071345    -7.836943    3627.7417         3981 
  676000   0.41393545   -7.8332286    3637.0677         3981 
  677000   0.39889455   -7.8326882    3631.3784         3986 
  678000   0.42207442   -7.8401172    3625.4668         3986 
  679000   0.41899494   -7.8392565    3633.2629         3979 
  680000   0.41772907    -7.833577     3625.086         3989 
  681000   0.42291913   -7.8329032    3634.7398         3981 
  682000   0.41407796   -7.8292949    3636.8811         3984 
  683000   0.41350474    -7.845883    3634.9147         3987 
  684000    0.4167369   -7.8211488    3626.7092         3985 
  685000    0.4158528   -7.8300257    3625.7457         3982 
  686000   0.41962647   -7.8495179    3634.4009         3980 
  687000   0.42057205   -7.8418767     3625.982         3989 
  688000    0.4137276   -7.8321412    3628.8218         3989 
  689000   0.41382155   -7.8320045    3627.4983         3988 
  690000   0.41842037   -7.8268352    3634.8222         3987 
  691000   0.41878011   -7.8488233    3636.3615         3989 
  692000    0.4248039   -7.8441087    3628.1048         3992 
  693000   0.41281304   -7.8386253    3627.6427         3990 
  694000   0.42375347   -7.8358528    3633.3673         3983 
  695000   0.41773986    -7.833469    3632.2177         3995 
  696000   0.41934098   -7.8446496    3633.3113         3990 
  697000   0.41393431   -7.8282641    3628.2482         3991 
  698000   0.41925556   -7.8389253    3632.1266         3991 
  699000   0.42631597   -7.8386236    3633.3728         3990 
  700000   0.42508345   -7.8426719    3630.8317         3990 
  701000   0.41419304   -7.8344361    3629.5241         3990 
  702000   0.43022949   -7.8295792    3628.3754         3986 
  703000   0.42277431   -7.8344278    3641.0675         3991 
  704000   0.41400131   -7.8340997    3631.6036         3988 
  705000   0.42453941   -7.8272408    3637.1227         3989 
  706000   0.41939216   -7.8201024    3629.8098         3991 
  707000   0.42615589   -7.8259855     3633.866         3990 
  708000   0.42179852   -7.8247504    3628.4664         3992 
  709000   0.42301136   -7.8255535    3633.1541         3988 
  710000   0.42583199    -7.833678    3633.7342         3987 
  711000   0.41580601   -7.8342386    3624.8669         3988 
  712000   0.42274385   -7.8432176    3632.9756         3990 
  713000    0.4242071   -7.8238867    3627.6627         3988 
  714000   0.41650778   -7.8418111    3638.3601         3983 
  715000   0.41169889     -7.83049    3630.7417         3990 
  716000   0.41871934   -7.8365016    3626.9659         3989 
  717000   0.42061405   -7.8392917    3629.0282         3990 
  718000    0.4168324   -7.8314276    3625.3559         3992 
  719000   0.41698557   -7.8287428    3626.8164         3992 
  720000   0.41453418   -7.8499821    3628.6597         3982 
  721000   0.42719362   -7.8389911    3632.8418         3986 
  722000   0.42784917   -7.8290628    3628.7896         3989 
  723000   0.42518002   -7.8264584    3627.8305         3986 
  724000   0.42552471   -7.8296169    3625.6682         3989 
  725000   0.41720283   -7.8233394    3634.7578         3987 
  726000   0.41463868   -7.8386996    3631.7158         3990 
  727000   0.42510992   -7.8327415    3638.6409         3987 
  728000   0.42009389   -7.8160342    3630.7488         3993 
  729000   0.41113561   -7.8369534    3632.6483         3989 
  730000   0.42795716   -7.8383062    3627.4942         3992 
  731000   0.41527124   -7.8323708    3632.6412         3992 
  732000   0.41620941   -7.8440901    3630.5816         3991 
  733000   0.42518938   -7.8305401    3632.4205         3995 
  734000   0.42174596    -7.824552    3635.9156         3991 
  735000   0.42982675   -7.8292128     3624.645         3989 
  736000    0.4248371   -7.8191902    3632.0039         3990 
  737000   0.42684443   -7.8288373     3625.353         3991 
  738000   0.40964768   -7.8401233      3623.02         3991 
  739000   0.42201083    -7.839698    3637.4809         3987 
  740000   0.43344466   -7.8223791    3635.5953         3989 
  741000   0.43548357   -7.8339751    3630.7238         3988 
  742000    0.4238852    -7.822188    3639.0431         3992 
  743000    0.4191743   -7.8149901    3633.8897         3992 
  744000   0.42136149   -7.8383247    3631.1911         3989 
  745000   0.42721626   -7.8299022    3630.6208         3991 
  746000    0.4234895   -7.8262566    3624.6424         3991 
  747000   0.42211528   -7.8314811    3630.4612         3996 
  748000   0.43615054   -7.8305369    3628.4445         3988 
  749000   0.41763576   -7.8143456    3632.1983         3991 
  750000    0.4288849   -7.8353057    3623.0126         3992 
  751000   0.42735945   -7.8359951    3628.6634         3988 
  752000    0.4283426    -7.814193    3624.6038         3991 
  753000    0.4208882    -7.840636    3631.2613         3993 
  754000   0.42125944   -7.8378027    3628.4649         3989 
  755000    0.4067709   -7.8341024    3634.7576         3988 
  756000   0.42190753   -7.8315904     3634.735         3993 
  757000   0.42077686    -7.834263    3628.2918         3994 
  758000    0.4202881   -7.8262822    3630.7754         3990 
  759000   0.41641327   -7.8356063    3632.3425         3985 
  760000   0.42182683   -7.8399023    3638.0875         3989 
  761000   0.42192059   -7.8410817    3628.6927         3987 
  762000   0.42913547   -7.8390386    3625.2056         3991 
  763000   0.41605676   -7.8220042    3633.4795         3989 
  764000    0.4220875   -7.8346184    3620.8228         3992 
  765000   0.41786222   -7.8419684    3631.3644         3986 
  766000    0.4187387   -7.8342969    3632.8993         3991 
  767000   0.41348676   -7.8460068     3628.836         3992 
  768000   0.41568639   -7.8246612    3625.8475         3988 
  769000   0.42322274   -7.8393279    3633.3185         3993 
  770000    0.4234589   -7.8381849     3634.709         3992 
  771000   0.42218518   -7.8416981    3625.1271         3991 
  772000   0.42362834   -7.8354163    3633.1285         3986 
  773000   0.41832697   -7.8349273    3626.2099         3994 
  774000   0.41763615   -7.8195419    3632.0295         3989 
  775000   0.42640816    -7.818314    3631.2398         3991 
  776000   0.41389746   -7.8362967    3617.3522         3988 
  777000   0.41831222   -7.8436158    3622.3665         3992 
  778000   0.42335236   -7.8263946    3631.6087         3985 
  779000   0.43102888   -7.8354361    3623.6831         3989 
  780000   0.41721254    -7.836638    3626.6127         3992 
  781000   0.43187835   -7.8274684    3624.0116         3986 
  782000   0.42162391   -7.8397866    3634.1046         3984 
  783000   0.41255297   -7.8419224      3632.56         3985 
  784000   0.42208907   -7.8443662    3632.0489         3991 
  785000   0.41523064   -7.8354251    3629.9091         3990 
  786000   0.41416053   -7.8379357    3627.8825         3989 
  787000   0.42556035   -7.8411988    3628.8692         3991 
  788000   0.41882791   -7.8456994    3636.6936         3991 
  789000   0.42066816   -7.8347098    3633.4345         3983 
  790000   0.42036616   -7.8360283    3630.0268         3989 
  791000   0.41239359   -7.8314116    3627.4812         3992 
  792000   0.42022959   -7.8453388    3634.1983         3993 
  793000    0.4150369   -7.8431599     3643.001         3986 
  794000   0.41345668   -7.8270362    3628.4045         3989 
  795000   0.42319724   -7.8203879    3629.3977         3985 
  796000   0.41775548    -7.822828     3629.709         3987 
  797000   0.41545144   -7.8262772    3627.5445         3993 
  798000   0.41965924   -7.8212181     3629.849         3992 
  799000   0.40636409   -7.8213469    3629.6763         3983 
  800000   0.41514391    -7.844552    3628.7043         3986 
  801000   0.43216938   -7.8323405    3637.2002         3988 
  802000   0.42507344   -7.8398857    3629.9324         3990 
  803000   0.41228161   -7.8361186    3637.4074         3986 
  804000    0.4218304   -7.8318125    3620.1303         3989 
  805000     0.411144   -7.8290129    3629.0212         3992 
  806000   0.42101875   -7.8270694    3628.9318         3988 
  807000   0.42018828   -7.8379952    3629.4743         3989 
  808000   0.42603061   -7.8292822     3629.619         3994 
  809000   0.41611698   -7.8315448    3628.5103         3987 
  810000     0.414305   -7.8288762    3622.9095         3988 
  811000    0.4132225   -7.8260427    3625.6379         3991 
  812000   0.42249157   -7.8340703    3637.3472         3989 
  813000   0.42614214   -7.8299441     3626.507         3990 
  814000     0.414813   -7.8318678    3632.1222         3990 
  815000    0.4220551   -7.8289063    3628.0007         3990 
  816000   0.41546243   -7.8365184    3629.0216         3988 
  817000   0.41902726   -7.8316805    3628.5426         3987 
  818000   0.42129149   -7.8299099    3634.0382         3988 
  819000   0.41998946   -7.8406365    3628.0365         3992 
  820000   0.42515887   -7.8394581    3629.4248         3992 
  821000   0.41829586   -7.8268505    3622.8775         3987 
  822000    0.4114718     -7.82277    3630.2862         3989 
  823000   0.42297147   -7.8335885    3632.0959         3987 
  824000    0.4236551   -7.8374713    3631.8832         3990 
  825000   0.42466436   -7.8318961    3625.2418         3987 
  826000   0.41771243   -7.8345278    3623.7308         3991 
  827000   0.40697581   -7.8323008    3630.0059         3991 
  828000    0.4191267   -7.8222145    3626.8292         3990 
  829000   0.41598862   -7.8276456    3628.8493         3984 
  830000   0.41965864   -7.8366343    3636.3082         3989 
  831000   0.42149363   -7.8245026    3629.5882         3983 
  832000   0.41714631   -7.8317546    3631.2323         3990 
  833000   0.40852923   -7.8248173      3635.63         3986 
  834000   0.41253517   -7.8137552    3627.4628         3989 
  835000   0.41334252   -7.8303019    3627.1547         3991 
  836000   0.41872358   -7.8339668    3621.9842         3985 
  837000   0.41913406   -7.8194249    3627.1601         3988 
  838000   0.41610925   -7.8235661    3621.7279         3993 
  839000   0.41275403   -7.8337181    3632.9754         3986 
  840000   0.42072612   -7.8417159    3632.2539         3993 
  841000   0.41079432   -7.8337006     3628.694         3990 
  842000   0.41198969   -7.8356612    3636.2166         3988 
  843000   0.41886289   -7.8496284    3634.4023         3992 
  844000   0.41169899   -7.8475373    3637.0411         3987 
  845000   0.41626336   -7.8392493    3631.5121         3984 
  846000    0.4293427    -7.821317    3629.3074         3986 
  847000   0.42357869   -7.8423069    3632.6619         3989 
  848000    0.4091871   -7.8421763    3627.5934         3990 
  849000   0.42313061   -7.8400569    3627.2096         3991 
  850000   0.42131143    -7.831711    3629.7954         3989 
  851000   0.42014124   -7.8228155    3633.9572         3984 
  852000   0.40688553   -7.8440966    3631.3315         3983 
  853000   0.41805795   -7.8259644    3632.2567         3986 
  854000    0.4253356   -7.8458731    3633.9131         3988 
  855000   0.40880231   -7.8310818    3630.0154         3985 
  856000   0.42280845   -7.8355171    3629.3464         3988 
  857000   0.42909659   -7.8251842    3630.0073         3990 
  858000   0.41158288   -7.8222936    3631.6097         3991 
  859000   0.41719982   -7.8371914    3638.4498         3989 
  860000    0.4243728   -7.8225721    3628.1337         3981 
  861000   0.42771921    -7.835988    3629.5207         3990 
  862000   0.41518191   -7.8316316    3628.7561         3987 
  863000   0.43032718   -7.8335344    3626.7647         3993 
  864000   0.42903438     -7.84842    3625.8451         3987 
  865000   0.41901004   -7.8348425    3630.0548         3990 
  866000   0.41736256   -7.8235473    3633.3999         3990 
  867000   0.41072649   -7.8235472    3632.7466         3994 
  868000   0.41481959   -7.8221696    3630.6773         3992 
  869000   0.42448741   -7.8289778    3628.9872         3992 
  870000   0.41946994   -7.8360848    3638.1412         3993 
  871000   0.41666575   -7.8311611    3626.4496         3988 
  872000   0.42379394   -7.8315549    3624.2473         3992 
  873000   0.41359751   -7.8192199    3635.4624         3988 
  874000   0.41386486   -7.8451398    3631.1627         3988 
  875000   0.41440753   -7.8323815    3627.4721         3992 
  876000   0.41371217   -7.8162498    3624.3971         3987 
  877000   0.42055017   -7.8406005    3629.7613         3990 
  878000   0.42113415   -7.8310957     3631.822         3988 
  879000   0.42112487   -7.8289818    3633.9292         3991 
  880000   0.42733733    -7.828829      3630.51         3986 
  881000   0.41279529   -7.8361838    3630.3744         3984 
  882000   0.41648607   -7.8287487    3629.2195         3986 
  883000   0.41597911   -7.8309404    3628.8716         3988 
  884000   0.41457345   -7.8271665     3627.087         3987 
  885000   0.42166037    -7.830169    3626.7897         3991 
  886000   0.40822476   -7.8324582    3631.8737         3989 
  887000    0.4112313   -7.8264359    3624.8114         3988 
  888000   0.40986411   -7.8256855    3627.1028         3992 
  889000   0.42465394   -7.8333998    3626.9751         3990 
  890000   0.41856487   -7.8253323    3632.9922         3990 
  891000   0.42327905    -7.835567    3627.5647         3991 
  892000   0.42129722   -7.8059688    3625.6665         3990 
  893000   0.42550141   -7.8259785    3630.6464         3994 
  894000   0.42956144   -7.8446164     3631.787         3992 
  895000   0.41806289   -7.8255237    3630.4051         3986 
  896000    0.4308681   -7.8323403     3628.628         3989 
  897000   0.42075895   -7.8258205    3619.5077         3992 
  898000    0.4178865   -7.8293067    3629.6592         3985 
  899000   0.42930093   -7.8362813     3628.362         3987 
  900000    0.4246391   -7.8367897    3630.7261         3989 
  901000   0.41718138   -7.8399597    3637.2394         3989 
  902000   0.42403811   -7.8299421    3625.7102         3995 
  903000   0.41984903   -7.8338622    3628.1763         3988 
  904000    0.4231581   -7.8354948    3629.5419         3991 
  905000   0.42574014    -7.813784    3626.6492         3988 
  906000   0.42305969   -7.8252323    3622.5055         3985 
  907000   0.41843454   -7.8345914    3627.8795         3990 
  908000   0.41659735   -7.8246761    3625.6811         3987 
  909000   0.41501998   -7.8324351    3626.8232         3990 
  910000   0.42311566   -7.8278079    3632.6863         3987 
  911000   0.41465791    -7.829796    3632.4538         3991 
  912000   0.41053182   -7.8331729    3626.5956         3987 
  913000   0.41084548   -7.8292476    3624.2688         3994 
  914000   0.41407538   -7.8316206    3630.5493         3989 
  915000   0.41627584   -7.8269632    3626.9131         3989 
  916000   0.42165732    -7.830898    3631.2285         3993 
  917000   0.41040316   -7.8229239    3633.8558         3991 
  918000   0.42651841   -7.8393951    3631.0808         3984 
  919000   0.42077805   -7.8238474    3627.8597         3991 
  920000   0.42394631    -7.840796    3632.5009         3990 
  921000   0.41464222   -7.8275767    3635.4885         3987 
  922000   0.41779361   -7.8425559    3633.9283         3988 
  923000   0.41165361   -7.8273036     3628.678         3985 
  924000   0.42359475    -7.825086    3632.5587         3987 
  925000   0.41669053   -7.8420499     3625.685         3986 
  926000   0.42065198   -7.8393718    3629.8783         3986 
  927000   0.41906052   -7.8400991    3630.6541         3991 
  928000   0.42433327   -7.8405363    3635.9477         3988 
  929000   0.42138443   -7.8206848    3632.3885         3984 
  930000   0.41205937   -7.8267928    3630.7972         3983 
  931000   0.41345809   -7.8307278    3625.3392         3988 
  932000   0.42818688    -7.821901    3632.8777         3991 
  933000    0.4228244   -7.8255364    3630.1824         3987 
  934000   0.40969306   -7.8364645    3627.7045         3989 
  935000   0.42512548   -7.8366391    3625.5022         3991 
  936000   0.41845326   -7.8491075    3631.1882         3991 
  937000   0.42831994   -7.8428439    3634.5503         3986 
  938000   0.41763399   -7.8234607    3621.9651         3991 
  939000   0.41481319   -7.8344367     3620.758         3993 
  940000   0.42533573   -7.8424295    3631.6775         3989 
  941000    0.4232533   -7.8294024    3632.5041         3994 
  942000   0.42074879   -7.8158749    3634.7652         3990 
  943000   0.42315732   -7.8236634    3627.0456         3992 
  944000    0.4167453   -7.8359554    3627.6251         3985 
  945000   0.43033059   -7.8231121    3626.7615         3990 
  946000   0.42225396   -7.8207729    3628.7683         3990 
  947000   0.42441546   -7.8220379    3633.9479         3986 
  948000    0.4225577   -7.8331967    3629.0693         3991 
  949000   0.41751909   -7.8464985    3634.3543         3995 
  950000   0.41198173   -7.8403981    3639.0003         3989 
  951000   0.41619128   -7.8366552    3630.4756         3987 
  952000   0.41688345   -7.8348131    3631.8321         3989 
  953000    0.4096896   -7.8219429    3628.4993         3994 
  954000   0.43156156   -7.8277256    3629.6334         3986 
  955000   0.42508832   -7.8418247    3635.4321         3986 
  956000   0.41923162   -7.8350345    3636.3283         3984 
  957000   0.43095526   -7.8394878    3633.5858         3987 
  958000   0.42253981   -7.8324166    3628.1206         3990 
  959000   0.41458803    -7.833546    3641.3344         3982 
  960000   0.40804249    -7.855275    3635.4319         3984 
  961000   0.41243026   -7.8362166    3629.4373         3981 
  962000   0.42164909   -7.8381693    3630.5744         3984 
  963000   0.42209928   -7.8227984    3627.3832         3989 
  964000   0.41190825   -7.8337499    3628.6901         3985 
  965000   0.42293851   -7.8338457    3623.2053         3991 
  966000   0.41809578   -7.8221692    3617.4941         3993 
  967000   0.42831865   -7.8320503    3626.0258         3990 
  968000   0.40518769   -7.8260374    3630.7173         3988 
  969000    0.4162578   -7.8368571    3624.3376         3988 
  970000   0.42016162    -7.839754    3634.7606         3992 
  971000   0.41628516   -7.8139667    3624.4942         3988 
  972000    0.4175769   -7.8239631    3626.1127         3990 
  973000   0.41669023   -7.8446121    3625.9207         3992 
  974000    0.4161512   -7.8402875    3624.3091         3991 
  975000   0.41842457   -7.8278123    3630.0953         3984 
  976000   0.42505606    -7.835585    3635.6178         3989 
  977000   0.41769058   -7.8310061     3629.153         3986 
  978000    0.4228498   -7.8483735    3635.8478         3992 
  979000   0.41641003   -7.8290015    3626.4561         3991 
  980000   0.41296629    -7.832486    3633.4302         3990 
  981000   0.40959185   -7.8296137    3628.8474         3986 
  982000   0.42123957   -7.8307343    3627.5968         3985 
  983000   0.41889535   -7.8274644    3633.5319         3978 
  984000   0.43770428   -7.8301114    3633.6286         3989 
  985000   0.42710498   -7.8379155    3630.4002         3993 
  986000   0.41214742   -7.8258982    3629.5523         3988 
  987000   0.41211993   -7.8420811    3635.0352         3988 
  988000   0.41217009   -7.8348117    3637.2067         3988 
  989000    0.4183329   -7.8405148    3629.4267         3985 
  990000   0.42467644   -7.8295785    3637.1953         3985 
  991000   0.42209842   -7.8248707    3625.5052         3990 
  992000   0.43023498   -7.8346374    3633.9343         3987 
  993000    0.4235439   -7.8300879     3618.183         3985 
  994000   0.42476825   -7.8351143    3629.1296         3991 
  995000   0.42994138   -7.8457674    3630.1529         3983 
  996000    0.4173066   -7.8389109    3632.6111         3991 
  997000   0.41330124   -7.8265237    3627.7082         3990 
  998000   0.41015987   -7.8370888    3628.6125         3993 
  999000   0.41475412   -7.8207013    3631.4336         3989 
 1000000   0.42079521   -7.8370691    3631.9277         3989 
 1001000   0.41303089    -7.827926    3627.7407         3988 
 1002000   0.41635848   -7.8155452    3623.5455         3991 
 1003000    0.4162428   -7.8304599    3635.7961         3994 
 1004000   0.42097179   -7.8324776    3619.7001         3993 
Loop time of 2165.29 on 48 procs for 1000000 steps with 4000 atoms

Performance: 79804.730 tau/day, 461.833 timesteps/s
99.4% CPU use with 48 MPI tasks x no OpenMP threads

MPI task timing breakdown:
Section |  min time  |  avg time  |  max time  |%varavg| %total
---------------------------------------------------------------
Pair    | 135.48     | 149.12     | 167.8      |  74.7 |  6.89
Neigh   | 9.2407     | 9.5208     | 9.8458     |   4.8 |  0.44
Comm    | 100.84     | 118.39     | 135.16     |  84.2 |  5.47
Output  | 2.5588     | 2.5598     | 2.5778     |   0.2 |  0.12
Modify  | 1848.8     | 1857.8     | 1866.9     |  11.8 | 85.80
Other   |            | 27.9       |            |       |  1.29

Nlocal:        83.3333 ave          88 max          77 min
Histogram: 1 1 3 8 6 5 8 6 4 6
Nghost:        1757.77 ave        1773 max        1746 min
Histogram: 3 7 12 2 4 7 5 3 3 2
Neighs:        10531.5 ave       11304 max        9543 min
Histogram: 1 0 3 8 9 5 6 8 7 1
FullNghs:      21062.9 ave       22208 max       19577 min
Histogram: 1 1 6 8 5 4 7 6 4 6

Total # of neighbors = 1011021
Ave neighs/atom = 252.75525
Neighbor list builds = 37740
Dangerous builds = 0

#clear
#
#next RN
#
#jump SELF
Total wall time: 0:36:06
