
units lj                  # Use reduced LJ style units
atom_style atomic         # Uncharged point particles
atom_modify map hash      # Needed for indexing of clusters etc
                          # Used to be able to find where atoms are in relation to each other.

# Define a lattice with which to populate the simulation cell. With units
# set to 'lj' the second argument to the lattice command is the reduced
# density rho* and the spacings are multiples of that required to acheive
# that density. Also define a simulation cell called 'box' in lattice units
# and fill it with atoms. Here we're creating a box which is ten lattice
# constants in each direction.
lattice fcc 1.0 spacing 1 1 1                 # All equal sizes - gives the right reduced density.
Lattice spacing in x,y,z = 1.5874011 1.5874011 1.5874011

region box block 0 10 0 10 0 10 units lattice # Defines a region, "box", in lattice units
create_box 1 box                              # Creates a simulation box as specified above,
Created orthogonal box = (0.0000000 0.0000000 0.0000000) to (15.874011 15.874011 15.874011)
  2 by 4 by 4 MPI processor grid
                                              # with one type of atom
create_atoms 1 box                            # Creates particles on lattice points
Created 4000 atoms
  using lattice units in orthogonal box = (0.0000000 0.0000000 0.0000000) to (15.874011 15.874011 15.874011)
  create_atoms CPU = 0.002 seconds


# Set the mass of the first (and only) atom type.
mass 1 1.0

# Lennard-Jones interactions between particles, 3.5 sigma cut-off. Apply
# long range tail corrections to energy and pressure and set all coefficients
# to unity since we work in reduced units here. Note that this doesn't shift
# the potential such that it goes to zero at the cutoff. That would require
# pair_modify('shift', 'yes').
pair_style lj/cut  3.5      # non-GPU version
pair_modify tail  yes
pair_coeff 1  1  1.0  1.0   # Intearaction between 1 and 1 set with epsilon = 1 and sigma = 1

write_data data.*
System init for write_data ...
Neighbor list info ...
  update every 1 steps, delay 10 steps, check yes
  max neighbors/atom: 2000, page size: 100000
  master list distance cutoff = 3.8
  ghost atom cutoff = 3.8
  binsize = 1.9, bins = 9 9 9
  1 neighbor lists, perpetual/occasional/extra = 1 0 0
  (1) pair lj/cut, perpetual
      attributes: half, newton on
      pair build: half/bin/atomonly/newton
      stencil: half/bin/3d
      bin: standard

#############################
#   M E L T   S Y S T E M   #
#############################

velocity all create 2.4 2750902 mom yes dist gaussian # Assign velocities
                                                    # Temperature 2.4, random number seed, zero linear momentum
						                                                        # Gaussian distribution

timestep 0.002   # simulation timestep
thermo 100       # output thermodynamic data every 100 steps

# Define a fix  in this case with index 1 applied to all
# particles in the simulation. This fix is for simulations
# in the anisotropic NPT ensemble. Note that we use the MTK
# correction.
fix 1 all npt temp 2.4 2.4 0.1 iso 5.68 5.68 0.5 mtk yes tchain 5 pchain 5 # Use NPT ensemble
                                                                         # Set temperature and pressure and damping
                                                                         # Numbers of thermostats in chain and in barostat
run 1000         # run for 10000 steps
Per MPI rank memory allocation (min/avg/max) = 3.660 | 3.660 | 3.660 Mbytes
Step Temp E_pair E_mol TotEng Press Volume 
       0          2.4   -8.3859253            0   -4.7868253   -2.2405722         4000 
     100    1.2608475   -6.5235855            0   -4.6327871    5.4038563    4091.0951 
     200    1.4674745   -6.2960149            0   -4.0953535    6.0843453    4138.9956 
     300    1.5811347   -6.0195196            0   -3.6484105    5.8230308      4272.98 
     400    1.6903552   -5.7119813            0   -3.1770823    5.9377022    4398.4635 
     500    1.7989246   -5.4338299            0   -2.7361176    5.7946904    4546.9323 
     600    1.9022797   -5.1497661            0   -2.2970598    5.8333119    4691.4311 
     700    2.0414959   -4.9561197            0   -1.8946415    5.6184351    4842.6632 
     800    2.1308362   -4.7068196            0   -1.5113644    5.7371792    4975.4569 
     900    2.2803533   -4.5781415            0   -1.1584666    5.7093427    5072.7544 
    1000    2.3672823   -4.4702836            0  -0.92024792    5.6050301    5163.6463 
Loop time of 0.262568 on 32 procs for 1000 steps with 4000 atoms

Performance: 658115.851 tau/day, 3808.541 timesteps/s
99.4% CPU use with 32 MPI tasks x no OpenMP threads

MPI task timing breakdown:
Section |  min time  |  avg time  |  max time  |%varavg| %total
---------------------------------------------------------------
Pair    | 0.13406    | 0.1402     | 0.14871    |   1.1 | 53.39
Neigh   | 0.026154   | 0.027412   | 0.028665   |   0.4 | 10.44
Comm    | 0.065184   | 0.071579   | 0.079231   |   1.6 | 27.26
Output  | 0.00019742 | 0.00020237 | 0.0002518  |   0.0 |  0.08
Modify  | 0.017195   | 0.02129    | 0.025456   |   1.7 |  8.11
Other   |            | 0.001889   |            |       |  0.72

Nlocal:        125.000 ave         135 max         113 min
Histogram: 1 0 2 4 3 13 2 2 3 2
Nghost:        1662.72 ave        1680 max        1643 min
Histogram: 2 1 2 2 6 6 7 2 3 1
Neighs:        11066.0 ave       11928 max       10173 min
Histogram: 2 2 2 5 6 5 4 0 1 5

Total # of neighbors = 354112
Ave neighs/atom = 88.528000
Neighbor list builds = 89
Dangerous builds = 32

# Equilibrate just above the melting temperature to avoid step fn in T

fix 1 all npt temp 1.25 1.25 0.1 iso 5.68 5.68 0.5 mtk yes tchain 5 pchain 5
run 1000
Per MPI rank memory allocation (min/avg/max) = 3.661 | 3.661 | 3.661 Mbytes
Step Temp E_pair E_mol TotEng Press Volume 
    1000    2.3672823   -4.4702836            0  -0.92024792    5.6050301    5163.6463 
    1100    1.9569734    -4.706111            0   -1.7713848    5.4657034    5011.4174 
    1200    1.7262382   -4.9667701            0   -2.3780602    5.5966981    4817.3008 
    1300     1.587552    -5.220701            0   -2.8399684    5.6758355    4663.7229 
    1400    1.4738799   -5.4342144            0   -3.2239472    5.4755949    4569.2977 
    1500    1.3534378   -5.5295528            0   -3.4999037    5.6215529    4496.5144 
    1600    1.2908728   -5.6315259            0   -3.6957007    5.7257345     4433.469 
    1700    1.2788408   -5.7494795            0   -3.8316978    5.6735232     4386.563 
    1800     1.254965   -5.8228809            0   -3.9409041    5.4759615    4370.1173 
    1900     1.226926   -5.8280252            0   -3.9880963    5.6657418    4349.5824 
    2000    1.2829323   -5.8566878            0   -3.9327705    5.6371083    4341.9677 
Loop time of 0.250579 on 32 procs for 1000 steps with 4000 atoms

Performance: 689602.681 tau/day, 3990.756 timesteps/s
99.7% CPU use with 32 MPI tasks x no OpenMP threads

MPI task timing breakdown:
Section |  min time  |  avg time  |  max time  |%varavg| %total
---------------------------------------------------------------
Pair    | 0.13333    | 0.1382     | 0.14467    |   0.7 | 55.15
Neigh   | 0.02241    | 0.023116   | 0.023963   |   0.2 |  9.22
Comm    | 0.059285   | 0.066976   | 0.072953   |   1.2 | 26.73
Output  | 0.00019672 | 0.00020056 | 0.00024226 |   0.0 |  0.08
Modify  | 0.017444   | 0.019846   | 0.02255    |   1.0 |  7.92
Other   |            | 0.002243   |            |       |  0.90

Nlocal:        125.000 ave         131 max         119 min
Histogram: 2 3 5 2 4 4 3 2 3 4
Nghost:        1848.94 ave        1863 max        1828 min
Histogram: 1 0 1 1 3 11 7 3 2 3
Neighs:        13168.5 ave       13949 max       12671 min
Histogram: 5 6 5 1 3 2 3 4 1 2

Total # of neighbors = 421393
Ave neighs/atom = 105.34825
Neighbor list builds = 75
Dangerous builds = 6


# Small amount of linear quench

fix 1 all npt temp 1.25 ${temp} 0.1 iso 5.68 5.68 0.5 mtk yes tchain 5 pchain 5
fix 1 all npt temp 1.25 0.12 0.1 iso 5.68 5.68 0.5 mtk yes tchain 5 pchain 5
run 2000
Per MPI rank memory allocation (min/avg/max) = 3.661 | 3.662 | 3.662 Mbytes
Step Temp E_pair E_mol TotEng Press Volume 
    2000    1.2829323   -5.8566878            0   -3.9327705    5.6371083    4341.9677 
    2100    1.2244617   -5.8574162            0   -4.0211828    5.6959417    4334.2802 
    2200    1.1940583   -5.9284251            0   -4.1377854    5.5751129    4312.7968 
    2300    1.1606026   -5.9864191            0   -4.2459505    5.7630031    4270.3392 
    2400    1.0869813   -6.0238427            0   -4.3937784    5.8635815     4240.157 
    2500    1.0609822   -6.1046604            0   -4.5135849    6.0025394    4197.9643 
    2600    0.9973133   -6.1958046            0   -4.7002087    5.5982608    4188.6684 
    2700   0.94092986   -6.2905352            0   -4.8794932    5.3265715    4168.7744 
    2800   0.88299108   -6.3520858            0   -5.0279303    5.4347855    4132.7538 
    2900   0.84809471   -6.4576709            0   -5.1858469    5.3955582    4094.6118 
    3000   0.78901186   -6.5265968            0   -5.3433749    5.6069457    4052.2381 
    3100   0.74165839   -6.6088119            0   -5.4966024    5.7085959    4014.2049 
    3200   0.68753372   -6.6973036            0   -5.6662608    5.6386037    3983.5258 
    3300   0.62953692   -6.7757675            0   -5.8316982    5.6465509     3953.684 
    3400   0.57514734   -6.8514112            0   -5.9889059     5.722953    3920.0454 
    3500   0.52513018   -6.9401546            0   -6.1526563    5.7336851    3889.6634 
    3600    0.4719594   -7.0202071            0    -6.312445    5.7129857    3861.9663 
    3700   0.41854477   -7.0979929            0   -6.4703327    5.7237176    3834.7003 
    3800   0.36183899   -7.1744482            0   -6.6318254    5.6518343    3811.9249 
    3900   0.30333403   -7.2426763            0    -6.787789    5.6594197    3788.1896 
    4000   0.25285922   -7.3180037            0   -6.9388096    5.6933233    3762.1163 
Loop time of 0.535945 on 32 procs for 2000 steps with 4000 atoms

Performance: 644841.816 tau/day, 3731.723 timesteps/s
99.7% CPU use with 32 MPI tasks x no OpenMP threads

MPI task timing breakdown:
Section |  min time  |  avg time  |  max time  |%varavg| %total
---------------------------------------------------------------
Pair    | 0.3006     | 0.31208    | 0.32208    |   0.9 | 58.23
Neigh   | 0.032708   | 0.033662   | 0.034379   |   0.2 |  6.28
Comm    | 0.13481    | 0.14395    | 0.16055    |   1.5 | 26.86
Output  | 0.00040005 | 0.00040928 | 0.00049774 |   0.0 |  0.08
Modify  | 0.035635   | 0.04003    | 0.043495   |   1.3 |  7.47
Other   |            | 0.005813   |            |       |  1.08

Nlocal:        125.000 ave         132 max         119 min
Histogram: 3 0 5 10 1 3 3 2 4 1
Nghost:        2030.81 ave        2046 max        2007 min
Histogram: 1 0 1 3 2 9 6 4 3 3
Neighs:        15333.2 ave       16131 max       14600 min
Histogram: 3 0 6 5 4 4 2 2 3 3

Total # of neighbors = 490664
Ave neighs/atom = 122.66600
Neighbor list builds = 104
Dangerous builds = 0

#############################
# F R E E Z E  S Y S T E M  #
#############################

# Define solid atoms. This closely follows ten Wolde  Ruiz-Montero and Frenkel  Faraday Discuss  1996  104  93-110
# Compute components of the per-atom q6 vector
compute q6 all orientorder/atom degrees 1 6 components 6 nnn NULL cutoff 1.3 # compute the Q6 parameter.
                                                                             # Use all neighbours within 1.3 unit cell.

# get number of connections
compute coord_number all coord/atom orientorder q6 0.5

# An atom is solid if it has 8 or more connections (of a possible 14)
variable is_solid atom c_coord_number>=8
group solid dynamic all var is_solid    # Must be dynamic to update
dynamic group solid defined

# do clustering
compute cluster solid cluster/atom 1.3 # Create a cluster where all atoms within are solid and max 1.3 units from another member

# define chunks one chunk per cluster
compute clus_chunks solid chunk/atom c_cluster nchunk every compress yes  # Says which atoms are in which chunk

# count the size of each chunk
compute size_chunks solid property/chunk clus_chunks count


# Find the maximum entry in the vector of chunk sizes
variable max_n equal max(c_size_chunks)


# Thermo style which includes this variable
thermo_style custom step temp pe vol v_max_n

thermo ${N}  # Print the thermo information every 100 steps
thermo 100  

# Reset the npt fix at a lower temperature (below freezing)
fix 1  all npt temp  ${temp} ${temp}  0.1  iso  5.68  5.68  0.5  mtk yes tchain  5  pchain  5
fix 1  all npt temp  0.12 ${temp}  0.1  iso  5.68  5.68  0.5  mtk yes tchain  5  pchain  5
fix 1  all npt temp  0.12 0.12  0.1  iso  5.68  5.68  0.5  mtk yes tchain  5  pchain  5

dump dmp2 all dcd ${N} traj_${rand}.dcd
dump dmp2 all dcd 100 traj_${rand}.dcd
dump dmp2 all dcd 100 traj_462431.dcd


# fix rnuntil all halt ${N} v_max_n >= 3980 error soft message no   # Stop when solidified


run 100000 # 5000000  # Run for this many steps
Neighbor list info ...
  update every 1 steps, delay 10 steps, check yes
  max neighbors/atom: 2000, page size: 100000
  master list distance cutoff = 3.8
  ghost atom cutoff = 3.8
  binsize = 1.9, bins = 9 9 9
  4 neighbor lists, perpetual/occasional/extra = 1 3 0
  (1) pair lj/cut, perpetual
      attributes: half, newton on
      pair build: half/bin/atomonly/newton
      stencil: half/bin/3d
      bin: standard
  (2) compute orientorder/atom, occasional
      attributes: full, newton on
      pair build: full/bin/atomonly
      stencil: full/bin/3d
      bin: standard
  (3) compute coord/atom, occasional
      attributes: full, newton on
      pair build: full/bin/atomonly
      stencil: full/bin/3d
      bin: standard
  (4) compute cluster/atom, occasional
      attributes: full, newton on
      pair build: full/bin/atomonly
      stencil: full/bin/3d
      bin: standard
Per MPI rank memory allocation (min/avg/max) = 9.469 | 9.473 | 9.476 Mbytes
Step Temp PotEng Volume v_max_n 
    4000   0.25285922   -7.3180037    3762.1163           47 
    4100   0.21716701   -7.3818538    3743.8943           41 
    4200   0.18657286   -7.4304153    3729.0664           38 
    4300   0.16202771   -7.4620276    3717.8956           41 
    4400   0.14579534   -7.4845645    3708.3679           51 
    4500   0.13503207   -7.4981867    3699.0722           43 
    4600   0.12657265   -7.5081208    3692.8573           77 
    4700   0.12089832   -7.5219739    3693.9731           81 
    4800   0.12124893   -7.5389226    3696.2696           60 
    4900    0.1186903   -7.5458005    3696.9694           64 
    5000   0.11907168   -7.5470443    3695.3468           54 
    5100   0.11909715   -7.5465764    3690.9206           43 
    5200   0.12043937   -7.5472917    3688.1357           51 
    5300   0.11983119   -7.5505534     3686.098           62 
    5400   0.11930539   -7.5538582    3686.9445           94 
    5500   0.11746059   -7.5570075    3688.3856          154 
    5600   0.12260195   -7.5592135    3689.8317           98 
    5700   0.12070742   -7.5629563    3689.0848          131 
    5800   0.11975065   -7.5627547    3687.1728          105 
    5900   0.11818346   -7.5627243    3684.4772          117 
    6000   0.11852431   -7.5598337    3683.3697          118 
    6100   0.11992746   -7.5591672    3683.8858          186 
    6200   0.12054144    -7.568529    3684.6586          134 
    6300   0.12014962   -7.5743545    3687.9963          300 
    6400   0.12282004   -7.5756973    3689.7333          124 
    6500   0.12213139   -7.5761277    3685.3733          181 
    6600   0.12001695    -7.571905    3682.0352          106 
    6700   0.12207252   -7.5699467    3681.3088          318 
    6800   0.12258485   -7.5784433    3679.7869          253 
    6900   0.12000778   -7.5786445    3681.2295          150 
    7000   0.12255799     -7.57637    3683.0829          137 
    7100   0.12099222   -7.5782359    3682.3028          128 
    7200   0.12113448   -7.5821773     3680.391          145 
    7300   0.11947931   -7.5808258     3680.659          140 
    7400   0.11999812    -7.583522    3679.5761          149 
    7500    0.1204988   -7.5877208    3678.8241          209 
    7600   0.11973056   -7.5876109    3680.0047          323 
    7700   0.11940499   -7.5920425    3679.3911          165 
    7800   0.11805365   -7.5925677    3678.6822          182 
    7900   0.12009784   -7.5897561    3678.0061          172 
    8000   0.12242595   -7.5891568    3675.6669          172 
    8100   0.11945232   -7.5897645    3675.3437          489 
    8200   0.11946432   -7.5908474    3677.4376          236 
    8300   0.12248508   -7.5942075    3680.0882          170 
    8400   0.12290905   -7.6005653     3679.496          331 
    8500   0.11881105    -7.596856     3677.933          496 
    8600   0.12059613   -7.5918963    3675.0991          566 
    8700   0.12079316   -7.5882369      3673.55          507 
    8800   0.11906959   -7.5934159    3673.9234          498 
    8900   0.11852045   -7.5980584    3676.5304          381 
    9000   0.11880825   -7.6037657    3676.7278          375 
    9100    0.1198319   -7.5999833    3677.9263          388 
    9200   0.11806425   -7.5991169    3676.3025          375 
    9300   0.11997122   -7.6021368     3673.404          542 
    9400   0.12096354   -7.5975629    3674.2529          411 
    9500   0.11890619   -7.5978738    3674.5789          332 
    9600   0.11961135   -7.6007157     3675.417          527 
    9700   0.11748802     -7.60407    3676.5213          388 
    9800   0.12047407    -7.608515    3675.8175          376 
    9900   0.12049665   -7.6014958    3676.1411          465 
   10000    0.1199367   -7.5991464    3671.7652          471 
   10100   0.11957051   -7.5976883    3667.8716          574 
   10200   0.11898027   -7.6013584    3670.3146          564 
   10300   0.12184616   -7.6083451    3674.8772          318 
   10400   0.12059001   -7.6092193    3678.1248          374 
   10500   0.11922149   -7.6124284    3675.8463          585 
   10600   0.12124893   -7.6083619    3673.7226          523 
   10700   0.11988484   -7.6045781    3672.0611          554 
   10800   0.11762057   -7.6046361    3671.0618          586 
   10900   0.11885693   -7.6053648    3672.4375          496 
   11000   0.11987986    -7.611118    3674.2506          478 
   11100   0.12104158   -7.6145296    3675.2276          494 
   11200   0.12416983   -7.6124476    3675.4642          543 
   11300    0.1208542   -7.6092596    3672.4075          568 
   11400   0.11858039   -7.6009376    3667.9552          542 
   11500   0.11914428   -7.6048224    3664.8634          521 
   11600   0.11907908   -7.6082805    3670.6323          512 
   11700   0.12176813   -7.6131779    3674.3398          501 
   11800   0.11902223   -7.6148396    3674.5792          563 
   11900   0.12051933   -7.6140573    3673.3872          573 
   12000   0.11948704   -7.6075154    3672.9395          549 
   12100   0.12063527   -7.6072098    3671.4497          509 
   12200   0.11841015    -7.609488    3670.1364          501 
   12300   0.12086028   -7.6107347    3671.6243          542 
   12400   0.12193262    -7.611915    3673.9989          525 
   12500   0.12227455   -7.6179969    3674.0076          520 
   12600   0.11760116    -7.615961    3673.8067          558 
   12700   0.11986319     -7.61015    3671.6198          296 
   12800   0.11896869   -7.6082371    3667.6936          540 
   12900    0.1186342   -7.6086889    3667.0091          520 
   13000   0.12094639   -7.6100703    3671.9232          499 
   13100   0.12193271   -7.6186604    3673.9551          557 
   13200   0.12073129   -7.6189983    3673.6555          362 
   13300   0.12004923   -7.6164609    3671.8392          526 
   13400   0.11929627   -7.6146001    3670.7602          560 
   13500   0.12031092    -7.610641    3671.0515          571 
   13600   0.11962037   -7.6158084    3670.3955          540 
   13700   0.11984767   -7.6161839    3670.7668          534 
   13800   0.11884299   -7.6142214    3673.2853          540 
   13900   0.11980006   -7.6206147    3671.9074          582 
   14000   0.12090294   -7.6184352    3672.1983          527 
   14100   0.12060198   -7.6144898    3671.0168          548 
   14200   0.11924883   -7.6148247    3667.7117          552 
   14300    0.1193649   -7.6142228    3667.7818          528 
   14400   0.12214047   -7.6141604    3670.6573          576 
   14500   0.12165252   -7.6221242    3672.9573          558 
   14600   0.11805265   -7.6233187    3674.1181          555 
   14700   0.12076466   -7.6203384     3673.774          580 
   14800   0.12073973   -7.6165535    3670.1641          582 
   14900    0.1185607   -7.6144751    3668.3148          479 
   15000   0.12156738   -7.6148867    3668.3768          613 
   15100   0.12016877   -7.6151978    3671.6025          597 
   15200    0.1198296   -7.6207824    3670.5627          593 
   15300   0.11829972   -7.6191896    3671.5927          633 
   15400    0.1204846   -7.6165235    3671.5374          662 
   15500   0.12379396   -7.6184694    3670.0561          630 
   15600    0.1194226   -7.6179987    3669.8857          404 
   15700   0.12172575   -7.6219454     3669.347          598 
   15800   0.12183701   -7.6197094    3670.2298          622 
   15900   0.11796399   -7.6206426    3669.8471          613 
   16000   0.11802629   -7.6196695    3669.8708          634 
   16100   0.11845718   -7.6177543    3670.3086          650 
   16200   0.12216899   -7.6193925    3669.5133          674 
   16300   0.11990088   -7.6231605    3669.5639          679 
   16400   0.12149903    -7.623258    3670.1404          657 
   16500   0.12149564   -7.6215339     3670.613          406 
   16600   0.11937731   -7.6236349    3668.9113          617 
   16700    0.1194153   -7.6214042    3668.1512          614 
   16800   0.12406334   -7.6195202    3667.5285          585 
   16900   0.12036232   -7.6227326    3668.5352          503 
   17000   0.11980896   -7.6262722    3670.2002          631 
   17100   0.11966685   -7.6277208    3671.5895          641 
   17200   0.12131397   -7.6247841    3671.2141          641 
   17300   0.11913449   -7.6209473    3667.2856          680 
   17400   0.12059654   -7.6201317    3663.7651          665 
   17500   0.12135624   -7.6203564    3665.8737          528 
   17600    0.1208187   -7.6279208    3668.3871          524 
   17700   0.11654769   -7.6298874    3669.6851          651 
   17800   0.12133537   -7.6275342    3668.8722          622 
   17900   0.11958413   -7.6237141    3668.8263          648 
   18000    0.1179661   -7.6239251    3667.0951          650 
   18100   0.12332219   -7.6245136    3666.9183          637 
   18200   0.12006625   -7.6223991    3668.0687          674 
   18300     0.118114   -7.6269442    3668.2618          666 
   18400   0.11841392   -7.6274505    3670.7999          664 
   18500   0.12342233   -7.6291892    3670.9799          681 
   18600   0.11894256    -7.629046    3669.6306          526 
   18700   0.12037359   -7.6238511     3666.163          681 
   18800   0.12125681   -7.6186523    3664.4838          700 
   18900   0.11748192   -7.6220787    3665.6652          689 
   19000   0.11732374   -7.6254422    3669.9129          654 
   19100   0.12328422   -7.6288232    3671.8115          722 
   19200   0.11934382   -7.6291522    3670.4838          713 
   19300   0.11938088   -7.6294859    3667.9556          688 
   19400   0.12275156   -7.6283984    3665.9347          720 
   19500      0.11862   -7.6262225     3666.216          702 
   19600   0.11909773   -7.6284694    3665.3776          693 
   19700   0.12007626    -7.624943    3668.1612          674 
   19800   0.11801755    -7.625922    3669.4139          741 
   19900   0.12112472   -7.6320421     3668.336          661 
   20000   0.12042179   -7.6334981    3667.4942          645 
   20100   0.12105302   -7.6275121    3666.3561          641 
   20200   0.12025491    -7.624779    3663.8108          619 
   20300   0.11949005   -7.6257404    3663.0956          627 
   20400    0.1238467   -7.6325085    3666.7781          689 
   20500   0.11880576   -7.6354365    3670.6526          702 
   20600   0.11901783   -7.6382788    3669.8068          694 
   20700   0.12097496   -7.6313442    3667.7134          739 
   20800   0.12008753   -7.6273689    3665.6518          700 
   20900   0.11835383   -7.6263326    3664.1697          667 
   21000   0.12086249    -7.626219    3665.6368          717 
   21100   0.12117746   -7.6294669    3667.7256          684 
   21200   0.11687017   -7.6316595    3668.0271          691 
   21300   0.11929813   -7.6312098    3667.9945          755 
   21400   0.11997149   -7.6301878    3666.4361          731 
   21500   0.11899449   -7.6310934    3665.9088          712 
   21600   0.11991288   -7.6299116    3666.5531          727 
   21700   0.12123018   -7.6313452    3666.1617          693 
   21800   0.11924563   -7.6322123    3666.4494          659 
   21900   0.12219048   -7.6329244    3666.7002          705 
   22000   0.12096416   -7.6349105    3665.7674          723 
   22100   0.11906728   -7.6351372    3666.5269          739 
   22200   0.12080397    -7.631495    3667.2112          741 
   22300   0.11892973    -7.632885     3665.716          738 
   22400   0.11939983   -7.6307956     3665.482          769 
   22500    0.1200939   -7.6308226    3665.2937          779 
   22600   0.12077298   -7.6383914    3665.0324          750 
   22700    0.1195466   -7.6355257    3668.2346          750 
   22800   0.12103589   -7.6361272    3668.5504          729 
   22900   0.11868542   -7.6375636    3666.4346          725 
   23000   0.12007822   -7.6309834    3664.8818          757 
   23100   0.12232949   -7.6283257    3662.7476          802 
   23200   0.11817297   -7.6298906     3663.927          752 
   23300   0.11890094   -7.6359467    3666.6004          758 
   23400    0.1222384   -7.6405258    3669.1816          754 
   23500   0.12002394   -7.6380184    3669.1579          775 
   23600   0.11790846    -7.636875    3666.4636          773 
   23700   0.12104736   -7.6362493    3663.9928          815 
   23800   0.12149935   -7.6331607    3663.9611          802 
   23900   0.12069577   -7.6327951    3665.1689          811 
   24000    0.1188895   -7.6370565    3665.6975          796 
   24100   0.12267216   -7.6400935    3665.9946          802 
   24200   0.12248329   -7.6366753    3666.3011          797 
   24300   0.11792139   -7.6369718    3665.0458          768 
   24400   0.11962592   -7.6317203    3662.8509          797 
   24500   0.12177082   -7.6302248    3661.0401          815 
   24600   0.12064276   -7.6354484    3663.8479          817 
   24700   0.11900979   -7.6422185    3668.5534          809 
   24800   0.11912657    -7.646339    3669.0777          817 
   24900   0.11886677   -7.6400461    3666.8426          840 
   25000   0.12190524   -7.6356272    3664.8398          790 
   25100   0.12037951   -7.6366247    3662.8157          774 
   25200   0.12280411    -7.638438    3662.8575          767 
   25300   0.12308546   -7.6359572    3665.1807          802 
   25400   0.12184955    -7.640146    3665.4167          784 
   25500   0.12411809    -7.643105    3664.5649          802 
   25600   0.11836392   -7.6407043    3664.5762          813 
   25700   0.11958904   -7.6329145    3661.8742          840 
   25800   0.12006849   -7.6258747    3660.6588          809 
   25900   0.11884927   -7.6342161    3662.9127          820 
   26000   0.12083167   -7.6431474    3666.8952          872 
   26100   0.11805811   -7.6408664     3669.081          848 
   26200   0.12367877   -7.6397507    3666.9038          824 
   26300   0.12196746   -7.6389155    3664.3239          813 
   26400   0.12019425   -7.6355065    3663.4091          801 
   26500   0.11809991   -7.6335327    3663.0915          811 
   26600     0.118058   -7.6385464    3662.9613          816 
   26700   0.12003575   -7.6385455    3666.1346          824 
   26800   0.12154553   -7.6409042    3666.5907          824 
   26900   0.11828858   -7.6424359      3665.15          812 
   27000   0.11893445   -7.6359869     3663.939          824 
   27100   0.12091048   -7.6300935    3659.0842          808 
   27200   0.12304126   -7.6311685    3659.7603          811 
   27300   0.11972554   -7.6399604    3663.3557          815 
   27400   0.11977065   -7.6409883    3667.1311          771 
   27500   0.12141451   -7.6419452    3667.3232          824 
   27600   0.12077345   -7.6426775    3664.3195          848 
   27700   0.12115131   -7.6373237    3662.9906          863 
   27800   0.11995788   -7.6357431    3662.6563          847 
   27900   0.12049417   -7.6408619    3662.0953          847 
   28000   0.12046374   -7.6398488    3664.6048          829 
   28100   0.12061823   -7.6401928    3666.5186          827 
   28200   0.11868528   -7.6447509    3665.9346          837 
   28300   0.12159195   -7.6421563    3664.5466          795 
   28400   0.12126273   -7.6371205    3661.9299          813 
   28500   0.11911199   -7.6348599    3659.1298          787 
   28600   0.11913141   -7.6374496    3660.5112          815 
   28700   0.12171529   -7.6416048    3665.5777          780 
   28800   0.11822076   -7.6436244    3667.8098          741 
   28900   0.11904888   -7.6453201    3664.6946          827 
   29000   0.11919972    -7.638812     3664.609          807 
   29100    0.1201444   -7.6383624    3663.6806          793 
   29200   0.11707636   -7.6408391    3663.0276          839 
   29300   0.11959555   -7.6386568    3664.2374          824 
   29400   0.12050658   -7.6368049    3665.8285          810 
   29500   0.12111048   -7.6405593    3664.7567          821 
   29600   0.11971531   -7.6422473    3664.1522          854 
   29700   0.12295971   -7.6400676    3664.3126          826 
   29800   0.11987596   -7.6362325    3663.5747          777 
   29900   0.11789606   -7.6392135    3662.7125          812 
   30000   0.11840659   -7.6384909     3664.195          794 
   30100   0.12076965   -7.6429948    3666.1008          803 
   30200   0.12168066   -7.6456529    3666.0505          808 
   30300   0.12069193    -7.640432    3665.3238          824 
   30400   0.12190959   -7.6353803    3662.5827          825 
   30500   0.11693515   -7.6345874    3660.6729          847 
   30600   0.12081014   -7.6369017    3661.7116          782 
   30700   0.12137386   -7.6412093    3665.6773          834 
   30800    0.1190844   -7.6465631     3666.612          797 
   30900   0.11946094   -7.6395207    3667.3878          832 
   31000    0.1196879   -7.6374425    3664.3443          849 
   31100   0.11964744    -7.639909    3661.9374          838 
   31200   0.12149906   -7.6389028    3663.2857          796 
   31300   0.12056657   -7.6389912    3664.6506          825 
   31400   0.12006795    -7.641985    3665.4264          859 
   31500   0.12283596   -7.6437967    3665.0068          848 
   31600   0.12174631   -7.6365568    3665.6052          824 
   31700   0.11952855   -7.6381708    3662.7098          803 
   31800    0.1214784   -7.6374093    3660.8139          826 
   31900   0.12015673   -7.6351471    3662.4874          846 
   32000   0.12051231   -7.6415555    3666.0746          855 
   32100    0.1192904   -7.6494244    3668.4668          825 
   32200   0.12028731   -7.6469043    3666.7647          850 
   32300   0.11940618    -7.637851    3665.0394          859 
   32400   0.12146631    -7.637277    3662.1681          844 
   32500   0.11915848   -7.6380145    3662.2886          865 
   32600   0.11781964   -7.6382594    3663.8525          872 
   32700   0.12012176   -7.6425449    3664.3236          897 
   32800   0.11904789   -7.6446693    3664.9322          884 
   32900   0.12034829   -7.6433357    3665.0578          889 
   33000   0.12248721   -7.6393116    3664.1532          846 
   33100   0.11919008   -7.6370065    3659.9378          869 
   33200   0.12125766   -7.6339226    3658.8957          855 
   33300   0.11740151   -7.6397449    3662.1508          868 
   33400   0.11863598   -7.6457645    3666.2809          875 
   33500   0.12010977   -7.6443267    3667.7593          853 
   33600   0.11955989   -7.6424732    3665.4241          866 
   33700   0.11802714   -7.6435526    3661.6193          860 
   33800   0.11846498   -7.6372917    3661.8759          851 
   33900   0.12220277   -7.6389341    3662.3548          879 
   34000   0.11960084   -7.6437717     3662.837          892 
   34100    0.1187333    -7.644159    3665.2253          890 
   34200   0.12254146   -7.6451159    3665.6314          848 
   34300   0.12399866   -7.6405693    3665.2742          872 
   34400   0.12075976   -7.6365832    3659.6842          860 
   34500   0.12019474   -7.6314253    3656.8403          856 
   34600   0.12145587   -7.6350456    3661.7798          891 
   34700   0.12041006   -7.6452002    3665.1209          892 
   34800   0.11807129   -7.6470211    3667.0289          866 
   34900   0.11972279   -7.6454679    3665.6915          847 
   35000   0.12286651   -7.6421935    3663.1474          848 
   35100   0.12003355   -7.6395395    3660.6972          892 
   35200   0.11964912   -7.6412979    3660.6781          838 
   35300    0.1179443    -7.639546    3664.0601          841 
   35400    0.1200184   -7.6434098    3665.9264          858 
   35500   0.12133125   -7.6447686    3665.5545          887 
   35600   0.11973796   -7.6435439    3664.4586          872 
   35700   0.11609352   -7.6405775    3663.9162          845 
   35800   0.12148702    -7.639533     3663.078          865 
   35900   0.11775546   -7.6414875    3663.3821          842 
   36000   0.11886068   -7.6432563    3663.4089          881 
   36100    0.1208654   -7.6416791    3664.2718          835 
   36200   0.11887237   -7.6403459    3664.6735          833 
   36300   0.12038343   -7.6422807    3664.1274          811 
   36400   0.11845755   -7.6388057    3664.8015          847 
   36500   0.11819375   -7.6437801    3663.2602          855 
   36600   0.12146603   -7.6417818    3663.5755          838 
   36700   0.12315163   -7.6425024    3663.3735          817 
   36800   0.11892816   -7.6412128    3663.0793          826 
   36900   0.12091603   -7.6409675    3663.9829          835 
   37000     0.119959   -7.6451632    3662.7924          860 
   37100   0.11929225    -7.641359    3664.2724          876 
   37200   0.12056036   -7.6413709    3665.0673          852 
   37300   0.12161754   -7.6445534    3664.4468          896 
   37400   0.11863444   -7.6430665     3662.973          871 
   37500   0.12249794   -7.6391869    3661.0408          893 
   37600   0.12097006   -7.6375075    3658.8782          884 
   37700    0.1187824   -7.6410508    3660.1411          889 
   37800   0.11974107   -7.6438004    3665.0478          886 
   37900   0.11929102    -7.646315    3667.0657          878 
   38000   0.12210128   -7.6460707    3665.8273          881 
   38100    0.1184296   -7.6421578    3663.9159          853 
   38200   0.12137296   -7.6427579    3661.4205          862 
   38300   0.12211352   -7.6377992    3662.8287          898 
   38400   0.12063126   -7.6415536    3662.1314          899 
   38500   0.11986585   -7.6426576    3663.7282          873 
   38600   0.12265138   -7.6423066    3665.9608          894 
   38700    0.1196601   -7.6449098    3665.3301          878 
   38800     0.120934   -7.6441744    3663.2039          879 
   38900   0.12120074   -7.6390497    3662.0076          906 
   39000   0.11926409    -7.641677    3660.0796          827 
   39100   0.11946342   -7.6397604    3661.8812          925 
   39200   0.11858989   -7.6438432    3664.5383          917 
   39300   0.11991764   -7.6477665    3667.2453          856 
   39400   0.12229974   -7.6464192    3667.6805          847 
   39500   0.12009349   -7.6425649    3662.3164          884 
   39600   0.12043543    -7.636626    3658.0403          891 
   39700   0.12064352   -7.6390984    3658.7518          862 
   39800   0.12344236   -7.6420502    3662.4149          867 
   39900   0.12010863   -7.6478589    3663.4473          871 
   40000   0.12163058   -7.6471783    3664.1961          866 
   40100   0.11909656   -7.6425143    3665.4508          871 
   40200   0.11722353   -7.6392098    3664.0147          893 
   40300   0.11821486   -7.6422139    3660.5116          858 
   40400   0.11963677   -7.6450677    3659.5963          862 
   40500   0.12000956   -7.6418636    3662.7377          840 
   40600   0.12045619   -7.6472434    3665.5827          823 
   40700   0.12039843   -7.6504902    3667.5266          889 
   40800   0.11896723    -7.649059    3664.8986          868 
   40900   0.11883728   -7.6412771     3661.224          874 
   41000   0.12017407   -7.6352705    3658.4751          864 
   41100   0.11951567   -7.6416246    3659.7477          804 
   41200   0.11985193   -7.6464782    3662.4077          784 
   41300   0.12094551   -7.6449471    3664.2737          806 
   41400   0.11991674   -7.6470693     3662.747          776 
   41500   0.11982919   -7.6412544    3663.7351          880 
   41600   0.12248775   -7.6438431    3661.7919          952 
   41700   0.11799943    -7.643006    3662.2496          889 
   41800   0.12086394   -7.6440149    3663.3294          887 
   41900   0.11890513   -7.6462792    3665.0625          856 
   42000   0.11928515   -7.6502381    3665.3366          872 
   42100   0.12227486   -7.6463225     3665.152          876 
   42200   0.12316917   -7.6418711    3661.6029          859 
   42300   0.11804568    -7.639124    3659.0143          891 
   42400   0.12004186   -7.6391943    3660.9108          854 
   42500   0.12050226   -7.6435311    3663.7086          801 
   42600   0.11796775   -7.6478987    3665.9349          843 
   42700    0.1172331   -7.6505262     3664.784          841 
   42800   0.11897734   -7.6437474    3664.1614          840 
   42900   0.12019222   -7.6411919    3660.8183          886 
   43000   0.11732832   -7.6429628    3659.7448          858 
   43100   0.12019031   -7.6428028    3661.8133          861 
   43200   0.12012464   -7.6451761    3664.1768          880 
   43300   0.12056519   -7.6470479    3665.9274          901 
   43400   0.11781756   -7.6437429    3665.7857          879 
   43500   0.12096359   -7.6481405    3662.1067          905 
   43600   0.12118512   -7.6406975    3659.7833          871 
   43700   0.12291409   -7.6391673    3658.9539          929 
   43800   0.11974177   -7.6437098    3660.6635          907 
   43900   0.11982906   -7.6472768    3664.1026          920 
   44000   0.12082586   -7.6472493    3666.2289          941 
   44100    0.1204338   -7.6451268    3664.3805          897 
   44200   0.12216548   -7.6443054    3662.0633          914 
   44300   0.11734759   -7.6423009    3661.0862          904 
   44400    0.1216499   -7.6424096    3661.7352          913 
   44500   0.11955594   -7.6430847    3663.0315          857 
   44600   0.12069142   -7.6466983    3663.8633          891 
   44700   0.12006213   -7.6474212    3663.9046          897 
   44800   0.12080308   -7.6445048    3663.7102          926 
   44900   0.12115886   -7.6428864    3662.4995          977 
   45000   0.11897738   -7.6431697    3660.7166          978 
   45100   0.11825168   -7.6390456    3661.7943          961 
   45200   0.12154384   -7.6460662    3662.0545          948 
   45300    0.1185476   -7.6505113    3665.3749          991 
   45400   0.12030207    -7.650954    3667.3101          979 
   45500    0.1198894   -7.6477353    3664.2425          964 
   45600   0.12110838   -7.6470575    3658.7985          943 
   45700   0.11890838   -7.6411004     3660.601          950 
   45800   0.12112837   -7.6437765    3661.4092          976 
   45900   0.11885877   -7.6471938    3662.5493          955 
   46000   0.11955509   -7.6485732    3663.4578         1000 
   46100   0.12127518   -7.6464204    3663.9161         1015 
   46200   0.11861106   -7.6451193    3663.2719          973 
   46300   0.11833682   -7.6480801    3661.7474         1002 
   46400   0.11892127   -7.6474436    3662.2262          996 
   46500   0.11933746   -7.6453372    3662.3126          977 
   46600   0.11938207   -7.6467577    3661.0753         1005 
   46700   0.12128641   -7.6461206    3661.5253          969 
   46800   0.11809614   -7.6500847    3661.7734          984 
   46900   0.11692231   -7.6504283    3664.5994         1043 
   47000   0.12193954   -7.6520226    3664.3995         1065 
   47100   0.12055343   -7.6510111    3662.7748          986 
   47200   0.11863412   -7.6466689    3658.8859         1007 
   47300   0.12158857     -7.64251    3657.9404          998 
   47400   0.12424449   -7.6478275    3658.6783          973 
   47500   0.12008844   -7.6508272    3663.0611          997 
   47600   0.11989561   -7.6521595    3663.8543         1004 
   47700   0.12181983   -7.6504185    3662.6074          968 
   47800   0.12185878   -7.6463702    3662.3976          964 
   47900   0.11780974   -7.6459571    3661.1144          999 
   48000   0.12192818    -7.647948    3660.0314          950 
   48100   0.12200252    -7.647219    3661.4174          971 
   48200   0.11901505   -7.6495733    3662.4309          970 
   48300   0.12021408   -7.6541969    3662.6367         1004 
   48400   0.12163374   -7.6528852    3663.7678         1028 
   48500   0.11961445    -7.649507    3661.6821         1037 
   48600   0.12090186   -7.6453844     3658.718         1067 
   48700   0.12053443   -7.6432343    3657.6536         1032 
   48800   0.12086148   -7.6489265    3659.3282          959 
   48900   0.11898707   -7.6551773    3662.4615         1030 
   49000   0.12048315   -7.6569529     3663.871         1054 
   49100   0.11943562   -7.6533244    3663.2397         1029 
   49200   0.12161893   -7.6475446    3662.2988         1005 
   49300   0.12056775   -7.6472793     3660.409         1041 
   49400   0.12036792   -7.6498385    3659.4237         1074 
   49500   0.11989969   -7.6533837    3660.6008         1039 
   49600     0.121049   -7.6544443    3661.1848         1035 
   49700   0.11941104   -7.6504614    3662.2767         1053 
   49800   0.11849311   -7.6514094    3661.6672         1064 
   49900   0.12101821   -7.6523922     3660.342         1058 
   50000   0.12159023   -7.6508108    3659.1065         1079 
   50100   0.11912038   -7.6505108    3659.1264         1080 
   50200   0.12151797   -7.6492416    3662.9874         1070 
   50300   0.12194277   -7.6565246    3664.1433         1107 
   50400   0.11945245   -7.6555311    3663.4256         1074 
   50500   0.11838136   -7.6505744    3661.2863         1143 
   50600   0.12132446   -7.6505069    3658.2226         1093 
   50700    0.1180827   -7.6490859    3657.4998         1077 
   50800   0.12004922   -7.6495834    3660.6334         1070 
   50900   0.12076436   -7.6566719    3662.0765         1109 
   51000   0.11995117   -7.6578886    3663.0308         1089 
   51100    0.1235419    -7.653156    3662.4496         1102 
   51200    0.1224333   -7.6510159    3659.1252         1063 
   51300   0.11849763   -7.6479793    3657.9759         1076 
   51400   0.12214075     -7.65125    3658.2052         1099 
   51500   0.11886401   -7.6502833    3662.2049         1121 
   51600   0.11951986   -7.6581815    3662.1042         1114 
   51700   0.11877136   -7.6557253    3662.7452         1097 
   51800   0.11946767   -7.6524388    3661.5401         1085 
   51900   0.11892246   -7.6534175    3658.5668         1066 
   52000   0.11962965   -7.6537089    3657.9815         1067 
   52100   0.12233469   -7.6528303    3659.3127         1088 
   52200   0.12050216   -7.6556719    3661.1575         1094 
   52300    0.1201126   -7.6579239    3662.6707         1054 
   52400   0.11811378   -7.6612291      3661.46         1069 
   52500   0.11983893   -7.6552772    3660.7443         1052 
   52600    0.1209471    -7.650084    3657.7986         1051 
   52700   0.11945946   -7.6518035     3653.569         1039 
   52800   0.12200696    -7.654085    3656.6187         1054 
   52900   0.12033881   -7.6565341    3661.1345         1060 
   53000    0.1225964   -7.6549681    3662.9118         1078 
   53100   0.11810611   -7.6563359    3661.7993         1108 
   53200   0.11872066   -7.6542452    3660.1428         1047 
   53300   0.12167511   -7.6534352     3659.437         1036 
   53400   0.11710953    -7.653979    3658.7035         1054 
   53500   0.11876706   -7.6527041    3659.9031         1025 
   53600   0.12045017   -7.6572504    3660.9227         1078 
   53700   0.11864423   -7.6618627    3660.6788         1044 
   53800   0.11999268   -7.6586945      3660.92         1023 
   53900   0.11998469   -7.6527952    3659.0157          993 
   54000   0.12072823   -7.6499078     3656.338         1032 
   54100   0.11669029   -7.6510679    3656.2366         1053 
   54200   0.11734506   -7.6541867    3660.3399         1058 
   54300     0.119849    -7.659271    3663.4711         1076 
   54400   0.11685825   -7.6610589    3662.9185         1029 
   54500   0.11701094   -7.6585339    3659.7508         1045 
   54600   0.11998988   -7.6531079    3657.4136         1066 
   54700   0.12103039   -7.6521549     3656.316         1102 
   54800   0.11878377   -7.6573127    3657.9755         1074 
   54900   0.12091536   -7.6575842    3661.6033         1047 
   55000   0.12046818   -7.6605742    3662.2458         1083 
   55100   0.12074872   -7.6617327    3659.8526         1067 
   55200   0.11754441   -7.6562822    3658.3129         1041 
   55300   0.12120502   -7.6526452    3657.3617         1058 
   55400   0.12130847   -7.6544922    3658.2344         1070 
   55500   0.12099314   -7.6616133    3658.0544         1065 
   55600   0.11803573   -7.6559799    3660.8291         1045 
   55700     0.117751   -7.6562465    3660.9545         1067 
   55800   0.12128219    -7.656404    3660.1356         1075 
   55900   0.11935706     -7.65835    3658.5969         1084 
   56000   0.12054702   -7.6558201    3658.6838         1073 
   56100   0.12126295   -7.6551187    3659.3513         1042 
   56200   0.11998595   -7.6582109     3659.137         1031 
   56300   0.11976873   -7.6594538    3660.9387         1051 
   56400   0.11948451   -7.6593427    3661.3131         1044 
   56500   0.11931124   -7.6589492    3658.7253         1052 
   56600   0.12167549   -7.6524828    3656.8307         1057 
   56700   0.11918279   -7.6525284    3656.2497         1085 
   56800   0.11780013     -7.65858    3658.2691         1095 
   56900   0.12073588   -7.6598956    3662.5251         1048 
   57000   0.11935702   -7.6607262    3663.5716         1074 
   57100   0.11905919   -7.6638765    3660.0228         1021 
   57200   0.11768097   -7.6575634    3658.3226         1080 
   57300   0.11911168   -7.6548658    3659.0771         1073 
   57400   0.12018444   -7.6566055     3658.998         1102 
   57500   0.12120491   -7.6618814    3658.0659         1071 
   57600   0.11818237   -7.6560499     3660.716         1073 
   57700   0.12024207    -7.657333    3660.8481         1046 
   57800   0.11996193   -7.6579485    3660.0062         1078 
   57900   0.11900691    -7.655221    3658.6717         1071 
   58000   0.12012309   -7.6522615    3658.9427         1044 
   58100   0.11895132   -7.6531677      3658.48         1076 
   58200   0.11912615   -7.6599251    3659.9209         1061 
   58300   0.12081921   -7.6627657    3662.8465         1054 
   58400   0.12062458   -7.6606671    3662.5495         1088 
   58500   0.11876946   -7.6576935     3659.514         1038 
   58600    0.1164904   -7.6539146    3656.6855         1050 
   58700   0.11992078   -7.6541542     3656.077         1103 
   58800   0.12065956   -7.6543137     3659.545         1093 
   58900   0.12109944   -7.6612082    3661.2222         1081 
   59000   0.11809579   -7.6619678     3661.949         1098 
   59100   0.11965956   -7.6586569    3661.1957         1129 
   59200   0.11957036   -7.6559767    3659.2571         1120 
   59300   0.11624503   -7.6567116    3657.9125         1076 
   59400   0.11798273   -7.6596917    3657.9505         1042 
   59500   0.12110894   -7.6590759    3659.4561         1057 
   59600   0.12170824    -7.658125    3659.8599         1097 
   59700   0.11881095   -7.6611319    3658.8631         1072 
   59800   0.11883212   -7.6561198    3659.0328         1088 
   59900   0.11877695   -7.6548013    3659.4251         1040 
   60000   0.11999704   -7.6585611    3658.9227         1055 
   60100   0.11798731   -7.6595026    3658.9313         1066 
   60200   0.12139779   -7.6572764    3659.1809         1055 
   60300   0.11827977   -7.6552752    3660.0648         1092 
   60400   0.12023671   -7.6564896    3658.7571         1072 
   60500   0.11749191   -7.6583045    3658.7355         1067 
   60600   0.12140549    -7.656728    3660.1782         1043 
   60700   0.11869177   -7.6598254    3661.4126         1059 
   60800   0.12056109    -7.659935    3661.1954         1057 
   60900   0.12087571   -7.6593031    3659.3639         1048 
   61000   0.11815654   -7.6548043    3656.7894         1046 
   61100   0.12164245   -7.6516174    3656.4039         1061 
   61200   0.11885378   -7.6560306    3657.6274         1072 
   61300   0.12044766   -7.6618148    3660.9588         1105 
   61400   0.12027335   -7.6628603    3662.9397         1077 
   61500   0.12097298   -7.6642832    3659.6729         1069 
   61600    0.1192186   -7.6571423    3658.0091         1085 
   61700   0.12018929   -7.6555149    3657.9409         1070 
   61800   0.12186951   -7.6545221    3658.9914         1058 
   61900   0.12066773   -7.6592332    3658.9445         1071 
   62000   0.12118182   -7.6587388    3660.0959         1093 
   62100   0.11839058   -7.6576767    3660.4705         1099 
   62200   0.12053726   -7.6597027    3659.5801         1058 
   62300    0.1202638   -7.6545771    3658.6805         1056 
   62400   0.12273294   -7.6546057    3658.2343         1087 
   62500   0.12080151   -7.6590476    3657.2804         1077 
   62600   0.12241909    -7.659612    3659.8221         1080 
   62700   0.12003863   -7.6597796    3661.6648         1044 
   62800   0.11554051   -7.6612532    3660.4696          988 
   62900   0.12038503    -7.658696    3658.5599         1028 
   63000   0.12139019   -7.6539276    3657.2482         1068 
   63100   0.11984016   -7.6515395    3656.4604         1073 
   63200   0.11839468   -7.6581688    3658.1396         1080 
   63300   0.12021823   -7.6640791    3661.6221         1056 
   63400    0.1200696    -7.662765    3663.6283         1073 
   63500   0.12024126   -7.6597479    3660.7743         1074 
   63600   0.12148211   -7.6550682    3657.9096         1099 
   63700   0.12221486   -7.6529724    3657.0966         1097 
   63800   0.11987995   -7.6576314    3657.5724         1094 
   63900   0.12183866   -7.6591284    3659.4006         1083 
   64000   0.12343132   -7.6588595    3660.6572         1083 
   64100   0.12154497   -7.6618897    3659.3262         1103 
   64200   0.12326604   -7.6619381    3658.1337         1052 
   64300   0.11954346   -7.6585238    3657.9739         1066 
   64400    0.1203895   -7.6586807    3655.2225         1068 
   64500   0.11919572    -7.652369    3656.2014         1106 
   64600   0.11958706    -7.657388    3661.7814         1068 
   64700   0.11872428   -7.6672591    3664.3159         1065 
   64800   0.11857182   -7.6645981    3663.0254         1067 
   64900   0.12226516   -7.6591917    3659.2605         1045 
   65000   0.11984604   -7.6557872    3656.3053         1075 
   65100   0.11945312   -7.6557613    3656.4022         1061 
   65200   0.12173381   -7.6550159     3658.285         1070 
   65300    0.1211748   -7.6604071    3658.6926         1061 
   65400   0.12095034   -7.6620802    3660.2219         1040 
   65500   0.11991431    -7.659197     3660.786         1105 
   65600   0.11899893   -7.6575424    3658.8428         1050 
   65700   0.11803292   -7.6588297    3655.9508         1088 
   65800   0.11871924   -7.6528489    3657.2715         1091 
   65900   0.12166651   -7.6588441    3658.3812         1071 
   66000   0.11600161   -7.6638579    3663.1849         1077 
   66100   0.12261223   -7.6667713    3664.2409         1056 
   66200   0.11799855   -7.6605483    3660.6284         1062 
   66300   0.12012037   -7.6565024    3657.3038         1063 
   66400   0.12266192   -7.6551525    3656.3461         1046 
   66500   0.11921945   -7.6577119    3657.1449         1081 
   66600   0.12032645   -7.6588157    3659.6217         1063 
   66700   0.11935743   -7.6589553    3661.7901         1022 
   66800   0.11830932   -7.6593154    3661.8092         1053 
   66900    0.1182551   -7.6595637    3658.9736         1050 
   67000   0.12135693   -7.6580228    3656.4166         1069 
   67100   0.11961831   -7.6544359    3656.7291         1033 
   67200    0.1221263   -7.6565807    3658.5298         1065 
   67300   0.11889223   -7.6642356    3662.0238         1051 
   67400   0.11890653   -7.6677371     3666.689         1018 
   67500   0.12316235   -7.6632255    3663.6103         1027 
   67600   0.12034779   -7.6562724    3657.6707         1069 
   67700   0.11707888   -7.6540218    3655.5523         1060 
   67800    0.1194228    -7.654287     3656.637         1021 
   67900   0.12053128   -7.6584274    3658.4167         1067 
   68000   0.11680834   -7.6628092    3659.5822         1039 
   68100   0.12107518   -7.6628425     3660.554         1064 
   68200   0.12172347   -7.6607157    3659.4364         1056 
   68300   0.11712682   -7.6581503    3658.3365         1002 
   68400   0.12058161   -7.6550427    3657.9491         1028 
   68500   0.11999104   -7.6564512    3657.6433         1068 
   68600   0.11944805   -7.6622607    3658.9202         1062 
   68700   0.12004259   -7.6627796    3663.0043         1068 
   68800   0.11858836   -7.6633341    3662.8256         1046 
   68900   0.12108277   -7.6565496     3660.712         1097 
   69000    0.1193819   -7.6539222    3656.1113         1050 
   69100   0.11933332   -7.6546773    3655.4284         1026 
   69200   0.12240394   -7.6569025    3657.7412         1022 
   69300   0.12014591   -7.6561116    3660.3539         1040 
   69400   0.11864119   -7.6638326    3660.1324         1051 
   69500    0.1198359   -7.6586251    3660.7874         1027 
   69600   0.12038748   -7.6584511    3659.3163         1060 
   69700   0.11848891   -7.6588703    3657.9083         1054 
   69800   0.11939383    -7.656396    3658.0929         1062 
   69900   0.11915636   -7.6566574    3658.6692         1076 
   70000   0.11800129   -7.6616078    3659.5864         1062 
   70100   0.11985462   -7.6637493     3662.413         1060 
   70200   0.11896059   -7.6600604    3661.7892         1073 
   70300   0.11689246   -7.6565032    3657.5368         1049 
   70400   0.11765802   -7.6523518    3654.7756         1051 
   70500   0.12131529   -7.6562237    3655.3918         1101 
   70600   0.12119055     -7.66004    3658.1148         1044 
   70700   0.12036316   -7.6593117     3661.264         1048 
   70800   0.11784296   -7.6637191    3660.3716         1076 
   70900   0.11858908   -7.6601499    3660.1605         1056 
   71000   0.12066029   -7.6577116    3658.8417         1043 
   71100   0.11846088   -7.6584885    3657.5168         1024 
   71200   0.11988191   -7.6588249    3656.8614         1093 
   71300    0.1209416   -7.6571037    3658.6377         1057 
   71400   0.12204416   -7.6578381    3659.1484         1053 
   71500   0.12005631    -7.660315    3658.6084         1070 
   71600   0.12365049   -7.6603728    3658.6309         1098 
   71700   0.12070737   -7.6567644    3659.4918         1086 
   71800   0.11982356   -7.6600399    3658.9324         1088 
   71900   0.11796601   -7.6595947    3659.0574         1087 
   72000   0.11926992   -7.6568726    3659.3711         1067 
   72100   0.11968992   -7.6618509    3658.1249         1042 
   72200   0.12003209   -7.6619298    3657.7417         1057 
   72300    0.1212347    -7.659459     3658.973         1055 
   72400   0.12152769   -7.6608119    3659.9076         1097 
   72500   0.11647128   -7.6598015    3661.1125         1061 
   72600   0.12116957   -7.6582852    3660.9426         1060 
   72700   0.11924063   -7.6563042    3658.7001         1058 
   72800   0.11994794   -7.6555762    3656.1893         1044 
   72900    0.1215374   -7.6519575    3657.1518         1051 
   73000   0.12012181    -7.655789    3660.2026         1056 
   73100   0.12015633   -7.6631528    3661.9369         1087 
   73200   0.12159039   -7.6640649    3663.2515         1110 
   73300   0.12248009   -7.6612717    3660.3772         1038 
   73400   0.11846508   -7.6581623    3657.9569         1063 
   73500   0.11815485   -7.6545498    3658.2407         1039 
   73600   0.12085257   -7.6545914     3658.754         1065 
   73700   0.11972573   -7.6583832    3658.7538         1063 
   73800   0.11991849   -7.6606153    3659.5237         1088 
   73900   0.12411853   -7.6586544    3660.1101         1058 
   74000    0.1194739     -7.65843    3659.7661         1053 
   74100   0.11961272   -7.6592565    3657.4438         1038 
   74200   0.11839273   -7.6608128    3656.4946         1047 
   74300   0.12034376   -7.6581176    3657.9518         1091 
   74400   0.12127148   -7.6589062    3659.9694         1097 
   74500   0.12475621   -7.6586807    3662.3687         1070 
   74600   0.12106026    -7.660874    3661.6428         1060 
   74700   0.12254011   -7.6618888    3657.8438         1058 
   74800   0.11841328   -7.6575354    3655.7809         1059 
   74900   0.11938533    -7.654429    3655.6231         1104 
   75000   0.12106491   -7.6514101    3659.7254         1091 
   75100   0.12285905   -7.6623122    3660.1935         1079 
   75200   0.12016931   -7.6644857    3661.1322         1100 
   75300   0.12048291    -7.661011    3660.5138         1038 
   75400   0.11918607   -7.6573746    3659.8389         1057 
   75500   0.11875958   -7.6579055    3658.3464         1038 
   75600    0.1198357   -7.6542559    3659.9614         1056 
   75700   0.12176475   -7.6620226    3657.9346         1054 
   75800   0.11938064   -7.6590476    3659.3425         1075 
   75900   0.11924226   -7.6581582    3659.8151         1047 
   76000    0.1211154   -7.6600492    3658.3979         1060 
   76100   0.12154263    -7.655585    3658.7355         1049 
   76200    0.1204546   -7.6552516    3658.9721         1091 
   76300   0.11893072   -7.6588093    3658.3096         1074 
   76400   0.12274035   -7.6601062    3659.3407         1086 
   76500   0.11978434   -7.6611851    3660.1603         1007 
   76600   0.11992186   -7.6619907    3659.2217          999 
   76700   0.12081877   -7.6586961    3658.5069         1070 
   76800   0.12027776   -7.6575288    3657.4479         1032 
   76900   0.12526166   -7.6558588    3657.6792         1096 
   77000   0.12070897   -7.6562451    3659.3518         1094 
   77100   0.12017863   -7.6631038    3660.1971         1045 
   77200   0.11986028   -7.6648237    3660.6783         1077 
   77300   0.12106441   -7.6592933    3660.5336         1083 
   77400   0.12059775   -7.6587124    3656.7612         1079 
   77500   0.11775839   -7.6558068    3656.3355         1073 
   77600   0.12040046   -7.6539439    3657.9765         1081 
   77700   0.12035146   -7.6611865    3659.2808         1030 
   77800    0.1193141   -7.6646218    3662.2593         1071 
   77900   0.12068508   -7.6639068    3662.3719         1055 
   78000   0.11785953   -7.6571051    3660.2418         1031 
   78100   0.11862533   -7.6560885    3656.0131         1038 
   78200   0.11756239   -7.6547753     3656.179         1051 
   78300   0.12209189   -7.6582441    3657.9133         1045 
   78400   0.11856919   -7.6600649    3659.3889         1035 
   78500   0.12074421    -7.658679    3661.4431         1033 
   78600   0.11937401   -7.6600199    3659.8038         1038 
   78700   0.12247876   -7.6611121    3657.8592         1055 
   78800   0.12222772   -7.6586769    3657.7026         1063 
   78900   0.12074925   -7.6565183    3659.0277         1056 
   79000   0.11815083   -7.6589668    3659.7364         1079 
   79100   0.12161499   -7.6623003    3659.7777         1030 
   79200   0.12326724   -7.6600937    3661.2514         1049 
   79300   0.12059615   -7.6609741    3658.9046         1111 
   79400   0.11854048   -7.6564489    3656.7148         1107 
   79500   0.11855101   -7.6509991    3657.5077         1049 
   79600   0.11845186   -7.6562971    3658.4482         1091 
   79700   0.12047013   -7.6618734    3661.4388         1077 
   79800   0.11917891   -7.6639703    3662.3049         1061 
   79900   0.11814902   -7.6629408    3660.3611         1048 
   80000   0.11994697   -7.6559876    3658.2108         1054 
   80100   0.12231516   -7.6559209    3656.6896         1089 
   80200   0.11852188   -7.6574986    3657.3045         1110 
   80300   0.11932133   -7.6573562    3659.2841         1091 
   80400   0.12013426   -7.6586741    3660.6897         1085 
   80500   0.11810733   -7.6597861    3660.9215         1130 
   80600   0.12287704   -7.6573495     3660.517         1103 
   80700   0.12217976   -7.6583312    3658.3497         1099 
   80800   0.11867571   -7.6574727    3657.3099         1075 
   80900   0.11893384   -7.6594555     3657.225         1096 
   81000   0.11969444   -7.6585651    3659.2785         1059 
   81100   0.12128953   -7.6623199    3661.9967         1061 
   81200   0.11929077    -7.665739    3662.4957         1090 
   81300   0.11913099   -7.6628452    3659.3922         1094 
   81400   0.12037549   -7.6528552     3657.157         1106 
   81500   0.11876414   -7.6546735    3655.9257         1095 
   81600    0.1200275   -7.6580412    3657.2244         1036 
   81700   0.11908198   -7.6581299     3661.066         1090 
   81800   0.12232541   -7.6599858    3660.8188         1086 
   81900   0.11917427   -7.6606199    3659.7259         1071 
   82000   0.12142174    -7.658951    3658.9701         1076 
   82100   0.12068237   -7.6553797    3658.7772         1044 
   82200   0.11757318    -7.658536    3658.6904         1028 
   82300   0.12259205    -7.660984     3658.111         1072 
   82400   0.12133761   -7.6592767    3659.1284         1068 
   82500   0.11948875    -7.659263    3658.5464         1031 
   82600   0.12073606   -7.6581301    3658.6516         1077 
   82700   0.12306848   -7.6577167    3658.6428         1088 
   82800   0.11849523   -7.6587267    3659.2535         1068 
   82900   0.12076279   -7.6625051    3658.0383         1055 
   83000   0.12211904   -7.6594441    3659.0217         1049 
   83100    0.1198029   -7.6588525    3659.2665         1025 
   83200   0.11804518   -7.6586313    3659.2736         1018 
   83300   0.12027345    -7.657895    3659.1579         1073 
   83400   0.12393507   -7.6569845    3658.7662         1047 
   83500   0.11929289   -7.6590612    3658.5396         1062 
   83600   0.11922606    -7.659435    3659.1347         1065 
   83700   0.12124612   -7.6555926     3660.402         1028 
   83800   0.12056586   -7.6606177     3659.415         1046 
   83900   0.12000877   -7.6607967    3658.4918         1078 
   84000   0.12292225   -7.6574438    3658.5769         1094 
   84100   0.12057415   -7.6568554    3658.9569         1100 
   84200   0.11941885   -7.6598597    3658.6361         1046 
   84300   0.12320684   -7.6606763    3658.6237         1042 
   84400   0.11765475   -7.6577446    3659.8864         1069 
   84500   0.12157085   -7.6606109    3658.9442         1047 
   84600   0.11887941   -7.6604481    3659.2776         1056 
   84700   0.11954774   -7.6605415    3658.4862         1032 
   84800   0.11982214   -7.6563755    3658.7562         1039 
   84900   0.11799811   -7.6553762    3658.4408         1064 
   85000   0.12022485    -7.661939    3657.5524         1046 
   85100   0.12101563   -7.6584207    3659.8665         1055 
   85200   0.12011643   -7.6607161    3660.4119         1038 
   85300   0.11944011   -7.6623006     3659.229         1035 
   85400   0.12163997   -7.6559035    3658.7141         1039 
   85500    0.1190148   -7.6545181     3656.727         1039 
   85600   0.11983273   -7.6561011    3656.1866         1051 
   85700   0.12017786   -7.6563753    3659.6281         1077 
   85800   0.12002062   -7.6626042     3661.741         1058 
   85900   0.11852085     -7.66417    3661.9353         1067 
   86000   0.12164996   -7.6590617    3660.2907         1074 
   86100   0.12096992   -7.6567517    3656.8313         1033 
   86200   0.12096473   -7.6546051    3655.2693         1068 
   86300   0.11894165   -7.6575516    3657.1911         1048 
   86400   0.12115098   -7.6605671    3660.5493         1017 
   86500   0.11836996    -7.660519    3662.3147         1039 
   86600    0.1185045   -7.6611289    3660.8797         1038 
   86700    0.1215892   -7.6626264    3657.9051         1041 
   86800   0.11981993   -7.6537114    3658.0246         1046 
   86900   0.12109662   -7.6557319    3657.5168         1065 
   87000    0.1188388    -7.658141    3658.4766         1034 
   87100   0.12008904   -7.6590506     3659.906         1053 
   87200   0.11995737   -7.6557531    3661.4256         1053 
   87300   0.12110642    -7.658507    3659.2895         1045 
   87400   0.11931832   -7.6597146    3657.9861         1014 
   87500   0.11843907    -7.659226    3657.9689         1073 
   87600   0.12118635   -7.6568006    3659.1428         1081 
   87700   0.12027491   -7.6590876    3659.1687         1041 
   87800   0.11879748   -7.6598576    3660.7998         1018 
   87900   0.12031593   -7.6635095    3660.5291         1037 
   88000    0.1184554   -7.6635449    3658.0599         1033 
   88100   0.11918852   -7.6545619    3657.2893         1027 
   88200   0.11945981   -7.6528321    3655.3591         1020 
   88300   0.11970877   -7.6614165    3656.2892         1045 
   88400   0.11980146   -7.6606862    3660.3064         1035 
   88500    0.1193715   -7.6623103    3662.1909         1053 
   88600   0.11851465   -7.6627538    3660.8971         1076 
   88700   0.12128795   -7.6560089    3659.1852          987 
   88800   0.12268933   -7.6609949    3656.1049         1044 
   88900   0.11823466   -7.6562509    3657.2908         1017 
   89000   0.12137167   -7.6577786    3658.6341         1006 
   89100   0.11810845   -7.6597146    3659.3719         1052 
   89200   0.11791599    -7.663117    3658.5289         1032 
   89300   0.11978203   -7.6600473    3659.0792         1070 
   89400   0.12145838   -7.6582134     3658.129         1032 
   89500   0.11824148    -7.658377    3658.3426         1036 
   89600   0.12005047   -7.6568797    3659.2843         1026 
   89700   0.11998059   -7.6543968    3661.3306         1020 
   89800   0.12031944   -7.6615554    3659.2979         1032 
   89900   0.12131526   -7.6598811    3659.2327         1065 
   90000   0.12082253   -7.6559157    3658.7783         1067 
   90100   0.11871366   -7.6576134     3657.265         1057 
   90200   0.12140536    -7.660215    3658.0086         1027 
   90300   0.12019699   -7.6621007     3661.097         1052 
   90400   0.11814014    -7.666147    3660.8104         1024 
   90500    0.1205418   -7.6614486    3659.1975         1030 
   90600   0.12053471   -7.6539887    3657.0511         1090 
   90700   0.11843247   -7.6533113    3654.9664         1069 
   90800   0.11928878   -7.6557305    3656.9211         1074 
   90900   0.12283541   -7.6602747    3659.8257         1072 
   91000   0.11851371   -7.6603268    3661.6714         1062 
   91100   0.12018538   -7.6607314    3659.9195         1054 
   91200   0.12130151   -7.6569678    3658.5712         1057 
   91300   0.11916547    -7.656243    3658.2328         1075 
   91400   0.11957017    -7.659584    3657.0778         1052 
   91500   0.12305957   -7.6586509    3658.6581         1061 
   91600   0.12014475   -7.6583979    3660.7483         1018 
   91700   0.11896449   -7.6617752     3659.766         1058 
   91800   0.11829388   -7.6588209    3659.1547         1069 
   91900   0.12212871   -7.6566144     3658.138         1025 
   92000   0.11734693   -7.6549041    3657.3495         1074 
   92100   0.12152784   -7.6564485    3656.2141         1067 
   92200   0.11909597   -7.6573035    3659.9571         1056 
   92300   0.11898842   -7.6678502    3662.1828         1053 
   92400   0.11948409   -7.6664426    3663.6085         1053 
   92500   0.12118432   -7.6611229    3660.1145         1081 
   92600    0.1206907   -7.6566456    3655.8512         1021 
   92700   0.11969362   -7.6556127    3655.8898         1070 
   92800   0.11924336   -7.6576782     3657.643         1066 
   92900   0.11947271   -7.6630852    3659.2536         1037 
   93000    0.1197334   -7.6616102    3660.8465         1025 
   93100     0.121224   -7.6599519    3660.7372         1056 
   93200   0.11782669   -7.6602826    3659.0573         1057 
   93300   0.12041028   -7.6573282    3656.8941         1036 
   93400    0.1188835   -7.6542642    3656.6421         1005 
   93500    0.1153793   -7.6592311    3657.0191         1035 
   93600   0.11905486   -7.6625058    3661.5048         1033 
   93700   0.12281801   -7.6685791    3664.1486         1067 
   93800   0.11762966   -7.6669718    3663.2351         1047 
   93900   0.12096909   -7.6575918    3657.9734         1061 
   94000    0.1210112    -7.654242    3656.0878         1061 
   94100   0.11982589   -7.6573215    3656.2259         1053 
   94200   0.12031348   -7.6582774    3659.5917         1056 
   94300    0.1195131   -7.6622143    3660.5523         1061 
   94400   0.12165617   -7.6648278    3659.5735         1022 
   94500   0.11785908   -7.6599851    3658.9275         1066 
   94600   0.12262852   -7.6577543    3657.8217         1088 
   94700   0.11865963   -7.6554857    3656.0637         1072 
   94800   0.11983105   -7.6563767    3656.3527         1048 
   94900   0.11998315   -7.6592839    3659.2687         1011 
   95000   0.11669284   -7.6666295    3663.2034         1040 
   95100   0.12142165   -7.6676056    3664.2843         1119 
   95200   0.12158804   -7.6609385    3659.6232         1089 
   95300   0.11924778    -7.657729    3656.2576         1040 
   95400   0.11734932   -7.6594707    3656.0677         1051 
   95500   0.11933144   -7.6570941    3658.3097         1114 
   95600   0.12268387   -7.6622102    3659.0577         1111 
   95700   0.11865321   -7.6629911    3659.7064         1070 
   95800   0.12166864   -7.6603482    3659.8422         1101 
   95900   0.12006708   -7.6587545    3657.3584         1093 
   96000   0.11805135   -7.6581704    3654.5633         1059 
   96100   0.12120523   -7.6556281     3655.705         1088 
   96200    0.1190404   -7.6558396     3659.328         1098 
   96300   0.11923609   -7.6672329    3662.0702         1057 
   96400   0.12024235   -7.6713307    3666.9174         1099 
   96500   0.12003497   -7.6635984    3662.1866         1080 
   96600   0.12005996   -7.6520458     3657.783         1100 
   96700   0.12054933   -7.6561181    3655.0546         1097 
   96800   0.11912518    -7.658791    3656.9274         1096 
   96900   0.12035685   -7.6577852     3659.494         1085 
   97000   0.12067803   -7.6613663    3660.2775         1092 
   97100    0.1175602   -7.6620519    3660.0476         1021 
   97200   0.12028074   -7.6582844    3659.4087         1078 
   97300   0.12217775    -7.656821      3657.44         1085 
   97400   0.11956473     -7.65706    3655.9629         1099 
   97500   0.12073534    -7.655808    3657.7604         1101 
   97600   0.12024504   -7.6613378    3661.9228         1037 
   97700   0.11988968   -7.6698783    3663.7339         1075 
   97800   0.12310688   -7.6680122    3662.1199         1096 
   97900   0.11967876   -7.6596157    3657.5778         1087 
   98000   0.11604508   -7.6549888    3656.0236         1067 
   98100   0.12105296   -7.6548058    3656.6036         1067 
   98200   0.11923525   -7.6592708    3657.6847         1065 
   98300   0.12074057   -7.6605986    3660.7554         1111 
   98400   0.12139558   -7.6639347    3661.6462         1101 
   98500   0.11816855   -7.6618652    3660.6123         1072 
   98600   0.11955994   -7.6584528    3658.3238         1048 
   98700   0.12324522   -7.6565083    3655.3559         1062 
   98800   0.12173815    -7.656415    3656.4506         1074 
   98900   0.11905441   -7.6600144    3659.0825         1072 
   99000   0.12144269   -7.6634733    3661.2047         1057 
   99100   0.12256177    -7.662693    3660.4135         1101 
   99200   0.11948648   -7.6613641    3658.0122         1080 
   99300   0.12279444   -7.6578981    3657.4763         1031 
   99400   0.11718063   -7.6543798    3658.2048         1035 
   99500   0.12041561   -7.6590929    3658.1863         1092 
   99600     0.117155   -7.6629935    3658.9885         1033 
   99700   0.12039714   -7.6618513     3659.939         1027 
   99800   0.12054462   -7.6608416    3660.3791         1047 
   99900   0.12104912   -7.6584084    3660.0954         1050 
  100000   0.11835027   -7.6587656    3657.0116         1045 
  100100   0.12139958   -7.6552797    3654.8673         1082 
  100200   0.12137776   -7.6537547    3657.0052         1080 
  100300   0.12138485   -7.6660584    3659.5444         1063 
  100400   0.11906951   -7.6672286    3662.4015         1077 
  100500   0.11944368   -7.6617004    3662.6516         1071 
  100600   0.11719418   -7.6589814    3658.0365         1031 
  100700   0.11981381   -7.6579171    3656.1316         1049 
  100800   0.12090938   -7.6552502    3657.5601         1076 
  100900   0.12180866    -7.660452    3657.9979         1123 
  101000   0.11902442   -7.6631096     3660.031         1095 
  101100   0.12251641   -7.6613546    3661.4158         1052 
  101200   0.12029828   -7.6596291    3660.0295         1078 
  101300   0.11773996   -7.6568394    3658.2431         1102 
  101400   0.12213714   -7.6548413    3656.1486         1125 
  101500   0.12038229   -7.6530434    3657.3883         1091 
  101600   0.12048032   -7.6623063    3658.3476         1077 
  101700   0.12151369   -7.6660519    3662.4526         1102 
  101800   0.12169427     -7.66578    3665.1734         1084 
  101900   0.11793165   -7.6624209    3661.2432         1070 
  102000   0.12266223   -7.6563734    3653.7187         1103 
  102100   0.12414193   -7.6560516    3654.5322         1060 
  102200   0.11846404   -7.6578358    3656.7128         1057 
  102300    0.1200645   -7.6624199     3659.502         1084 
  102400   0.12180296    -7.663469    3660.6795         1068 
  102500   0.12202658   -7.6589937    3661.0329         1083 
  102600   0.11887907   -7.6584685    3658.7658         1079 
  102700   0.12189671   -7.6582763     3656.822         1074 
  102800   0.12037003   -7.6537158    3658.1615         1054 
  102900   0.11735346   -7.6593968    3658.1476         1029 
  103000   0.12020497   -7.6615767    3660.6106         1067 
  103100   0.12320384   -7.6651743    3662.8846         1112 
  103200   0.12196573   -7.6660225    3660.4375         1083 
  103300    0.1200382   -7.6602754    3657.2749         1046 
  103400    0.1209139   -7.6518065    3655.8278         1050 
  103500   0.12445726   -7.6560008    3656.1128         1058 
  103600   0.11872048   -7.6579499    3658.5801         1063 
  103700   0.12004114   -7.6625587    3659.9594         1100 
  103800   0.11925487    -7.665207    3659.2156         1088 
  103900   0.12027044   -7.6594876    3659.8074         1035 
  104000   0.11908871   -7.6591257    3657.7243         1038 
Loop time of 187.108 on 32 procs for 100000 steps with 4000 atoms

Performance: 92352.970 tau/day, 534.450 timesteps/s
99.7% CPU use with 32 MPI tasks x no OpenMP threads

MPI task timing breakdown:
Section |  min time  |  avg time  |  max time  |%varavg| %total
---------------------------------------------------------------
Pair    | 17.26      | 17.815     | 18.557     |   8.4 |  9.52
Neigh   | 0.53073    | 0.5477     | 0.57784    |   1.4 |  0.29
Comm    | 7.5181     | 8.313      | 9.078      |  15.4 |  4.44
Output  | 6.5773     | 6.578      | 6.5893     |   0.1 |  3.52
Modify  | 148.76     | 150.52     | 152.08     |   8.5 | 80.45
Other   |            | 3.334      |            |       |  1.78

Nlocal:        125.000 ave         135 max         119 min
Histogram: 1 4 5 12 0 7 2 0 0 1
Nghost:        2071.00 ave        2083 max        2058 min
Histogram: 2 0 4 4 4 4 9 1 1 3
Neighs:        15850.6 ave       17316 max       15149 min
Histogram: 3 5 10 6 0 6 1 0 0 1
FullNghs:      31701.0 ave       34313 max       30182 min
Histogram: 1 2 8 11 3 5 1 0 0 1

Total # of neighbors = 1014431
Ave neighs/atom = 253.60775
Neighbor list builds = 1632
Dangerous builds = 0

#clear
#
#next RN
#
#jump SELF
Total wall time: 0:03:08
