
units lj                  # Use reduced LJ style units
atom_style atomic         # Uncharged point particles
atom_modify map hash      # Needed for indexing of clusters etc
                          # Used to be able to find where atoms are in relation to each other.

# Define a lattice with which to populate the simulation cell. With units
# set to 'lj' the second argument to the lattice command is the reduced
# density rho* and the spacings are multiples of that required to acheive
# that density. Also define a simulation cell called 'box' in lattice units
# and fill it with atoms. Here we're creating a box which is ten lattice
# constants in each direction.
lattice fcc 1.0 spacing 1 1 1                 # All equal sizes - gives the right reduced density.
Lattice spacing in x,y,z = 1.5874011 1.5874011 1.5874011

region box block 0 10 0 10 0 10 units lattice # Defines a region, "box", in lattice units
create_box 1 box                              # Creates a simulation box as specified above,
Created orthogonal box = (0.0000000 0.0000000 0.0000000) to (15.874011 15.874011 15.874011)
  3 by 4 by 4 MPI processor grid
                                              # with one type of atom
create_atoms 1 box                            # Creates particles on lattice points
Created 4000 atoms
  using lattice units in orthogonal box = (0.0000000 0.0000000 0.0000000) to (15.874011 15.874011 15.874011)
  create_atoms CPU = 0.017 seconds


# Set the mass of the first (and only) atom type.
mass 1 1.0

# Lennard-Jones interactions between particles, 3.5 sigma cut-off. Apply
# long range tail corrections to energy and pressure and set all coefficients
# to unity since we work in reduced units here. Note that this doesn't shift
# the potential such that it goes to zero at the cutoff. That would require
# pair_modify('shift', 'yes').
pair_style lj/cut  3.5      # non-GPU version
pair_modify tail  yes
pair_coeff 1  1  1.0  1.0   # Intearaction between 1 and 1 set with epsilon = 1 and sigma = 1

write_data data.*
System init for write_data ...
Neighbor list info ...
  update every 1 steps, delay 10 steps, check yes
  max neighbors/atom: 2000, page size: 100000
  master list distance cutoff = 3.8
  ghost atom cutoff = 3.8
  binsize = 1.9, bins = 9 9 9
  1 neighbor lists, perpetual/occasional/extra = 1 0 0
  (1) pair lj/cut, perpetual
      attributes: half, newton on
      pair build: half/bin/atomonly/newton
      stencil: half/bin/3d
      bin: standard

#############################
#   M E L T   S Y S T E M   #
#############################

velocity all create 2.4 2750902 mom yes dist gaussian # Assign velocities
                                                    # Temperature 2.4, random number seed, zero linear momentum
						                                                        # Gaussian distribution

timestep 0.002   # simulation timestep
thermo 1000       # output thermodynamic data every 1000 steps

# Define a fix  in this case with index 1 applied to all
# particles in the simulation. This fix is for simulations
# in the anisotropic NPT ensemble. Note that we use the MTK
# correction.
fix 1 all npt temp 2.4 2.4 0.1 iso 5.68 5.68 0.5 mtk yes tchain 5 pchain 5 # Use NPT ensemble
                                                                         # Set temperature and pressure and damping
                                                                         # Numbers of thermostats in chain and in barostat
run 1000         # run for 10000 steps
Per MPI rank memory allocation (min/avg/max) = 3.642 | 3.644 | 3.648 Mbytes
Step Temp E_pair E_mol TotEng Press Volume 
       0          2.4   -8.3859253            0   -4.7868253   -2.2405722         4000 
    1000    2.3434012   -4.4238704            0  -0.90964738    5.8682558    5151.8188 
Loop time of 0.220677 on 48 procs for 1000 steps with 4000 atoms

Performance: 783044.634 tau/day, 4531.508 timesteps/s
99.5% CPU use with 48 MPI tasks x no OpenMP threads

MPI task timing breakdown:
Section |  min time  |  avg time  |  max time  |%varavg| %total
---------------------------------------------------------------
Pair    | 0.091929   | 0.10082    | 0.11832    |   1.7 | 45.69
Neigh   | 0.017304   | 0.018842   | 0.021998   |   0.6 |  8.54
Comm    | 0.056508   | 0.076538   | 0.089276   |   2.3 | 34.68
Output  | 2.5645e-05 | 2.6405e-05 | 3.4476e-05 |   0.0 |  0.01
Modify  | 0.020485   | 0.022903   | 0.027174   |   1.2 | 10.38
Other   |            | 0.00155    |            |       |  0.70

Nlocal:        83.3333 ave          95 max          78 min
Histogram: 8 10 8 7 5 5 2 1 1 1
Nghost:        1391.50 ave        1422 max        1362 min
Histogram: 4 2 3 6 11 8 4 3 2 5
Neighs:        7406.25 ave        8468 max        6555 min
Histogram: 2 6 8 5 10 4 6 2 1 4

Total # of neighbors = 355500
Ave neighs/atom = 88.875000
Neighbor list builds = 87
Dangerous builds = 20

# Equilibrate just above the melting temperature to avoid step fn in T

fix 1 all npt temp 1.25 1.25 0.1 iso 5.68 5.68 0.5 mtk yes tchain 5 pchain 5
run 1000
Per MPI rank memory allocation (min/avg/max) = 3.642 | 3.644 | 3.648 Mbytes
Step Temp E_pair E_mol TotEng Press Volume 
    1000    2.3434012   -4.4238704            0  -0.90964738    5.8682558    5151.8188 
    2000    1.2429145   -5.8542389            0   -3.9903333    5.7194736    4334.1532 
Loop time of 0.221022 on 48 procs for 1000 steps with 4000 atoms

Performance: 781823.749 tau/day, 4524.443 timesteps/s
99.6% CPU use with 48 MPI tasks x no OpenMP threads

MPI task timing breakdown:
Section |  min time  |  avg time  |  max time  |%varavg| %total
---------------------------------------------------------------
Pair    | 0.090976   | 0.1011     | 0.11551    |   1.5 | 45.74
Neigh   | 0.015576   | 0.01647    | 0.01938    |   0.5 |  7.45
Comm    | 0.065528   | 0.077285   | 0.087934   |   1.9 | 34.97
Output  | 2.4558e-05 | 2.5356e-05 | 3.274e-05  |   0.0 |  0.01
Modify  | 0.018676   | 0.024176   | 0.030303   |   2.0 | 10.94
Other   |            | 0.001965   |            |       |  0.89

Nlocal:        83.3333 ave          91 max          76 min
Histogram: 2 0 6 7 12 2 13 2 2 2
Nghost:        1559.08 ave        1579 max        1541 min
Histogram: 2 2 8 11 4 8 3 5 3 2
Neighs:        8794.40 ave        9967 max        8047 min
Histogram: 4 3 11 7 11 7 2 2 0 1

Total # of neighbors = 422131
Ave neighs/atom = 105.53275
Neighbor list builds = 75
Dangerous builds = 8


# Small amount of linear quench

fix 1 all npt temp 1.25 ${temp} 0.1 iso 5.68 5.68 0.5 mtk yes tchain 5 pchain 5
fix 1 all npt temp 1.25 1.4 0.1 iso 5.68 5.68 0.5 mtk yes tchain 5 pchain 5
run 2000
Per MPI rank memory allocation (min/avg/max) = 3.643 | 3.645 | 3.648 Mbytes
Step Temp E_pair E_mol TotEng Press Volume 
    2000    1.2429145   -5.8542389            0   -3.9903333    5.7194736    4334.1532 
    3000     1.305569   -5.7335238            0   -3.7756599    5.7621595    4388.3572 
    4000    1.3967506   -5.5850738            0   -3.4904716    5.7882869    4456.7192 
Loop time of 0.4446 on 48 procs for 2000 steps with 4000 atoms

Performance: 777328.745 tau/day, 4498.430 timesteps/s
99.6% CPU use with 48 MPI tasks x no OpenMP threads

MPI task timing breakdown:
Section |  min time  |  avg time  |  max time  |%varavg| %total
---------------------------------------------------------------
Pair    | 0.1982     | 0.20874    | 0.23849    |   1.6 | 46.95
Neigh   | 0.02902    | 0.030203   | 0.033971   |   0.5 |  6.79
Comm    | 0.12121    | 0.15351    | 0.16964    |   2.4 | 34.53
Output  | 4.852e-05  | 4.972e-05  | 6.3498e-05 |   0.0 |  0.01
Modify  | 0.04127    | 0.047595   | 0.055582   |   1.8 | 10.71
Other   |            | 0.004499   |            |       |  1.01

Nlocal:        83.3333 ave          91 max          77 min
Histogram: 3 2 5 7 9 13 5 1 2 1
Nghost:        1532.25 ave        1551 max        1512 min
Histogram: 2 4 3 6 5 9 10 3 3 3
Neighs:        8543.83 ave        9601 max        7799 min
Histogram: 3 5 5 6 11 12 3 2 0 1

Total # of neighbors = 410104
Ave neighs/atom = 102.52600
Neighbor list builds = 134
Dangerous builds = 0

#############################
# F R E E Z E  S Y S T E M  #
#############################

# Define solid atoms. This closely follows ten Wolde  Ruiz-Montero and Frenkel  Faraday Discuss  1996  104  93-110
# Compute components of the per-atom q6 vector
compute q6 all orientorder/atom degrees 1 6 components 6 nnn NULL cutoff 1.3 # compute the Q6 parameter.
                                                                             # Use all neighbours within 1.3 unit cell.

# get number of connections
compute coord_number all coord/atom orientorder q6 0.5

# An atom is solid if it has 8 or more connections (of a possible 14)
variable is_solid atom c_coord_number>=8
group solid dynamic all var is_solid    # Must be dynamic to update
dynamic group solid defined

# do clustering
compute cluster solid cluster/atom 1.3 # Create a cluster where all atoms within are solid and max 1.3 units from another member

# define chunks one chunk per cluster
compute clus_chunks solid chunk/atom c_cluster nchunk every compress yes  # Says which atoms are in which chunk

# count the size of each chunk
compute size_chunks solid property/chunk clus_chunks count


# Find the maximum entry in the vector of chunk sizes
variable max_n equal max(c_size_chunks)


# Thermo style which includes this variable
thermo_style custom step temp pe vol v_max_n

thermo ${N}  # Print the thermo information every 100 steps
thermo 1000  

# Reset the npt fix at a lower temperature (below freezing)
fix 1  all npt temp  ${temp} ${temp}  0.1  iso  5.68  5.68  0.5  mtk yes tchain  5  pchain  5
fix 1  all npt temp  1.4 ${temp}  0.1  iso  5.68  5.68  0.5  mtk yes tchain  5  pchain  5
fix 1  all npt temp  1.4 1.4  0.1  iso  5.68  5.68  0.5  mtk yes tchain  5  pchain  5

dump dmp2 all dcd ${N} traj_${rand}.dcd
dump dmp2 all dcd 1000 traj_${rand}.dcd
dump dmp2 all dcd 1000 traj_462431.dcd


# fix rnuntil all halt ${N} v_max_n >= 3980 error soft message no   # Stop when solidified


run 1000000 # 5000000  # Run for this many steps
Neighbor list info ...
  update every 1 steps, delay 10 steps, check yes
  max neighbors/atom: 2000, page size: 100000
  master list distance cutoff = 3.8
  ghost atom cutoff = 3.8
  binsize = 1.9, bins = 9 9 9
  4 neighbor lists, perpetual/occasional/extra = 1 3 0
  (1) pair lj/cut, perpetual
      attributes: half, newton on
      pair build: half/bin/atomonly/newton
      stencil: half/bin/3d
      bin: standard
  (2) compute orientorder/atom, occasional
      attributes: full, newton on
      pair build: full/bin/atomonly
      stencil: full/bin/3d
      bin: standard
  (3) compute coord/atom, occasional
      attributes: full, newton on
      pair build: full/bin/atomonly
      stencil: full/bin/3d
      bin: standard
  (4) compute cluster/atom, occasional
      attributes: full, newton on
      pair build: full/bin/atomonly
      stencil: full/bin/3d
      bin: standard
Per MPI rank memory allocation (min/avg/max) = 9.349 | 9.352 | 9.358 Mbytes
Step Temp PotEng Volume v_max_n 
    4000    1.3967506   -5.5850738    4456.7192            1 
    5000    1.3568016   -5.5659427    4463.7181            6 
    6000    1.3914059    -5.598905    4459.0959            2 
    7000    1.3685818   -5.5559848    4476.1558            2 
    8000    1.4057146   -5.6464447    4480.6557            3 
    9000    1.4003859    -5.590499    4451.4006            2 
   10000    1.3914463   -5.6093688    4470.9415            1 
   11000    1.3887115   -5.5787836    4451.7035            4 
   12000    1.3818259   -5.6002788    4456.5008            3 
   13000    1.4062096   -5.5688852    4462.3909            2 
   14000    1.3718999   -5.6165911    4459.3679            3 
   15000    1.4108106   -5.6075507    4467.8441            1 
   16000    1.3923495   -5.5891778     4453.338            4 
   17000    1.3854155    -5.572846    4476.8353            3 
   18000    1.3880374    -5.634892     4461.102            2 
   19000    1.3960482    -5.629044    4463.3758            2 
   20000    1.4050472   -5.6289133    4458.7428            2 
   21000    1.3977579   -5.6452896    4455.9814            3 
   22000    1.3985883   -5.6142156    4463.2675            4 
   23000     1.397006   -5.5979852    4455.2465            4 
   24000    1.4036868    -5.634016    4468.5792            2 
   25000     1.398221   -5.5909828    4476.8247            2 
   26000    1.4253669   -5.5725451     4456.921            2 
   27000    1.3896735   -5.6105474    4458.7951            4 
   28000    1.3726067   -5.5914201    4469.8694            2 
   29000    1.4155634   -5.6097857    4482.0827            2 
   30000    1.4090626   -5.6111883    4463.9109            2 
   31000    1.4070469   -5.6061835    4459.4833            1 
   32000    1.3885885   -5.5866127    4429.8243            2 
   33000     1.367514   -5.6097897    4460.6086            2 
   34000    1.4151097   -5.5829677    4473.2773            3 
   35000    1.3790638   -5.5925884    4445.9131            3 
   36000    1.4301479   -5.5806342    4478.0662            2 
   37000    1.3778111   -5.5863107    4474.9062            3 
   38000    1.4252126   -5.6050932    4471.0289            2 
   39000    1.3936194   -5.6012478    4480.4451            2 
   40000    1.4007505   -5.5950702    4462.7487            2 
   41000    1.3962354   -5.6195368    4459.9383            3 
   42000    1.3964333   -5.6010279    4439.7827            2 
   43000     1.397068   -5.6261034    4446.6343            3 
   44000    1.3868524   -5.5703297    4462.6384            1 
   45000    1.3883641   -5.5812174    4436.2271            2 
   46000     1.407261   -5.6111251    4468.7537            3 
   47000    1.4051193   -5.6041357    4461.8138            2 
   48000    1.3910557   -5.6148087    4452.2752            4 
   49000     1.394431   -5.6192291    4420.9075            2 
   50000    1.3909664   -5.6066243    4450.2232            2 
   51000    1.4257687   -5.6087365    4467.1388            6 
   52000    1.3718632   -5.6145784    4442.9846            3 
   53000    1.4272671   -5.6227459    4457.5286            2 
   54000    1.3947196   -5.6140654    4444.7317            2 
   55000    1.4040777   -5.6108165    4454.7893            1 
   56000    1.3986715    -5.585817    4456.4737            3 
   57000    1.3828566   -5.5654633    4488.0264            1 
   58000     1.422401   -5.6416813    4461.4269            2 
   59000    1.4141287    -5.599645    4439.5677            4 
   60000    1.3896882   -5.6245743    4466.1527            4 
   61000    1.3986118   -5.5912324    4461.0308            1 
   62000    1.3875665   -5.5459523    4461.7613            5 
   63000    1.4051743   -5.5380589    4459.2796            6 
   64000    1.4089616   -5.5742383    4456.6128            3 
   65000    1.3892957   -5.5757453    4480.6265            4 
   66000    1.3831317   -5.6173562     4441.093            2 
   67000    1.3928833    -5.566366    4460.4141            1 
   68000    1.3976937   -5.5825548    4451.1921            2 
   69000     1.410568   -5.6004443    4446.5378            2 
   70000     1.399841   -5.5988401    4447.8848            2 
   71000    1.3812679   -5.5845604    4478.1374            1 
   72000    1.3817713   -5.5985121    4462.2129            1 
   73000    1.3805803   -5.5807902    4467.1768            3 
   74000    1.3644174   -5.5864369    4471.3961            4 
   75000    1.4185945   -5.6109148    4463.8032            4 
   76000    1.4082752    -5.646178    4446.0044            3 
   77000    1.4043862   -5.5931418    4447.6455            2 
   78000    1.4086604   -5.5466668    4449.7475            2 
   79000    1.3969335   -5.6310864    4476.0931            3 
   80000    1.3812594   -5.6165449    4468.3008            1 
   81000      1.37534   -5.5654377    4461.2297            3 
   82000    1.3865815   -5.5969124    4442.2944            2 
   83000    1.3986897   -5.6002217     4455.824            2 
   84000    1.4099075   -5.6125674    4467.1583            2 
   85000    1.3813647   -5.5928002    4474.3377            2 
   86000    1.3980155   -5.6206271    4437.4937            2 
   87000    1.3865114   -5.5718879    4501.0709            3 
   88000    1.3927386   -5.5878482    4457.3609            2 
   89000    1.4175258   -5.5655413    4479.8666            1 
   90000    1.4104544   -5.6259907     4448.115            2 
   91000    1.4124575   -5.5519127    4459.6399            1 
   92000    1.3821226   -5.5555994    4473.6842            2 
   93000    1.4110266   -5.6669066    4429.1947            3 
   94000    1.3654107   -5.6139826    4480.5275            2 
   95000    1.3837407   -5.5911663     4454.989            1 
   96000     1.368561   -5.5616061    4469.5675            1 
   97000    1.4270882   -5.5707715     4476.863            1 
   98000     1.384066   -5.6687208    4433.3715            3 
   99000    1.3886668   -5.6172113    4470.2277            3 
  100000    1.4029668   -5.5900809    4489.7517            1 
  101000    1.4051108   -5.6151886     4449.307            2 
  102000    1.3934881   -5.6203474    4443.7151            2 
  103000    1.4005893   -5.6188694      4427.83            3 
  104000    1.3816753   -5.5813408    4460.1677            1 
  105000    1.4291043   -5.5677052    4442.7094            2 
  106000    1.4006579   -5.5958796    4455.9337            7 
  107000    1.4171563   -5.5959201    4455.7145            2 
  108000    1.4004856   -5.6066664    4471.3567            3 
  109000    1.3873262   -5.6053364    4449.8605            2 
  110000    1.3943514   -5.5950101    4447.2671            2 
  111000    1.4267487   -5.6128731    4465.9111            8 
  112000    1.3902042    -5.564509    4482.4666            1 
  113000    1.3733553   -5.6289597    4467.4201            1 
  114000    1.4092324   -5.6218263    4456.6344            4 
  115000    1.4091243   -5.6370663    4431.6835            3 
  116000    1.3935909    -5.604892    4460.0322            3 
  117000    1.3928756   -5.6335407    4438.9918            2 
  118000    1.3828106   -5.6163227    4444.7958            2 
  119000    1.4397452   -5.6506057    4437.7061            2 
  120000    1.4315875   -5.6043253    4445.1111            3 
  121000    1.3986844   -5.6159002     4444.622            2 
  122000    1.3850762   -5.5890069    4450.2257            3 
  123000    1.4139887    -5.621591    4431.2243            4 
  124000     1.426553   -5.5851548    4470.7751            1 
  125000    1.3935331   -5.6044028    4443.5222            1 
  126000      1.42636   -5.5951248    4447.6075            2 
  127000    1.4475688   -5.5719735     4485.554            4 
  128000     1.415471   -5.6227619    4467.1143            2 
  129000    1.3994679   -5.5666846    4491.9918            1 
  130000    1.4019694   -5.6177708    4462.2563            2 
  131000    1.3495818   -5.5908095    4451.3599            2 
  132000    1.3909368   -5.6045327     4463.638            2 
  133000    1.4208592   -5.6333346    4441.0291            2 
  134000    1.3884463   -5.6111686    4439.7016            2 
  135000    1.4089643   -5.5924359    4462.0003            2 
  136000    1.3927119   -5.6200749    4449.0406            1 
  137000    1.3815688   -5.5825764    4486.3164            2 
  138000    1.3689298   -5.5894546    4434.2733            1 
  139000    1.4400329   -5.6437182    4453.5865            2 
  140000    1.3747654   -5.5927813    4443.0378            4 
  141000      1.39427    -5.593663    4440.4684            2 
  142000    1.3900701   -5.6177849    4460.4823            3 
  143000    1.3812272   -5.6445501    4435.7118            1 
  144000    1.3601666    -5.641651    4447.2862            2 
  145000    1.4386407   -5.6234058    4456.8805            3 
  146000    1.4022142   -5.6121243    4458.8309            3 
  147000    1.3994507   -5.6187292    4443.2204            2 
  148000     1.400379   -5.6033743    4454.8381            1 
  149000    1.4259946   -5.6046064    4460.6729            2 
  150000    1.4254994   -5.6216528    4469.2636            2 
  151000    1.3847891   -5.6248989    4437.4881            2 
  152000     1.397535   -5.6103131    4465.5961            2 
  153000    1.3925268   -5.6401775    4427.7272            2 
  154000    1.3770531   -5.5677903    4474.2111            2 
  155000    1.4015209    -5.560668     4477.523            1 
  156000    1.4073365   -5.6443346    4476.7443            1 
  157000     1.418907   -5.5988567    4466.8145            1 
  158000    1.3733923   -5.5994221    4467.1013            3 
  159000    1.3997314   -5.5851657    4466.6134            3 
  160000    1.3713025   -5.5898288    4465.5141            3 
  161000     1.376744   -5.5811614    4466.0541            3 
  162000    1.3864915   -5.6029604    4448.6539            2 
  163000    1.4190442   -5.5941918     4445.512            3 
  164000    1.3851888   -5.6043691    4451.6421            2 
  165000    1.3850877   -5.5883164    4480.2666            1 
  166000    1.3970623    -5.630568    4438.2439            3 
  167000    1.4101316    -5.600574    4455.7485            2 
  168000    1.3881038   -5.6697599    4428.0507            5 
  169000    1.3989687   -5.5990236    4472.6908            1 
  170000    1.3748137   -5.5906374    4457.2527            2 
  171000    1.3704236   -5.6212241    4461.0849            3 
  172000    1.4036445   -5.6149919    4433.8171            3 
  173000    1.4175055   -5.5788659    4462.6978            1 
  174000    1.3686065   -5.6353797    4433.3424            2 
  175000    1.4080722    -5.625875    4455.3668            2 
  176000    1.4497458   -5.6135353    4454.6477            2 
  177000    1.3655417   -5.6165394    4434.5333            6 
  178000    1.4013097   -5.5656958    4469.5517            3 
  179000    1.4076682   -5.5951486    4459.9462            1 
  180000    1.3955059   -5.6212775    4461.4641            3 
  181000    1.3911825   -5.6238993    4450.8526            4 
  182000     1.440585   -5.6235814    4456.8781            1 
  183000    1.4169052   -5.6100951    4454.2163            1 
  184000    1.4071982   -5.5809867     4448.823            2 
  185000     1.370157   -5.6366678    4465.3278            2 
  186000    1.3814127    -5.590502    4439.2894            2 
  187000    1.4420645   -5.6089316    4448.4665            2 
  188000    1.4244156   -5.6103158    4455.7466            4 
  189000    1.4077607   -5.5868781    4461.3182            2 
  190000    1.3933506   -5.6210469    4455.0911            2 
  191000    1.4133695   -5.5579519    4458.7998            2 
  192000    1.3954802    -5.595709    4448.3725            3 
  193000    1.3858405    -5.640164    4452.6437            4 
  194000    1.3862919   -5.5713938    4459.3329            4 
  195000    1.3705571   -5.5910949    4471.7211            2 
  196000    1.4561228   -5.6265945    4456.7486            3 
  197000    1.3976089   -5.6023796    4456.0625            1 
  198000    1.4200654   -5.5971642    4441.7279            4 
  199000    1.4448467   -5.6417643    4440.6402            1 
  200000    1.3975734   -5.6346616    4446.4887            2 
  201000    1.4192134   -5.5723074    4471.9301            1 
  202000    1.4023969    -5.615813    4462.7008            2 
  203000    1.4254057   -5.6420918    4465.4632            6 
  204000     1.372177   -5.5869989    4462.2971            1 
  205000    1.3650833   -5.5709679    4461.6243            4 
  206000    1.4236264    -5.595695    4464.2745            3 
  207000    1.4217911   -5.6131724    4447.5381            2 
  208000     1.360312   -5.5908876    4483.1001            2 
  209000    1.3773745   -5.5875877    4457.7353            3 
  210000    1.3985752   -5.6690615    4440.7168            3 
  211000    1.4036272   -5.5684342    4446.6325            2 
  212000    1.4175062   -5.5777458     4446.797            3 
  213000    1.3695586   -5.5930315    4462.2424            2 
  214000     1.394954    -5.630719    4447.5878            3 
  215000    1.4236191   -5.6015544    4457.5081            2 
  216000    1.4061296   -5.5919209    4485.6773            1 
  217000    1.4112328   -5.6099429     4454.912            1 
  218000    1.4010646    -5.557924    4455.2729            4 
  219000    1.4178815   -5.5785032    4486.7668            2 
  220000    1.3915482   -5.6271134    4465.2353            1 
  221000    1.4016187    -5.575415     4457.637            2 
  222000     1.386932   -5.6102222    4476.8107            4 
  223000    1.4134802   -5.5957192    4450.9563            3 
  224000    1.4294531   -5.6432227    4436.6628            2 
  225000    1.3929424   -5.6835421    4424.0464            2 
  226000    1.4210013   -5.5800085    4444.6323            3 
  227000    1.3818431   -5.6209059    4443.1297            6 
  228000    1.3865834    -5.633493    4446.9799            4 
  229000    1.3889809   -5.6341915    4461.1286            4 
  230000    1.3796919   -5.6390531    4451.2621            2 
  231000      1.38501   -5.6079204    4454.3149            2 
  232000    1.4232451   -5.5957534    4477.4853            4 
  233000    1.3951197   -5.6357303    4435.0496            3 
  234000    1.3868832     -5.61219     4449.934            2 
  235000    1.4009574   -5.6381928    4450.5408            4 
  236000    1.3991469   -5.6227254    4458.7465            1 
  237000    1.3839422   -5.6194478    4461.9969            3 
  238000    1.4092751   -5.5822602    4456.7494            2 
  239000     1.387364   -5.6027705     4462.973            6 
  240000    1.3994598   -5.5957208    4469.5432            1 
  241000    1.3820518   -5.6143546    4454.3773            1 
  242000    1.3645318   -5.6251106    4459.7691            3 
  243000    1.4019441   -5.5870231    4462.6981            1 
  244000    1.4100879   -5.6332303    4447.3775            2 
  245000    1.4170862   -5.6078957    4459.3731            2 
  246000    1.4255209   -5.5952389    4445.0362            2 
  247000    1.4142732   -5.6074181    4421.6019            3 
  248000    1.3878821     -5.56047      4480.54            3 
  249000    1.4104262   -5.6218651    4458.5227            4 
  250000    1.4011985   -5.6165526    4468.4285            1 
  251000    1.3957052   -5.5996349    4474.4703            3 
  252000    1.3907454   -5.5932004    4462.5801            2 
  253000    1.4266285   -5.6239845    4485.7569            1 
  254000    1.3835718   -5.5778635    4450.2628            2 
  255000    1.4083742   -5.5956587    4458.4506            2 
  256000    1.4225411   -5.5509169    4477.1878            2 
  257000    1.4105806   -5.6060054    4466.8686            2 
  258000    1.3833542   -5.6258531    4448.8866            3 
  259000    1.4207114   -5.5577802    4468.4894            2 
  260000    1.4102311   -5.6384565    4451.1319            5 
  261000    1.4072392   -5.5686001    4472.1373            3 
  262000    1.4022837   -5.6019096    4462.7341            4 
  263000     1.422597   -5.6202697    4452.0457            4 
  264000    1.4009667    -5.616875    4461.9432            4 
  265000    1.3646134    -5.633869    4457.3912            3 
  266000    1.4298239   -5.6057309    4449.5093            2 
  267000    1.4044146   -5.5847556    4478.2552            7 
  268000    1.4126038   -5.5749132    4462.7562            2 
  269000    1.4210013   -5.5775649    4494.2095            2 
  270000     1.389465   -5.6005015    4463.3731            3 
  271000    1.4112854   -5.6125843    4438.8096            2 
  272000    1.4125992    -5.611563    4450.5543            2 
  273000    1.4016718   -5.5813691    4452.2411            1 
  274000    1.3995544   -5.6057302    4439.7287            2 
  275000    1.3790014   -5.6104459      4468.24            2 
  276000     1.398694   -5.5656588    4475.3809            2 
  277000    1.3503985    -5.631573    4484.2904            2 
  278000    1.3875261   -5.5613941    4448.0246            3 
  279000    1.3915842   -5.5982052    4443.2547            1 
  280000    1.4107602   -5.6110196    4454.8307            6 
  281000    1.3692639   -5.5963271    4451.7118            2 
  282000    1.3906982   -5.6141536    4453.2822            4 
  283000     1.414755   -5.5899188    4449.2823            1 
  284000    1.3951763   -5.6055981    4453.5968            2 
  285000    1.3860471   -5.5842577     4471.969            2 
  286000     1.412416    -5.614787    4456.2149            3 
  287000    1.4175259   -5.6294179    4430.8317            2 
  288000    1.4020918    -5.605756    4465.4011            3 
  289000    1.3669678   -5.5836222    4436.9636            4 
  290000    1.4022794   -5.5798088    4455.0748            1 
  291000     1.396692   -5.5833428    4455.5183            1 
  292000    1.3742438   -5.5820431    4450.6822            2 
  293000    1.3938764   -5.5906289    4484.3479            3 
  294000    1.4333526   -5.6044041    4476.0828            2 
  295000    1.3848803   -5.5943271    4479.9643            5 
  296000    1.4085407    -5.629825    4461.5845            2 
  297000    1.3939128   -5.6172197     4447.557            4 
  298000    1.4027056   -5.5799215    4465.8883            3 
  299000    1.3947414    -5.555331     4468.769            2 
  300000    1.4035131   -5.6242313    4458.7068            2 
  301000    1.3794933   -5.5864548    4449.1059            2 
  302000    1.4186901   -5.6177416    4451.9017            2 
  303000    1.3816751   -5.6310565     4480.276            2 
  304000    1.3923736   -5.5774408    4482.4642            2 
  305000    1.4066207   -5.6389672    4461.5183            2 
  306000    1.4041852   -5.6088503    4445.7748            3 
  307000    1.3893304   -5.5987214    4436.1403            2 
  308000    1.4103058   -5.5808461    4445.0717            3 
  309000    1.3716805   -5.5947085    4479.4394            3 
  310000    1.4053089    -5.599902     4445.182            2 
  311000    1.4259348   -5.5508552    4455.4223            2 
  312000    1.4220771   -5.5679567    4473.1768            4 
  313000    1.3869982    -5.600417    4446.6786            2 
  314000    1.4367315   -5.6339056    4458.3464            1 
  315000    1.3864428    -5.657243    4460.9668            2 
  316000    1.3782545   -5.5981344    4468.4563            3 
  317000    1.4112105   -5.5700879    4470.1669            2 
  318000    1.3710715   -5.6483943    4450.4217            2 
  319000    1.3989543   -5.6363419    4427.8179            3 
  320000    1.3724228   -5.5649267    4474.4109            2 
  321000    1.3994923    -5.602925    4474.3712            2 
  322000    1.4070573   -5.6474489    4444.9712            2 
  323000    1.4153464   -5.5691756    4458.2133            2 
  324000    1.4166217   -5.6052929    4460.3084            2 
  325000    1.4129412   -5.6155223    4458.3141            2 
  326000    1.4225257   -5.6081191    4459.7062            3 
  327000    1.4012413   -5.6145309    4480.4038            1 
  328000    1.4309787   -5.5702808    4465.0322            2 
  329000    1.3988379   -5.6306465     4440.466            2 
  330000    1.3886013   -5.5961159    4477.7451            2 
  331000    1.3934745   -5.6077025    4463.6706            2 
  332000    1.3938954   -5.6060338    4455.1487            4 
  333000    1.4238369   -5.5570318    4468.4915            2 
  334000    1.3913925   -5.6312419    4472.0471            2 
  335000     1.409751   -5.6008915    4446.3889            3 
  336000    1.4216205   -5.5886413    4462.6314            2 
  337000    1.4033158   -5.6067094    4462.4623            1 
  338000    1.3918272    -5.609753    4456.8277            2 
  339000    1.3925257   -5.6323979     4456.091            5 
  340000    1.4053847   -5.6059145    4446.0054            2 
  341000    1.3996152   -5.5957435    4448.0768            7 
  342000    1.4103601   -5.6061241    4442.2551            1 
  343000    1.4061385    -5.558045    4484.3322            2 
  344000    1.3964751   -5.5814612    4445.8104            4 
  345000    1.3809986   -5.5801062       4457.9            2 
  346000    1.3999737   -5.6747403    4455.6743            2 
  347000    1.3994788   -5.6098306    4476.3719            2 
  348000    1.4096717   -5.5894247     4457.789            1 
  349000    1.4035777   -5.6109213    4442.4645            3 
  350000    1.4082491    -5.608592    4451.7745            1 
  351000    1.3748373    -5.601826    4414.4337            2 
  352000    1.4178518   -5.5844107    4446.0415            3 
  353000    1.4098516   -5.6103506    4463.5342            2 
  354000    1.3493029   -5.5818119    4469.2624            2 
  355000    1.4076284   -5.6179169    4451.7004            5 
  356000     1.417071   -5.6288037    4459.3538            2 
  357000    1.4015381   -5.6264339    4447.8391            4 
  358000    1.3723662   -5.6017145    4470.2106            3 
  359000     1.404434   -5.6203651    4475.1811            2 
  360000    1.3808639   -5.6147953    4447.8923            2 
  361000    1.4391825   -5.6213489    4464.9765            2 
  362000    1.3948596   -5.6202142    4446.6751            1 
  363000    1.4081801   -5.6388213    4448.5329            3 
  364000    1.4212687   -5.6245833    4455.6364            2 
  365000    1.3449336    -5.587466     4454.961            3 
  366000    1.4083428   -5.6406835    4452.8378            9 
  367000    1.3971365   -5.6250782    4448.8357            2 
  368000     1.380805   -5.6135183    4464.8729            2 
  369000    1.3885768    -5.567448    4482.1843            2 
  370000    1.4245138   -5.6087336    4448.8334            2 
  371000    1.4044499   -5.6153028    4442.8478            2 
  372000    1.4042469   -5.5964295    4466.3505            1 
  373000     1.403615   -5.5713081    4454.4031            1 
  374000    1.3911118   -5.6206732    4442.6083            2 
  375000    1.4137731   -5.6038539    4465.3957            6 
  376000    1.3653791    -5.601851     4485.843            5 
  377000    1.4228776   -5.5495915    4467.5902            3 
  378000    1.3932496   -5.5617053    4474.1682            1 
  379000    1.3730871   -5.6170459    4451.6443            3 
  380000    1.4335967   -5.6263912    4463.6269            3 
  381000    1.4037709   -5.6244511    4435.3912            1 
  382000    1.4096394   -5.6359898    4463.5096            2 
  383000    1.3960688   -5.5835199     4493.752            2 
  384000     1.391885   -5.6322325    4458.1197            3 
  385000    1.3817956   -5.5548486    4479.7609            3 
  386000      1.39638   -5.6368507     4444.334            3 
  387000    1.4121685   -5.5728738     4468.987            2 
  388000    1.3996607   -5.6235381    4466.6096            3 
  389000    1.3885837   -5.6220165    4446.4955            2 
  390000    1.3719857   -5.5953318    4476.0958            6 
  391000    1.3844239   -5.5955677    4463.8539            6 
  392000    1.4022575   -5.6259002    4440.8457            3 
  393000    1.4042069   -5.6253948    4446.4179            1 
  394000    1.4078906    -5.595036    4466.2352            2 
  395000    1.4111284   -5.6185409    4470.5517            3 
  396000    1.3963759   -5.6243094    4443.6218            2 
  397000    1.4463063   -5.5948105    4441.2884            2 
  398000    1.4072066    -5.616505    4456.8102            5 
  399000    1.4214161   -5.5764283     4463.639            3 
  400000      1.40763   -5.5999998    4464.5762            2 
  401000    1.4166285   -5.5955057    4462.9717            3 
  402000    1.4244239   -5.6069047    4461.2472            3 
  403000    1.3832173   -5.5802011    4466.6319            4 
  404000    1.3840942   -5.5720114    4457.7152            2 
  405000    1.4104593    -5.619377    4466.1317            5 
  406000    1.4002538   -5.5932921    4458.9006            3 
  407000    1.3889142    -5.627078    4452.0511            2 
  408000    1.3827387   -5.5951118    4453.4223            3 
  409000    1.4017741   -5.6471128     4463.568            2 
  410000    1.4106114   -5.6020675    4497.9123            6 
  411000    1.4237763   -5.6265642    4432.0519            5 
  412000    1.4196089   -5.5710332    4469.0778            5 
  413000    1.3720988   -5.5699024    4451.0819            2 
  414000    1.3728849   -5.6622676    4456.4916            3 
  415000    1.4019513   -5.6254951    4448.2977            1 
  416000    1.3850139   -5.5868916    4465.6858            2 
  417000    1.4036049   -5.6373675     4440.742            3 
  418000    1.4017437   -5.5982611    4474.5814            2 
  419000    1.4007811   -5.6052925    4451.5715            2 
  420000    1.3722947   -5.5713138    4467.7634            2 
  421000    1.3742058   -5.5521396    4461.4623            2 
  422000    1.3655454   -5.5990515    4434.6263            3 
  423000    1.4087663   -5.6058135    4448.6466            2 
  424000    1.4111246   -5.6225711    4460.4077            4 
  425000    1.4041755   -5.6422847    4441.5049            1 
  426000    1.3791615   -5.6205143    4445.9418            3 
  427000     1.392265    -5.650777    4463.1718            3 
  428000     1.430144   -5.5962249    4454.3809            3 
  429000    1.3975017   -5.5985825    4457.5736            2 
  430000    1.4063567    -5.558652    4458.8744            3 
  431000    1.3880535   -5.6162904    4455.5465            5 
  432000    1.3982887   -5.6047343    4447.2306            2 
  433000    1.4158236   -5.6037692    4461.4443            3 
  434000    1.4132712     -5.55458    4462.9927            3 
  435000    1.3898725    -5.620561    4458.7928            2 
  436000    1.3654431   -5.5958249    4459.0737            2 
  437000    1.4076345   -5.5562998    4462.1135            3 
  438000    1.3871539   -5.5873337    4486.7398            2 
  439000    1.4310056   -5.5987185    4437.7645            2 
  440000    1.4261022   -5.6018246    4458.8311            2 
  441000    1.3785048   -5.5981645    4452.1996            2 
  442000    1.4016153   -5.5887475    4459.4885            2 
  443000    1.4117962   -5.5916707     4459.502            2 
  444000    1.3963725   -5.5992625    4438.4604            7 
  445000    1.3939703   -5.6301516    4468.1572            2 
  446000    1.3776217   -5.5867853    4452.0212            3 
  447000    1.3771756   -5.6158192    4440.9929            2 
  448000    1.4243552   -5.6094676    4462.0303            2 
  449000    1.4269242   -5.5952993    4474.9797            4 
  450000    1.4102205   -5.6171572    4474.9306            3 
  451000    1.3889145   -5.5985281     4455.807            2 
  452000    1.3787462   -5.5716764    4446.2417            2 
  453000     1.393169   -5.6219268    4473.2676            2 
  454000    1.3923958   -5.6452431    4470.8208            1 
  455000    1.4036856   -5.5741377     4463.735            2 
  456000    1.4278314   -5.6029384    4444.6348            2 
  457000    1.4074975   -5.5792219    4451.1969            2 
  458000    1.4194547   -5.6303567    4456.9784            1 
  459000    1.3890425   -5.6096135    4473.2147            3 
  460000      1.39149     -5.59484     4463.986            3 
  461000    1.4022707    -5.641326     4435.987            4 
  462000    1.3942219   -5.5796549    4450.6241            3 
  463000    1.3867237   -5.6004286    4468.9448            2 
  464000    1.3761759   -5.6276449    4457.3167            1 
  465000    1.4160967   -5.5996811    4470.6015            2 
  466000      1.39587   -5.6553857    4463.5567            1 
  467000    1.4014816    -5.594521    4457.8079            3 
  468000    1.4076956   -5.5833599    4453.0221            2 
  469000     1.421332   -5.6392354    4438.0692            2 
  470000    1.3801379   -5.5937601    4481.3439            2 
  471000    1.4066842   -5.6142795    4434.1373            1 
  472000    1.4293149   -5.6231683    4442.9761            4 
  473000    1.4116555   -5.5933092    4430.1434            2 
  474000    1.3736611   -5.5836894    4456.5011            3 
  475000    1.3764585    -5.668538    4444.5222            7 
  476000     1.389645    -5.625914    4437.9528            1 
  477000    1.3961438   -5.6231498    4453.1534            5 
  478000    1.4090845   -5.6155195    4471.9777            4 
  479000    1.3828552   -5.6176725    4460.4995            3 
  480000    1.3839061   -5.6127538    4460.7188            1 
  481000    1.4088562   -5.5990826    4423.2728            2 
  482000     1.416079   -5.6433009    4445.5427            3 
  483000    1.3980143   -5.6367955    4426.9216            5 
  484000    1.4083135   -5.6358859    4446.6706            2 
  485000     1.437356   -5.5947258    4455.0806            1 
  486000    1.4073378   -5.6310149    4423.1441            4 
  487000      1.40568   -5.6073639    4489.3309            3 
  488000    1.4221789   -5.5879971     4432.732            5 
  489000    1.4131575   -5.6621376    4448.8613            3 
  490000    1.3854714   -5.6057751    4438.1399            4 
  491000    1.4335243   -5.5705956    4467.1121            1 
  492000    1.3945281   -5.6142063    4454.5806            2 
  493000    1.4052837   -5.5797105    4447.1429            2 
  494000    1.4076969   -5.5860817    4435.5744            4 
  495000    1.3767367   -5.6086044    4452.4179            1 
  496000    1.3840443   -5.6408824    4452.8217            4 
  497000    1.4046357   -5.5938317    4471.3358            2 
  498000     1.376514   -5.5832905    4462.1273            6 
  499000    1.4317655   -5.6227652    4457.1744            2 
  500000    1.3849937   -5.5582332    4471.0027            2 
  501000     1.411289   -5.5970485    4486.4163            2 
  502000    1.4085132   -5.6084145    4455.8065            3 
  503000    1.3904845   -5.5808726    4455.1274            2 
  504000    1.4014951   -5.6034971    4454.6801            2 
  505000    1.4282108   -5.6346179    4425.6561            3 
  506000    1.3812232   -5.6091964     4458.918            4 
  507000    1.4003315   -5.5763569    4462.2044            2 
  508000    1.4063013   -5.6223811     4430.689            1 
  509000    1.3594603   -5.6026744    4432.0056            2 
  510000    1.4389585   -5.5628666    4459.8195            5 
  511000    1.3967258   -5.5969044    4462.5497            1 
  512000    1.3995463   -5.6211749    4472.3256            2 
  513000     1.400714   -5.6179067     4468.665            2 
  514000    1.4008022   -5.5739169    4463.3756            2 
  515000    1.4184445   -5.6035357    4448.8493            5 
  516000    1.4004593   -5.6006765    4430.8679            2 
  517000    1.4065476   -5.5957199    4454.9504            1 
  518000    1.3862108   -5.6212629    4441.5232            4 
  519000    1.3925597     -5.63579    4458.1118            5 
  520000      1.38212   -5.6009676    4453.3566            2 
  521000    1.3828287   -5.6351489    4444.2932            4 
  522000    1.3961761   -5.6001269    4471.5282            3 
  523000    1.4103153   -5.6187009    4456.6804            1 
  524000     1.387325   -5.6474601    4451.3462            2 
  525000    1.3910742   -5.5864977    4468.8176            3 
  526000    1.4074114   -5.5775194    4453.4537            3 
  527000    1.4234505   -5.6050563    4487.5045            1 
  528000    1.3880926   -5.5835503    4460.0202            3 
  529000    1.3974587   -5.6470663    4454.3626            4 
  530000    1.4036566   -5.5751274    4475.2896            2 
  531000    1.3676736   -5.6339904    4447.5344            2 
  532000    1.4189344   -5.6308414    4442.1156            4 
  533000    1.4142786   -5.6018704    4443.1624            2 
  534000    1.3981207   -5.5873243    4469.7704            2 
  535000    1.3856462   -5.6239944    4451.7498            3 
  536000      1.37802   -5.6140511    4452.3184            7 
  537000    1.4120593   -5.6234843    4450.4443            1 
  538000    1.3997272   -5.6296813    4460.1014            3 
  539000    1.3773384   -5.5900478    4457.4804            3 
  540000    1.3891293   -5.6093175     4460.282            2 
  541000    1.4047818    -5.595109    4471.4579            3 
  542000    1.3994209   -5.5875379    4432.3843            2 
  543000    1.3783363   -5.6433068    4457.9109            2 
  544000    1.3638171   -5.6041153    4448.3822            3 
  545000    1.3821679   -5.6175358    4465.3948            3 
  546000    1.4066357   -5.6127812    4456.9497            2 
  547000    1.3968879   -5.6336065    4446.3266            3 
  548000    1.3860455   -5.5724179    4463.2488            1 
  549000    1.4307162   -5.5585625    4465.0823            2 
  550000    1.3845061    -5.582767    4457.2331            3 
  551000    1.3979752   -5.6322373    4460.0021            2 
  552000    1.3943895    -5.620302    4463.0702            2 
  553000    1.3929095   -5.5999772    4452.6147            3 
  554000    1.3922649    -5.576869    4473.0168            2 
  555000    1.3762739   -5.6233788    4454.0887            2 
  556000      1.40706   -5.5909292    4454.5451            7 
  557000    1.4090154   -5.6316596    4479.0688            1 
  558000    1.3899538   -5.6397765    4460.4953            2 
  559000    1.3847489   -5.6351791     4455.047            3 
  560000    1.3945354   -5.5775715    4463.3348            3 
  561000    1.4026898   -5.6137826    4451.6349            2 
  562000    1.3928453   -5.6450495    4443.8742            3 
  563000    1.3927002   -5.5664335    4465.1227            2 
  564000    1.4179731   -5.6348821    4453.9808            2 
  565000    1.3934469   -5.5786467    4450.9085            1 
  566000    1.3983422   -5.5805608    4441.6858            1 
  567000    1.4074311   -5.5787037    4470.4833            3 
  568000    1.4122576   -5.5936179    4443.0865            2 
  569000    1.3676264   -5.5609551    4479.7464            2 
  570000    1.3950494   -5.6111912    4450.7679            2 
  571000    1.4123502   -5.6018669    4448.6833            2 
  572000    1.3838941   -5.5903326    4470.1439            3 
  573000    1.3827736   -5.5949794    4461.1667            2 
  574000     1.388891   -5.6336945    4440.0735            4 
  575000    1.4282107   -5.6406647    4432.2859            2 
  576000    1.4180995   -5.6096948    4476.4267            7 
  577000    1.3926581   -5.6364924    4452.6026            1 
  578000    1.4007363   -5.5906241    4465.9721            4 
  579000    1.4101407   -5.5693582    4481.0124            2 
  580000    1.4425943   -5.5960814    4477.3861            2 
  581000    1.4181253   -5.5779402    4468.6959            2 
  582000    1.4058504   -5.6435686    4461.2113            2 
  583000    1.3970766   -5.6000392    4474.1363            2 
  584000    1.3734106   -5.6519896    4464.1458            2 
  585000    1.4117729   -5.6040195    4445.6077            2 
  586000    1.3981175   -5.5928039    4457.3005            2 
  587000    1.3949037   -5.6115713    4471.9112            1 
  588000    1.4224187   -5.6294165    4461.8316            1 
  589000    1.3811538   -5.6292728    4450.6373            3 
  590000    1.3861999   -5.6310822    4434.4862            2 
  591000    1.3858521    -5.603632    4471.5397            1 
  592000    1.4330776   -5.5608265    4477.8588            2 
  593000    1.4042579   -5.6308132    4450.8978            2 
  594000    1.4092885    -5.597222    4456.7844            2 
  595000    1.4209511   -5.5782156    4469.1607            2 
  596000    1.3905068   -5.5882467    4459.1611            1 
  597000    1.4024398   -5.6277896    4458.5096            3 
  598000    1.3773312   -5.6212407    4454.8311            1 
  599000    1.4030504   -5.6117595    4464.8478            3 
  600000    1.4078659   -5.5836803    4454.4217            4 
  601000    1.3889896   -5.5753643    4478.4546            3 
  602000    1.3818203    -5.626946    4461.9408            2 
  603000    1.4302032   -5.5931656    4461.6857            2 
  604000    1.4159155   -5.5978462     4455.007            3 
  605000     1.402827   -5.6510232    4454.1732            1 
  606000    1.4228591    -5.602592     4462.184            3 
  607000     1.390814   -5.5995771    4457.7497            2 
  608000    1.4263187   -5.6390401    4462.8294            1 
  609000    1.4250002   -5.5812409    4457.2677            4 
  610000    1.4014956   -5.6107204    4444.1771            1 
  611000    1.3855698   -5.6139228    4458.6374            3 
  612000    1.4030757    -5.628963    4475.4124            2 
  613000    1.3661333   -5.6004323    4452.0794            2 
  614000    1.4232592    -5.623114    4445.5877            2 
  615000    1.3961416    -5.616914    4447.1547            1 
  616000    1.4190591   -5.5989394    4458.7374            2 
  617000    1.3687919   -5.6476663    4445.8587            2 
  618000    1.4122005    -5.589231    4463.9991            2 
  619000    1.3927666   -5.6277959    4448.6837            3 
  620000    1.3991714   -5.6125746    4457.9692            2 
  621000    1.4061411   -5.6279663    4449.3053            3 
  622000    1.4127618   -5.5850945    4473.4786            4 
  623000    1.3669173   -5.5819436    4496.0038            1 
  624000    1.4084603   -5.6179981    4438.2804            3 
  625000    1.4006762   -5.5965979    4443.8055            2 
  626000    1.3935563   -5.5916521    4443.9192            3 
  627000    1.4005719   -5.5796799    4442.3425            2 
  628000     1.410932   -5.5743579    4465.8628            2 
  629000    1.3964646    -5.677019    4438.9645            2 
  630000    1.4043495   -5.6348823     4458.855            2 
  631000    1.4132099   -5.6138897    4447.8556            3 
  632000    1.4010551    -5.611458    4449.2447            3 
  633000     1.435391   -5.5716881    4464.7349            3 
  634000     1.383237   -5.6114622    4447.2999            2 
  635000    1.4448065   -5.5983036    4424.5977            4 
  636000    1.4144199   -5.5945297     4455.468            1 
  637000    1.3946513   -5.6129268    4466.6517            3 
  638000    1.4261695   -5.6293821    4431.9238            2 
  639000    1.3968833   -5.5889839    4475.3192            2 
  640000    1.4126827   -5.6736637    4454.1923            3 
  641000    1.3708239   -5.6276378     4446.607            2 
  642000    1.3776201   -5.6210006    4482.9507            2 
  643000    1.4051332   -5.6337317    4463.8263            2 
  644000       1.4359   -5.5920217    4468.3452            3 
  645000     1.413299   -5.5981259     4459.393            1 
  646000    1.3935129   -5.6055926    4470.7141            2 
  647000    1.3775584   -5.6233867    4454.1645            1 
  648000    1.3878775   -5.5965266    4473.3917            1 
  649000    1.3828158    -5.616865    4434.7351            2 
  650000    1.3833459   -5.6093668    4471.5072            3 
  651000    1.4001646   -5.5788566     4468.542            2 
  652000    1.4046466   -5.6075177     4461.271            1 
  653000    1.4172386   -5.5755617     4480.726            2 
  654000    1.3981309   -5.6500074    4456.7584            1 
  655000    1.3751138   -5.6033963    4439.0074            2 
  656000    1.3495447   -5.6476305     4453.052            4 
  657000    1.4098143   -5.5758389    4462.1785            1 
  658000    1.3743714   -5.6266482    4443.8015            3 
  659000    1.4296455   -5.6069998    4453.1278            6 
  660000    1.3548116   -5.5900982    4467.2861            1 
  661000    1.3972108   -5.5831291    4470.5648            3 
  662000    1.3805846   -5.6034531    4452.6332            3 
  663000    1.4235658   -5.6431447    4459.7102            1 
  664000    1.4246067   -5.6133502    4425.4059            5 
  665000    1.4065629   -5.6399193    4438.0833            3 
  666000    1.4271777   -5.6252064    4479.1364            3 
  667000    1.3772907   -5.6092496    4439.9422            2 
  668000    1.3960046   -5.5969286    4433.5308            3 
  669000    1.4156452   -5.6014433    4457.2111            1 
  670000    1.4041915   -5.5918059    4456.5888            3 
  671000    1.4215851   -5.5941236    4460.9757            1 
  672000    1.4017096   -5.6368434    4461.4125            2 
  673000    1.4121868   -5.5881924    4462.5887            2 
  674000    1.4056334   -5.6135342    4479.1672            2 
  675000    1.3923709   -5.6101364    4442.4349            2 
  676000     1.398384   -5.5992575    4478.3396            3 
  677000     1.424187   -5.5823039    4481.6504            4 
  678000    1.4141978   -5.5645718    4473.0398            3 
  679000    1.4066499   -5.6101892    4442.7881            4 
  680000    1.3980948   -5.5898997    4474.4633            3 
  681000    1.3798733    -5.613357    4448.7982            2 
  682000    1.4124256    -5.636663    4457.8555            2 
  683000    1.3832893   -5.5925512    4445.6818            2 
  684000    1.3993427   -5.6493139    4462.9057            2 
  685000    1.4125952   -5.5891593    4447.9682            1 
  686000     1.409156    -5.585324    4437.7338            2 
  687000    1.4282661   -5.6224672    4442.3046            2 
  688000    1.3874113   -5.5645939    4492.8041            4 
  689000    1.4080067   -5.6150893    4453.5933            2 
  690000    1.4088022    -5.592816    4462.6352            2 
  691000    1.3986256   -5.6279351    4438.8358            2 
  692000    1.4230056   -5.5687276    4499.8199            2 
  693000    1.4079679   -5.5717009     4469.711            2 
  694000    1.4044441   -5.6008331    4455.4287            2 
  695000    1.3869902     -5.62974    4436.2137            1 
  696000    1.3931656   -5.5845232    4438.8425            2 
  697000     1.394016   -5.5867984    4468.6968            2 
  698000    1.3709442   -5.6449386     4447.673            2 
  699000    1.3961152   -5.5869701    4455.1873            5 
  700000    1.4041613    -5.604503    4476.0165            2 
  701000    1.3963487   -5.6374287    4467.9608            2 
  702000    1.4025299   -5.5806018    4459.0767            3 
  703000    1.4268618   -5.6004083    4470.6347            2 
  704000    1.3974298   -5.5764604    4442.9558            1 
  705000    1.3713745   -5.5948404    4459.3307            2 
  706000    1.4037743   -5.6259988     4455.658            3 
  707000    1.3731748   -5.5812012    4466.5229            2 
  708000    1.3626061   -5.5786936    4452.6128            3 
  709000    1.3974216   -5.6537292    4433.5952            3 
  710000    1.4030509   -5.6260381     4441.097            1 
  711000    1.3937984   -5.6118057    4461.2098            5 
  712000    1.3996067   -5.6162654    4464.3248            1 
  713000    1.4345543   -5.6082629    4471.8204            2 
  714000    1.4203212   -5.5914888    4470.8323            2 
  715000    1.4159878   -5.5981604    4451.4722            2 
  716000    1.3909814   -5.5475058    4471.4771            3 
  717000    1.4025587   -5.5949447    4471.7792            1 
  718000    1.4068832   -5.5540474    4471.3585            1 
  719000    1.4381073   -5.5504494    4465.7409            2 
  720000    1.4036619   -5.5686462    4450.3814            2 
  721000    1.4059342   -5.5755002    4470.5545            5 
  722000    1.4104287   -5.6083714    4460.1372            2 
  723000    1.3852933   -5.6185237    4449.7766            1 
  724000    1.4431697   -5.5888737    4444.2371            5 
  725000    1.4248613   -5.6218925    4466.1139            2 
  726000    1.3711969   -5.6266453    4473.5578            1 
  727000    1.4137196   -5.5579361    4474.8705            1 
  728000    1.4216645    -5.613468    4451.7859            2 
  729000    1.3836511   -5.5910417    4449.0088            4 
  730000    1.3930701   -5.6196565    4444.8101            3 
  731000    1.3925949   -5.6031389    4454.5163            2 
  732000    1.3914509   -5.5738757    4473.5152            3 
  733000    1.3970453   -5.5608791    4460.7969            2 
  734000    1.3974029    -5.593508    4463.1325            1 
  735000    1.3946185   -5.5974266    4447.9696            6 
  736000    1.4019189   -5.6070642    4450.2543            1 
  737000    1.4037274   -5.5981308     4443.095            2 
  738000    1.3787177   -5.6376673    4435.2805            3 
  739000    1.4444992   -5.5830953    4444.6863            2 
  740000    1.3893229   -5.6203279    4459.0439            3 
  741000    1.3817472   -5.5705107    4462.7212            2 
  742000    1.4069308   -5.6038462    4470.0164            3 
  743000    1.3755742   -5.5968696    4462.9465            3 
  744000     1.432984   -5.5593088    4457.0255            3 
  745000    1.3931507   -5.5907563    4450.8749            2 
  746000    1.4029939   -5.6203386    4454.1232            4 
  747000    1.4005742   -5.5895607    4442.7474            2 
  748000    1.3892192   -5.5519823    4475.8976            2 
  749000    1.3848001   -5.5991792    4455.5907            2 
  750000     1.393271   -5.5741708    4473.5035            2 
  751000    1.3533221   -5.5907192     4455.441            1 
  752000    1.4270438   -5.6194375    4448.3763            1 
  753000    1.4043198   -5.5946539    4486.5197            4 
  754000    1.4076817   -5.5985413    4472.4224            3 
  755000    1.3964173   -5.5839211    4466.8358            3 
  756000     1.406035   -5.6198633    4441.7022            2 
  757000    1.3713922   -5.6287299    4448.0028            2 
  758000    1.4360129   -5.6048833    4461.9826            2 
  759000    1.4093828   -5.6132432    4439.4923            5 
  760000    1.4103752   -5.5734104    4457.7731            1 
  761000    1.3961888   -5.6226182    4461.4228            2 
  762000    1.3785395   -5.6111444     4461.604            3 
  763000    1.3878459   -5.5805385    4462.7453            1 
  764000    1.4271109   -5.6426104    4443.7975            5 
  765000    1.3858849   -5.6227198    4451.2387            8 
  766000    1.4130537   -5.6059249    4461.0601            3 
  767000    1.4026759   -5.5906294    4486.2589            1 
  768000    1.3784765   -5.5440014    4459.0813            1 
  769000    1.4095369   -5.5731735    4463.4103            2 
  770000    1.4054802   -5.6214454     4474.784            1 
  771000    1.4106687   -5.5608413    4473.9543            1 
  772000    1.4332077   -5.6136895    4442.8516            2 
  773000    1.4242989   -5.5988121    4472.5658            2 
  774000    1.4196431   -5.6209272    4459.6054            3 
  775000    1.4013907   -5.5906558    4461.7421            2 
  776000    1.3877515   -5.6150569    4446.2444            2 
  777000    1.4135902   -5.5937102    4452.2835            4 
  778000    1.4268268   -5.6285623    4451.9807            3 
  779000    1.4183483   -5.5930789    4439.8482            2 
  780000    1.3941822   -5.5552858    4471.4716            2 
  781000    1.4303859   -5.5860925    4449.5912            6 
  782000    1.4090303   -5.6321929    4459.0631            2 
  783000     1.404208   -5.6385322    4444.3838            2 
  784000    1.4198511   -5.5977307    4448.8804            2 
  785000    1.4023002   -5.5481198    4473.5014            2 
  786000    1.4030463   -5.6224049      4457.62            2 
  787000      1.39506   -5.6273305    4449.1634            2 
  788000    1.4183158   -5.6585705     4457.142            4 
  789000    1.3850886   -5.5825688    4437.8147            1 
  790000    1.3761039   -5.6170493     4452.804            3 
  791000    1.3920472   -5.5978271    4451.0198            1 
  792000    1.3977406   -5.5921093    4484.0717            2 
  793000    1.3931443   -5.5869177    4469.9995            3 
  794000    1.4124881   -5.6494475    4457.7341            7 
  795000    1.4085842   -5.6231613    4453.0241            4 
  796000    1.4168045   -5.5836036    4458.7508            2 
  797000    1.3710656   -5.6009315    4425.6933            2 
  798000    1.4057266   -5.5958564    4444.4633            4 
  799000    1.4040948   -5.6056468    4463.2373            1 
  800000    1.3700692   -5.5800344    4456.0022            1 
  801000    1.3888433   -5.6037958    4454.1387            5 
  802000    1.4054856   -5.5990478    4458.3889            3 
  803000    1.3983321   -5.6059947    4459.5667            2 
  804000     1.357873    -5.605641    4439.9612            3 
  805000    1.4010675   -5.6160956    4459.0083            6 
  806000    1.4111054   -5.5996819     4424.274            3 
  807000    1.4147734   -5.6338115    4462.1733            4 
  808000    1.3754321   -5.5839891    4455.8911            2 
  809000    1.3958095   -5.6246397    4465.4733            9 
  810000    1.3949212   -5.6113817    4458.0628            1 
  811000    1.3928668   -5.6190619    4451.9481            4 
  812000    1.3691576   -5.6092908     4449.948            2 
  813000     1.380291   -5.6148454    4451.2981            2 
  814000    1.3792231   -5.5787068    4476.2046            2 
  815000    1.4294854   -5.5856028    4459.2516            4 
  816000    1.4099434   -5.5770376    4468.2665            2 
  817000    1.3921774   -5.6108932    4480.9888            2 
  818000    1.3875163   -5.6326158    4455.0001            3 
  819000    1.3684025   -5.6262346     4459.506            1 
  820000    1.4048567   -5.5688267    4466.1234            2 
  821000    1.4013369   -5.6259637    4450.8283            3 
  822000     1.410771   -5.6146871    4468.5631            1 
  823000    1.4113087   -5.6086229    4455.9626            4 
  824000    1.3934699   -5.5680247    4475.1288            2 
  825000    1.3867688   -5.6540299    4440.1247            2 
  826000    1.3954743   -5.5978817    4478.7778            1 
  827000    1.3662086   -5.6196384    4465.3853            2 
  828000    1.4051016   -5.6453418    4449.3778            2 
  829000    1.3915509   -5.5801102    4455.6784            2 
  830000    1.4029662   -5.6371075    4448.3024            2 
  831000    1.3940276   -5.6134687    4467.9509            2 
  832000    1.4041962    -5.595248    4469.8786            2 
  833000    1.3724822     -5.60626    4458.4081            3 
  834000    1.3999237   -5.6700807    4433.9748            4 
  835000     1.357877   -5.6042155       4454.4            2 
  836000     1.412315   -5.6009575    4458.1723            2 
  837000    1.3804325   -5.5889352     4470.768            2 
  838000    1.4154763   -5.6236514    4469.9587            3 
  839000    1.3977034   -5.6322357    4464.3401            2 
  840000    1.3764174   -5.6157013    4466.7717            1 
  841000    1.4112967   -5.5929438     4456.533            3 
  842000    1.4220252   -5.5726969     4463.989            1 
  843000    1.4253663   -5.5953704    4472.0559            1 
  844000    1.3853709   -5.5831542    4449.0547            3 
  845000    1.3971238    -5.594878    4470.6697            4 
  846000    1.4145393   -5.6014856    4466.0741            2 
  847000     1.373683   -5.6144619    4469.1298            3 
  848000    1.3826923   -5.5941519    4449.2054            2 
  849000    1.4299339   -5.6164414    4456.7805            1 
  850000    1.3973708   -5.6127059    4457.1295            2 
  851000    1.4135752   -5.5917046    4461.3494            1 
  852000    1.3965191   -5.6197467    4459.8923            2 
  853000    1.4017261   -5.6005243    4456.0162            2 
  854000     1.385739   -5.6194348    4469.0115            2 
  855000    1.4362403   -5.6338767    4454.0882            1 
  856000    1.3932823   -5.5639523    4482.9139            2 
  857000    1.3966905   -5.6258991    4475.4602            1 
  858000    1.3809921   -5.5956514    4471.5833            2 
  859000    1.3911573   -5.5668242    4469.0168            1 
  860000    1.3956465   -5.6101047    4432.6751            3 
  861000    1.3787413   -5.6023258    4494.1658            2 
  862000    1.3997034   -5.6137053    4454.5838            1 
  863000    1.3894706   -5.5814732     4462.145            1 
  864000    1.3732201    -5.603794    4444.8239            3 
  865000    1.3865103   -5.6433164    4462.0573            3 
  866000    1.4096916   -5.6235365    4462.0115            3 
  867000     1.370036   -5.6058551    4469.0338            1 
  868000    1.3733781   -5.5679665    4474.1468            3 
  869000    1.4071417   -5.5908326    4465.8726            1 
  870000    1.4284749   -5.5985562    4467.0148            1 
  871000    1.4047559   -5.6261233    4438.7426            4 
  872000    1.4118429    -5.601435    4436.0266            3 
  873000    1.3929046   -5.5936528    4469.4302            2 
  874000    1.3755445   -5.6226034    4449.1732            4 
  875000    1.3770535    -5.617051    4464.7555            1 
  876000    1.3778057   -5.5597822     4461.113            2 
  877000    1.3853697   -5.6018647    4466.1589            2 
  878000    1.4175339   -5.6064632    4445.5222            3 
  879000    1.3947636   -5.5844784    4447.6132            3 
  880000    1.4092622   -5.5858962    4433.0784            2 
  881000     1.392902   -5.5983488    4464.2701            3 
  882000    1.3872901   -5.6096685    4464.1773            4 
  883000    1.3977005   -5.6158374    4480.9087            1 
  884000    1.4042694   -5.5948542    4485.6341            5 
  885000    1.4432837     -5.58054    4462.7808            6 
  886000     1.398867   -5.5771439    4485.1199            1 
  887000    1.4131437   -5.6367481     4471.697            2 
  888000    1.4097412   -5.6284691    4452.4913            1 
  889000    1.4480402   -5.6326046    4443.6765            3 
  890000    1.3949599   -5.6147596    4472.9705            2 
  891000    1.4168226   -5.6389851    4457.2553            4 
  892000    1.4226612     -5.60869    4486.1428            2 
  893000    1.3949859   -5.5858688    4477.2872            1 
  894000    1.3555552   -5.5780418    4458.9915            1 
  895000    1.4076232   -5.5857568    4447.6471            2 
  896000     1.385382   -5.5878402     4464.419            2 
  897000    1.3866722   -5.6203572    4480.1104            2 
  898000     1.424002   -5.5769473    4479.4178            3 
  899000    1.3913584   -5.5940762    4461.0865            3 
  900000    1.4280906   -5.5808373    4464.1578            4 
  901000    1.3988888   -5.6013438      4473.56            2 
  902000    1.3843145   -5.5891593    4448.8481            3 
  903000    1.4268629   -5.6024935    4451.2629            5 
  904000    1.4096815   -5.6073083    4437.0286            1 
  905000     1.387408   -5.5924198    4493.2097            4 
  906000    1.3646499   -5.6115915    4453.7058            1 
  907000    1.3990529   -5.6106064    4451.5505            2 
  908000    1.4003174   -5.6048489    4452.1133            3 
  909000    1.3656839   -5.6009896    4462.1707            2 
  910000    1.4191884   -5.6152148    4476.8438            3 
  911000    1.3883286    -5.583355    4447.0636            2 
  912000     1.430817   -5.6020028     4435.421            2 
  913000    1.4217265   -5.5622259    4464.9716            2 
  914000    1.4173655   -5.6259071    4476.0079            2 
  915000    1.3639074    -5.598174     4463.649            2 
  916000    1.4063048   -5.6231831    4454.2447            4 
  917000    1.4107813   -5.6055745    4446.8164            2 
  918000    1.4359466   -5.5829492    4481.4967            3 
  919000    1.4167158   -5.6181654    4441.5225            5 
  920000    1.4118214   -5.6511577    4449.9968            2 
  921000    1.3731679   -5.6308495    4457.8851            2 
  922000    1.4055051    -5.624984    4465.4064            3 
  923000    1.4288054   -5.5890342    4506.8916            3 
  924000    1.4000255   -5.6485535    4445.8851            1 
  925000    1.3911999   -5.6392066    4455.7058            2 
  926000    1.3781774   -5.6254571    4444.5445            5 
  927000     1.384431   -5.5939113    4441.5923            4 
  928000    1.4057764   -5.5910946    4476.3554            2 
  929000    1.4282179   -5.5852844    4460.0269            3 
  930000    1.3703032   -5.5886195    4466.0473            2 
  931000    1.3887712   -5.6380677    4452.2091            2 
  932000    1.4269814   -5.5879228    4462.7921            2 
  933000    1.4055132   -5.5812758    4456.9298            3 
  934000    1.3869277   -5.6588699    4461.2053            2 
  935000    1.4231277    -5.609977    4457.5221            5 
  936000    1.3585551   -5.6088541    4448.3142            3 
  937000    1.4075812   -5.5906719    4475.2781            5 
  938000    1.4088438   -5.6071261    4460.1381            2 
  939000    1.3866407   -5.6129517    4438.9371            3 
  940000    1.4146047   -5.6115109    4458.4465            2 
  941000    1.4041015   -5.5781973    4458.1424            2 
  942000     1.392401   -5.5939279    4462.6323            3 
  943000    1.4072641   -5.6033112    4465.0568            2 
  944000    1.4341314   -5.6079861    4453.2521            2 
  945000    1.4032658   -5.6184382    4459.8518            1 
  946000    1.3717015   -5.5957642    4438.8419            5 
  947000    1.3934572   -5.5831768    4451.2868            2 
  948000    1.4010303   -5.5842239    4455.7637            3 
  949000    1.4120669   -5.5931543    4460.5617            2 
  950000    1.3932116   -5.6102795    4445.8005            4 
  951000    1.4146728   -5.5803651    4488.1553            2 
  952000    1.3937595   -5.6342006    4457.1548            4 
  953000    1.3889058   -5.6201255    4459.8653            1 
  954000    1.3752414   -5.5962023    4455.3869            3 
  955000    1.3979332   -5.6298931    4471.4817            2 
  956000     1.409827   -5.5709258    4474.7617            2 
  957000    1.4103683    -5.574858    4475.5544            5 
  958000     1.412698   -5.6431636     4457.847            2 
  959000    1.3866805   -5.6207226    4465.5194            3 
  960000    1.4087847   -5.6435737    4461.1446            1 
  961000    1.3895059   -5.6262708    4444.6804            2 
  962000    1.4293679   -5.6239806    4462.7111            2 
  963000    1.4139967   -5.6018927    4461.6427            3 
  964000    1.3975386   -5.5969438    4447.9594            2 
  965000     1.383797   -5.6020372    4484.4181            2 
  966000    1.3997798   -5.6015878     4461.036            2 
  967000    1.3828042   -5.5409272    4471.6082            2 
  968000    1.3838488   -5.6206707     4451.419            1 
  969000    1.4202484   -5.5732449    4459.7889            3 
  970000    1.4163138   -5.6262427    4448.1522            4 
  971000     1.372568   -5.6046113    4487.5697            2 
  972000    1.4023902   -5.5834245    4454.1887            3 
  973000    1.4165128   -5.6134996    4448.8558            2 
  974000    1.3761055   -5.5716227    4451.4728            3 
  975000    1.4076846   -5.6422888    4455.6947            3 
  976000    1.4271625   -5.6240441    4467.1928            2 
  977000    1.4083278    -5.603148    4457.3235            2 
  978000    1.4257695   -5.5939656    4462.5245            4 
  979000    1.4007465   -5.6200406    4474.9957            3 
  980000    1.3710273   -5.6329531    4464.9306            1 
  981000    1.3926413   -5.5790892    4439.8291            2 
  982000    1.4269738   -5.5656234    4443.1504            2 
  983000    1.4049315   -5.6185774    4442.6052            5 
  984000    1.3677384   -5.5838793    4472.6366            2 
  985000    1.3756802    -5.592617    4487.4461            2 
  986000    1.4003652   -5.6078943    4475.5224            4 
  987000    1.3628293   -5.5861067    4475.6041            2 
  988000    1.4020054   -5.6160979    4462.4213            2 
  989000    1.4267605   -5.6099443    4471.2652            4 
  990000    1.3874535   -5.6396029    4448.1661            3 
  991000    1.3992879   -5.5945106    4451.3093            4 
  992000    1.4143625   -5.5986068    4471.1983            4 
  993000    1.3959219   -5.6079215      4450.39            2 
  994000    1.3892122   -5.5942719    4458.7266            2 
  995000     1.408317   -5.5541688    4478.0201            2 
  996000    1.3910526   -5.5852421    4448.2284            2 
  997000    1.3824409    -5.616402    4472.5569            2 
  998000    1.3738844    -5.607733    4467.5692            2 
  999000    1.4098586   -5.6109501    4483.2069            5 
 1000000    1.3901253   -5.6493798    4458.2612            2 
 1001000    1.3966217   -5.6245838    4441.7757            3 
 1002000    1.4024294   -5.5701723    4489.7089            1 
 1003000    1.4005394   -5.5820557    4480.7449            3 
 1004000    1.3831305   -5.6128859    4462.4649            3 
Loop time of 2041.48 on 48 procs for 1000000 steps with 4000 atoms

Performance: 84644.612 tau/day, 489.842 timesteps/s
99.4% CPU use with 48 MPI tasks x no OpenMP threads

MPI task timing breakdown:
Section |  min time  |  avg time  |  max time  |%varavg| %total
---------------------------------------------------------------
Pair    | 114.55     | 123.33     | 131.48     |  38.7 |  6.04
Neigh   | 17.18      | 17.448     | 17.633     |   2.7 |  0.85
Comm    | 112.91     | 119.01     | 126.72     |  29.9 |  5.83
Output  | 1.1471     | 1.1478     | 1.1634     |   0.2 |  0.06
Modify  | 1755       | 1764.5     | 1770.6     |   8.8 | 86.43
Other   |            | 16.08      |            |       |  0.79

Nlocal:        83.3333 ave          90 max          78 min
Histogram: 5 4 6 8 3 11 4 0 2 5
Nghost:        1529.92 ave        1552 max        1508 min
Histogram: 3 4 5 2 5 12 8 5 3 1
Neighs:        8545.81 ave        9384 max        7698 min
Histogram: 1 4 8 5 4 11 3 7 2 3
FullNghs:      17091.7 ave       18628 max       15757 min
Histogram: 4 5 6 5 5 9 5 3 1 5

Total # of neighbors = 820401
Ave neighs/atom = 205.10025
Neighbor list builds = 70340
Dangerous builds = 17

#clear
#
#next RN
#
#jump SELF
Total wall time: 0:34:02
