
units lj                  # Use reduced LJ style units
atom_style atomic         # Uncharged point particles
atom_modify map hash      # Needed for indexing of clusters etc
                          # Used to be able to find where atoms are in relation to each other.

lattice fcc 1.0 spacing 1 1 1
Lattice spacing in x,y,z = 1.5874011 1.5874011 1.5874011
region box block 0 10 0 10 0 10 units lattice
create_box 2 box
Created orthogonal box = (0.0000000 0.0000000 0.0000000) to (15.874011 15.874011 15.874011)
  3 by 4 by 4 MPI processor grid
create_atoms 1 box
Created 4000 atoms
  using lattice units in orthogonal box = (0.0000000 0.0000000 0.0000000) to (15.874011 15.874011 15.874011)
  create_atoms CPU = 0.002 seconds
set type 1 type/fraction 2 0.05 78393
Setting atom values ...
  207 settings made for type/fraction
mass 1 1.0
mass 2 1.0
pair_style lj/cut  3.5
pair_modify tail  yes
pair_coeff 1  1  1.0  1.0   # Intearaction between 1 and 1 set with epsilon = 1 and sigma = 1
pair_coeff 1  2  1.5  0.8
pair_coeff 2  2  0.5  0.88

write_data data.0
System init for write_data ...
Neighbor list info ...
  update every 1 steps, delay 10 steps, check yes
  max neighbors/atom: 2000, page size: 100000
  master list distance cutoff = 3.8
  ghost atom cutoff = 3.8
  binsize = 1.9, bins = 9 9 9
  1 neighbor lists, perpetual/occasional/extra = 1 0 0
  (1) pair lj/cut, perpetual
      attributes: half, newton on
      pair build: half/bin/atomonly/newton
      stencil: half/bin/3d
      bin: standard
WARNING: Not all mixed pair coeffs generated from mixing. Use write_data with 'pair ij' option to store all pair coeffs. (../write_data.cpp:312)


#############################
#   M E L T   S Y S T E M   #
#############################

velocity all create 2.4 9622624 mom yes dist gaussian # Assign velocities
                                                    # Temperature 2.4, random number seed, zero linear momentum
                                                                                # Gaussian distribution

timestep 0.002   # simulation timestep
thermo 1000       # output thermodynamic data every 1000 steps bf 100

# Define a fix  in this case with index 1 applied to all
# particles in the simulation. This fix is for simulations
# in the anisotropic NPT ensemble. Note that we use the MTK
# correction.
fix 1 all npt temp 2.4 2.4 0.1 iso 5.68 5.68 0.5 mtk yes tchain 5 pchain 5 # Use NPT ensemble
                                                                         # Set temperature and pressure and damping
                                                                         # Numbers of thermostats in chain and in barostat
run 10000          # run for 10000 steps
Per MPI rank memory allocation (min/avg/max) = 3.642 | 3.644 | 3.648 Mbytes
Step Temp E_pair E_mol TotEng Press Volume 
       0          2.4   -8.0440018            0   -4.4449018    -2.648783         4000 
    1000    2.3865965   -4.4901522            0  -0.91115239    5.6134861    5038.5198 
    2000    2.3994519   -4.5280004            0  -0.92972235    5.5670191    5034.9148 
    3000    2.4110606   -4.4865826            0  -0.87089584    5.6977977    5038.0096 
    4000    2.3738954    -4.422561            0  -0.86260809    5.8294464    5051.6144 
    5000    2.4516567    -4.438694            0  -0.76212824    5.9206117    5038.5659 
    6000    2.4096923   -4.4831034            0  -0.86946858    5.9083585    5011.8522 
    7000    2.4048955   -4.4690681            0  -0.86262665    5.7187035    5043.4888 
    8000    2.4253004   -4.5262783            0  -0.88923719    5.5926461    5032.3326 
    9000    2.4035927     -4.52759            0  -0.92310228    5.4580087    5046.5282 
   10000    2.3983108   -4.5328675            0  -0.93630058    5.5019989    5035.2136 
Loop time of 2.12847 on 48 procs for 10000 steps with 4000 atoms

Performance: 811851.893 tau/day, 4698.217 timesteps/s
99.6% CPU use with 48 MPI tasks x no OpenMP threads

MPI task timing breakdown:
Section |  min time  |  avg time  |  max time  |%varavg| %total
---------------------------------------------------------------
Pair    | 0.87324    | 0.9453     | 1.0968     |   4.6 | 44.41
Neigh   | 0.16833    | 0.17644    | 0.20371    |   1.8 |  8.29
Comm    | 0.59792    | 0.75882    | 0.84327    |   5.7 | 35.65
Output  | 0.00023801 | 0.00024456 | 0.00030413 |   0.0 |  0.01
Modify  | 0.19966    | 0.23344    | 0.27483    |   4.2 | 10.97
Other   |            | 0.01422    |            |       |  0.67

Nlocal:        83.3333 ave          93 max          73 min
Histogram: 1 1 3 8 9 7 9 5 2 3
Nghost:        1419.96 ave        1452 max        1388 min
Histogram: 2 2 4 7 7 11 8 4 2 1
Neighs:        7565.08 ave        8358 max        6662 min
Histogram: 1 6 2 9 5 4 4 7 7 3

Total # of neighbors = 363124
Ave neighs/atom = 90.781000
Neighbor list builds = 902
Dangerous builds = 174

# Equilibrate just above the melting temperature to avoid step fn in T

fix 1 all npt temp 1.25 1.25 0.1 iso 5.68 5.68 0.5 mtk yes tchain 5 pchain 5
run 2000
Per MPI rank memory allocation (min/avg/max) = 3.643 | 3.645 | 3.649 Mbytes
Step Temp E_pair E_mol TotEng Press Volume 
   10000    2.3983108   -4.5328675            0  -0.93630058    5.5019989    5035.2136 
   11000    1.2528562   -6.0080593            0   -4.1292447    5.6867738    4170.2927 
   12000    1.2477678   -6.0410544            0   -4.1698706    5.4805209    4169.3535 
Loop time of 0.463493 on 48 procs for 2000 steps with 4000 atoms

Performance: 745642.105 tau/day, 4315.058 timesteps/s
99.6% CPU use with 48 MPI tasks x no OpenMP threads

MPI task timing breakdown:
Section |  min time  |  avg time  |  max time  |%varavg| %total
---------------------------------------------------------------
Pair    | 0.19822    | 0.21618    | 0.24541    |   2.0 | 46.64
Neigh   | 0.030603   | 0.032611   | 0.03676    |   0.6 |  7.04
Comm    | 0.12507    | 0.16151    | 0.18181    |   2.7 | 34.85
Output  | 5.0285e-05 | 5.1411e-05 | 6.4063e-05 |   0.0 |  0.01
Modify  | 0.040156   | 0.048702   | 0.055862   |   1.9 | 10.51
Other   |            | 0.004441   |            |       |  0.96

Nlocal:        83.3333 ave          90 max          76 min
Histogram: 3 2 4 3 8 10 3 9 3 3
Nghost:        1597.56 ave        1623 max        1571 min
Histogram: 1 2 4 5 7 15 7 3 3 1
Neighs:        9138.33 ave       10227 max        8186 min
Histogram: 2 4 5 5 13 5 5 8 0 1

Total # of neighbors = 438640
Ave neighs/atom = 109.66000
Neighbor list builds = 143
Dangerous builds = 10

#############################
# L I N E A R  Q U E N C H  #
#############################

# Define solid atoms. This closely follows ten Wolde  Ruiz-Montero and Frenkel  Faraday Discuss  1996  104  93-110
# Compute components of the per-atom q6 vector
compute q6 all orientorder/atom degrees 1 6 components 6 nnn NULL cutoff 1.3 # compute the Q6 parameter.
                                                                             # Use all neighbours within 1.3 unit cell.

# get number of connections
compute coord_number all coord/atom orientorder q6 0.5

# An atom is solid if it has 8 or more connections (of a possible 14)
variable is_solid atom c_coord_number>=8
group solid dynamic all var is_solid    # Must be dynamic to update
dynamic group solid defined

# do clustering
compute cluster solid cluster/atom 1.3 # Create a cluster where all atoms within are solid and max 1.3 units from another member

# define chunks one chunk per cluster
compute clus_chunks solid chunk/atom c_cluster nchunk every compress yes  # Says which atoms are in which chunk

# count the size of each chunk
compute size_chunks solid property/chunk clus_chunks count


# Find the maximum entry in the vector of chunk sizes
variable max_n equal max(c_size_chunks)


# Thermo style which includes this variable
# thermo_style custom step temp pe vol v_max_n

thermo ${N}  # Print the thermo information every 100 steps
thermo 1000  

# Reset the npt fix at a lower temperature (below freezing)
fix 1  all npt temp  ${temp} ${temp}  0.1  iso  5.68  5.68  0.5  mtk yes tchain  5  pchain  5
fix 1  all npt temp  0.45 ${temp}  0.1  iso  5.68  5.68  0.5  mtk yes tchain  5  pchain  5
fix 1  all npt temp  0.45 0.45  0.1  iso  5.68  5.68  0.5  mtk yes tchain  5  pchain  5

dump dmp2 all dcd ${N} traj.dcd
dump dmp2 all dcd 1000 traj.dcd


compute msd all msd com yes
variable twopoint equal c_msd[4]/6/(step*dt+1.0e-6)
fix 9 all vector 10 c_msd[4]
variable fit equal slope(f_9)/6/(10*dt)
thermo_style custom step temp pe c_msd[4] v_twopoint v_fit v_max_n

fix 1 all npt temp 1.25 ${temp} 0.1 iso 5.68 5.68 0.5 mtk yes tchain 5 pchain 5
fix 1 all npt temp 1.25 0.45 0.1 iso 5.68 5.68 0.5 mtk yes tchain 5 pchain 5
run 5000000 # 5000000  # Run for this many steps
Neighbor list info ...
  update every 1 steps, delay 10 steps, check yes
  max neighbors/atom: 2000, page size: 100000
  master list distance cutoff = 3.8
  ghost atom cutoff = 3.8
  binsize = 1.9, bins = 9 9 9
  4 neighbor lists, perpetual/occasional/extra = 1 3 0
  (1) pair lj/cut, perpetual
      attributes: half, newton on
      pair build: half/bin/atomonly/newton
      stencil: half/bin/3d
      bin: standard
  (2) compute orientorder/atom, occasional
      attributes: full, newton on
      pair build: full/bin/atomonly
      stencil: full/bin/3d
      bin: standard
  (3) compute coord/atom, occasional
      attributes: full, newton on
      pair build: full/bin/atomonly
      stencil: full/bin/3d
      bin: standard
  (4) compute cluster/atom, occasional
      attributes: full, newton on
      pair build: full/bin/atomonly
      stencil: full/bin/3d
      bin: standard
Per MPI rank memory allocation (min/avg/max) = 9.738 | 9.743 | 9.748 Mbytes
Step Temp PotEng c_msd[4] v_twopoint v_fit v_max_n 
   12000    1.2477678   -6.0410544            0            0 8.3333333e+20            2 
   13000    1.2522172   -6.0467298   0.58121622 0.0037257449  0.047623466            2 
   14000    1.2561909   -6.0305888    1.1234607 0.0066872658  0.046926961            2 
   15000    1.2417411   -6.0183813    1.6718687 0.0092881593  0.045796308            5 
   16000    1.2368053   -6.0023869     2.217758  0.011550823  0.045771551            3 
   17000    1.2385049   -6.0239559    2.7643817   0.01355089  0.045747904            3 
   18000     1.288503   -5.9897509     3.334906  0.015439379  0.045529561            6 
   19000    1.2679814   -6.0227471    3.9624168  0.017379021  0.046217192            2 
   20000    1.2504279   -6.0437447    4.4746797  0.018644498  0.046685546            3 
   21000    1.2420515   -6.0168204    4.9949748  0.019821328  0.046455345            4 
   22000    1.2650284   -5.9926172    5.5645104  0.021077691   0.04633455            4 
   23000    1.2500951    -6.032232    6.1002781  0.022102456  0.046269467            2 
   24000    1.2484305   -6.0061757    6.6781476  0.023188012  0.046156476            7 
   25000    1.2493545    -6.019578    7.1719905  0.023906635  0.046098285            2 
   26000    1.2624758   -6.0173787    7.6774574  0.024607235  0.045904409            2 
   27000    1.2458159   -6.0399935    8.2126113  0.025347565  0.045731422            2 
   28000    1.2576926   -6.0381185    8.7843984  0.026144042  0.045634807            3 
   29000    1.2514894   -6.0301262    9.3723863  0.026932144  0.045656389            2 
   30000    1.2608962   -6.0140239    9.8696021  0.027415561  0.045651689            4 
   31000    1.2722571   -6.0357706      10.4062  0.027973655  0.045590096            3 
   32000    1.2485943   -6.0096852    10.813946  0.028161317  0.045445997            3 
   33000    1.2605039   -6.0494894    11.392351  0.028768562  0.045298448            3 
   34000    1.2667572    -6.032886    11.816801  0.028962747  0.045130358            9 
   35000    1.2646378   -6.0114145     12.43353  0.029603642  0.045015255            4 
   36000    1.2210286    -6.015245    13.030649   0.03016354  0.044945041            1 
   37000    1.2431359   -6.0431178    13.671717  0.030792155   0.04501755            3 
   38000    1.2616618   -5.9904749    14.285474  0.031327793  0.045101526            4 
   39000    1.2568391   -6.0555122      14.7616  0.031541879  0.045140964            5 
   40000    1.2597755   -6.0261705    15.259592  0.031790816  0.045173798            4 
   41000    1.2314291   -6.0264879    15.761427   0.03203542  0.045172165            2 
   42000    1.2352507   -6.0350535    16.390131    0.0325201  0.045193224            2 
   43000    1.2268283   -6.0539294    16.851872  0.032658666  0.045189118            5 
   44000    1.2620361   -6.0310503    17.421312  0.032994908  0.045170136            1 
   45000    1.2637447   -6.0754669    17.834423  0.033026709  0.045147038            2 
   46000    1.2485556   -6.0268897     18.34334  0.033230688  0.045082526            2 
   47000    1.2343496   -6.0476931    18.928406  0.033561003  0.045034258            3 
   48000    1.2541504   -6.0359301    19.461712  0.033787695  0.045000861            5 
   49000    1.2153404   -6.0289701    19.960434  0.033946315  0.044972149            2 
   50000    1.2526372   -6.0638642    20.501828  0.034169713  0.044943988            3 
   51000    1.2473658   -5.9870116    21.214164  0.034663666  0.044915397            2 
   52000    1.2563913   -5.9787949    21.752775  0.034860216  0.044915921            2 
   53000    1.2471019   -6.0327052    22.459966  0.035314412  0.044949995            4 
   54000    1.2533592    -6.031909    23.053015   0.03557564  0.045011454            2 
   55000     1.236774   -6.0297988    23.787141  0.036041123  0.045083148            6 
   56000    1.2509827   -6.0589175     24.45779  0.036395521  0.045196174            5 
   57000    1.2345853   -6.0645465    25.003612  0.036554988   0.04532111            4 
   58000    1.2329032   -6.0027524    25.499984  0.036637907  0.045425388            3 
   59000    1.2357125   -6.0205522     26.09149  0.036852386  0.045499634            2 
   60000    1.2296871   -6.0248362    26.420724   0.03669545   0.04556363            2 
   61000     1.252019   -6.0855156    26.861493  0.036696028  0.045590752            2 
   62000    1.2485829   -6.0161513    27.498053  0.036959748  0.045613102            4 
   63000    1.2578939   -5.9996985    27.883212  0.036882555  0.045611175            2 
   64000    1.2539483    -6.043334    28.265496  0.036804031  0.045585326            1 
   65000     1.221792   -6.0372343    28.793783  0.036915106  0.045550719            3 
   66000    1.2508544   -6.0381233    29.462157  0.037199693  0.045527403            2 
   67000    1.2474203   -6.0555157    29.956186  0.037258938  0.045509066            2 
   68000     1.247453   -6.0175072    30.619767  0.037524224  0.045508595            4 
   69000    1.2401971   -6.0511886    31.028492  0.037474024  0.045505874            2 
   70000    1.2565081   -6.0603158    31.609237  0.037630044  0.045495175            3 
   71000    1.2228078   -6.0494742     32.07659  0.037648579  0.045467516            4 
   72000    1.2390392   -6.0291798    32.554231  0.037678508  0.045437125            3 
   73000    1.2561417   -6.0311551    33.077077   0.03775922  0.045416529            4 
   74000    1.2465335   -6.0377006    33.507632  0.037733819   0.04539538            3 
   75000    1.2253762   -6.0619107    34.171923  0.037968803  0.045372398            2 
   76000    1.2367706   -6.0207826    35.085067  0.038470468  0.045367314            2 
   77000    1.2600881   -6.0351668    35.424026   0.03833769  0.045380497            2 
   78000    1.2491264   -6.0673786      36.0695   0.03853579  0.045387495            3 
   79000    1.2468291   -6.0447281    36.748372  0.038764105  0.045406959            3 
   80000    1.2447129   -6.0556852    37.349627  0.038905861  0.045422677            3 
   81000    1.2431601    -6.060565    37.921578  0.039013969  0.045444945            2 
   82000    1.2233239   -5.9932406    38.547434  0.039174221  0.045472738            4 
   83000    1.2239221   -6.0484682    39.126175  0.039283308     0.045504            2 
   84000    1.2329823   -6.0294576    39.787839  0.039472062  0.045530709            3 
   85000    1.2397888   -6.0558096    39.943492  0.039160286   0.04556726            3 
   86000    1.2306988   -6.0318317    40.645955  0.039385615   0.04557949            3 
   87000    1.2445058    -6.057064    41.252463  0.039513853  0.045590488            1 
   88000    1.2121023   -6.0601364     41.74099  0.039527452  0.045606384            7 
   89000    1.2574053   -6.0359648    42.336442  0.039640863  0.045623707            4 
   90000    1.2324298   -6.0392336    42.919879  0.039740628  0.045643081            4 
   91000    1.2432762   -6.0516421    43.630677  0.039954832  0.045661926            7 
   92000    1.2470366   -6.0107989    44.142005    0.0399837  0.045687266            3 
   93000    1.2250683   -6.0630111    44.516797  0.039889602  0.045703803            2 
   94000    1.2770828   -6.0536687     44.97351  0.039870133  0.045714171            2 
   95000    1.2249414   -6.0528034    45.561454  0.039966187   0.04572446            3 
   96000    1.2483836   -6.0711974    46.120538  0.040035189  0.045740602            6 
   97000    1.2277468   -6.0110748    46.866967  0.040263717  0.045755286            2 
   98000    1.2646867   -6.0173426    47.345865  0.040260089  0.045769809            4 
   99000     1.223011   -6.0529393    47.873977   0.04029796  0.045784218            3 
  100000     1.238536   -6.0461557    48.512895  0.040427412   0.04580377            2 
  101000    1.2094565   -6.0413744    49.373475   0.04073719  0.045831106            3 
  102000      1.26851   -6.0618619    50.205418  0.041017498   0.04586901            3 
  103000    1.2355303   -6.0445186    50.553576  0.040900951  0.045900442            2 
  104000    1.2161468   -6.0688597    51.062781   0.04091569  0.045928208            2 
  105000     1.210216     -6.05114    51.890654  0.041183058  0.045966158            4 
  106000    1.2257218   -6.0582195    52.493854  0.041268753  0.046005049            2 
  107000     1.230612   -6.0344145    52.845643  0.041157043  0.046042451            4 
  108000    1.2293619   -6.0649687    53.332261  0.041151436  0.046069691            5 
  109000    1.2159772    -6.048413    53.915485  0.041219789  0.046099257            3 
  110000    1.2058325   -6.0216524    54.646378  0.041398771  0.046127459            3 
  111000    1.2219884   -6.0320922    55.284644  0.041504988  0.046151889            2 
  112000    1.2309556   -6.0316983    55.734759  0.041469314  0.046187335            4 
  113000    1.2399315   -6.0624444    56.555602  0.041707671   0.04622583            2 
  114000    1.2272564   -6.0742935    57.040789  0.041696483  0.046262103            4 
  115000    1.2471643    -6.038214     57.68113   0.04179792  0.046297074            3 
  116000    1.2454129   -6.0375905    58.349565  0.041917791  0.046336098            2 
  117000    1.2270454   -6.0345955    58.803858  0.041883089   0.04636638            2 
  118000    1.2303759   -6.0545419    59.213947  0.041817759  0.046390276            2 
  119000    1.2396803   -6.0227979    59.716549  0.041818312  0.046403902            3 
  120000    1.2395217   -6.0419104    59.914593  0.041607356  0.046413176            3 
  121000     1.217616   -6.0466182     60.24451  0.041490709  0.046414073            2 
  122000    1.2276344    -6.044319    61.078403  0.041720221  0.046418266            2 
  123000     1.230306   -6.0783276    61.580541  0.041721233  0.046424245            4 
  124000    1.1997792   -6.0924255    61.741088  0.041492667  0.046418375            2 
  125000    1.2338491   -6.0362118    62.484536  0.041656357  0.046411651            5 
  126000    1.1875819   -6.0195994    63.392652  0.041926357  0.046406386            6 
  127000    1.2511327   -6.0416822    63.905855  0.041932976  0.046412772            3 
  128000    1.2131293   -6.0377833    64.674192  0.042105593  0.046423946            2 
  129000    1.2341202   -6.0660804    64.776241  0.041845117  0.046427244            2 
  130000    1.2500232   -6.0753545    65.021298  0.041680319  0.046427596            3 
  131000    1.2473486    -6.021479    65.798673  0.041856662  0.046422476            5 
  132000    1.2362584   -6.0489572    66.299151  0.041855525  0.046421133            2 
  133000    1.2331066   -6.0513001    67.264102  0.042145427  0.046423474            3 
  134000    1.2239409   -6.0412297    67.909306  0.042232155  0.046424627            4 
  135000    1.2431157   -6.0855504    67.780674  0.041839922  0.046423046            5 
  136000    1.2045675   -6.1024296    68.461441  0.041949412  0.046417976            2 
  137000    1.2470304   -6.0788052    69.411196  0.042220922  0.046416005            5 
  138000    1.2231062   -6.1055522    69.725479  0.042104758  0.046419309            4 
  139000    1.2003107    -6.074199    70.062171    0.0420037  0.046414211            3 
  140000     1.224437   -6.0509377    70.799311  0.042142447  0.046406292            3 
  141000    1.2403951   -6.0790134    71.304036  0.042141865  0.046397813            2 
  142000    1.2314133    -6.042171    71.973403  0.042237912  0.046390392            3 
  143000    1.2521816   -6.0793087    72.095623  0.042013766  0.046383922            4 
  144000    1.2196608   -6.0591249    72.649321  0.042042431   0.04637362            2 
  145000    1.2322879   -6.0561651    73.309628   0.04213197  0.046360985            2 
  146000    1.2092072   -6.0252109    74.199003  0.042351029  0.046353901            3 
  147000    1.2212226    -6.034565    74.712749  0.042354166   0.04634759            2 
  148000    1.2461137   -6.0697666    75.319858   0.04240983   0.04634205            2 
  149000     1.214231   -6.0494838    76.030411  0.042522601  0.046342119            2 
  150000    1.2022506   -6.0790361    76.624285  0.042569047  0.046349754            3 
  151000    1.2353092   -6.0507765    77.297524  0.042658678  0.046355784            2 
  152000    1.2054196   -6.0839161    77.923174  0.042721038  0.046365709            4 
  153000    1.2164445   -6.0660582    78.493691  0.042752555  0.046372893            2 
  154000    1.2326168   -6.0642115    78.781512  0.042630688  0.046377483            4 
  155000    1.2313356   -6.0519236    79.515696  0.042750374  0.046381131            3 
  156000    1.2322708   -6.0581762    79.841229  0.042650229  0.046382444            4 
  157000    1.2456035   -6.0299497    80.480941  0.042718121  0.046383992            4 
  158000    1.2723274   -6.0296467    81.003922  0.042723587  0.046381749            2 
  159000      1.22455   -6.0376853    81.355062  0.042638921  0.046379709            1 
  160000     1.219795   -6.0714531    81.409105  0.042400575  0.046371776            4 
  161000    1.2259416   -6.0750217    82.010964  0.042448739  0.046359324            2 
  162000    1.2058825   -6.0311919    82.856018  0.042621408  0.046346094            4 
  163000    1.2035441   -6.0239016    83.361423  0.042618315  0.046335807            2 
  164000    1.2054501   -6.0589809    83.404616  0.042380394  0.046323211            2 
  165000    1.2467926    -6.042526    84.241653  0.042546289   0.04630819            4 
  166000    1.2450411   -6.0766335    84.274794  0.042306623  0.046291068            6 
  167000    1.2210531   -6.0599842    84.927807  0.042379145  0.046269876            3 
  168000    1.2303958   -6.0436113     85.35461  0.042338596  0.046250203            2 
  169000    1.2250735   -6.0742798    86.210614  0.042510165  0.046233256            3 
  170000    1.2313284   -6.0555735    86.661701  0.042481226   0.04622088            2 
  171000    1.2428755    -6.043163    87.295486   0.04254166  0.046209108            4 
  172000    1.2336523   -6.0506186    88.336344  0.042798616  0.046201883            2 
  173000    1.2310469     -6.06405    88.507409  0.042633627   0.04619446            2 
  174000    1.2125686   -6.0214294       89.318   0.04277682  0.046188199            3 
  175000    1.2218837   -6.0394267    90.047361  0.042879696  0.046183185            3 
  176000    1.1934674   -6.0651982    90.628577  0.042911258  0.046178841            5 
  177000    1.2364475   -6.0585736    91.158843  0.042918476   0.04617597            4 
  178000    1.2169065   -6.0288588    91.764616  0.042960963  0.046172779            3 
  179000    1.2188818   -6.0667132    92.448754  0.043039457  0.046173538            2 
  180000    1.2154364   -6.0398171    92.915049  0.043016226  0.046173811            2 
  181000    1.2177274   -6.0661743    93.302687  0.042957038  0.046172826            5 
  182000    1.1938235   -6.0784177    93.123081  0.042638773  0.046166138            3 
  183000    1.2115282   -6.0801196    93.963577  0.042788514  0.046155169            3 
  184000    1.1939086   -6.0681424    94.536918  0.042815633  0.046142932            2 
  185000    1.2354965   -6.0796394    94.798703  0.042702118  0.046131793            2 
  186000    1.2251304   -6.0949652    95.433224   0.04275682  0.046119147            8 
  187000    1.2249347   -6.1015033    95.777864  0.042681757  0.046105444            4 
  188000    1.2198503   -6.0610608    96.317727  0.042694028  0.046091776            3 
  189000     1.227539   -6.0417582    96.996095  0.042767238  0.046078218            3 
  190000    1.2209689   -6.0339467     97.44787  0.042740294   0.04606576            4 
  191000    1.1910551   -6.0860216    97.502283  0.042540263   0.04604936            3 
  192000    1.2050544   -6.0777877    98.023711  0.042545013   0.04602769            2 
  193000    1.2358624   -6.0813142    98.559185  0.042555779  0.046003834            2 
  194000    1.1793058   -6.0770682     98.68627  0.042391009  0.045979083            2 
  195000    1.1984804   -6.0565049    99.584601  0.042557522  0.045955325            3 
  196000    1.2169282   -6.0664297    99.933904  0.042488905  0.045929755            4 
  197000    1.2239683   -6.0618648    100.41623  0.042477254  0.045905889            4 
  198000    1.1919275   -6.0800321    100.61161  0.042344953  0.045881238            2 
  199000    1.1947864   -6.0868187    101.08962  0.042332337  0.045857291            3 
  200000    1.2174099   -6.0874837    101.86173  0.042442388   0.04583305            5 
  201000    1.2137986   -6.0827071    102.46918  0.042483075  0.045810138            2 
  202000    1.2034217   -6.0688305    103.21104  0.042578814  0.045790431            2 
  203000    1.2101024   -6.0776942    103.73092  0.042582479  0.045773033            2 
  204000    1.2445103   -6.0316429    104.75155  0.042790664  0.045757012            2 
  205000    1.2220218   -6.0647781    104.64252  0.042537608   0.04574318            4 
  206000    1.2047446   -6.0782484      105.132  0.042529127  0.045729057            1 
  207000    1.2043076   -6.0808658    105.67462  0.042542116  0.045712217            6 
  208000    1.2295532   -6.0607764    106.54669  0.042686976  0.045695276            2 
  209000    1.2388031     -6.06655     107.1243  0.042713038  0.045681277            3 
  210000    1.2208809   -6.0958292    107.94435   0.04283506    0.0456671            4 
  211000    1.2382611   -6.0681169     108.0065  0.042656596  0.045653237            3 
  212000    1.2103654   -6.0818292    108.82072   0.04277544  0.045639864            2 
  213000    1.2093571   -6.1056636    109.25031  0.042742689  0.045627625            4 
  214000      1.20706    -6.072464    109.55652  0.042662197   0.04561456            4 
  215000    1.2275835   -6.0849648    110.19352  0.042710665   0.04559991            2 
  216000     1.221395   -6.0861012    110.90206  0.042786288  0.045584595            2 
  217000    1.1834943   -6.0829471    111.42566  0.042790191  0.045570592            2 
  218000    1.2381362   -6.0879108    111.94533  0.042792556  0.045556092            3 
  219000    1.2016201   -6.0788784    112.50361  0.042809592  0.045542342            2 
  220000    1.2135889   -6.0597032     112.8686  0.042753257  0.045530203            3 
  221000    1.1913134    -6.084009     113.1035  0.042648378  0.045515931            5 
  222000    1.1869809   -6.0864315    113.47987  0.042597551  0.045499398            3 
  223000    1.2203484   -6.0757014     113.5754  0.042442227  0.045481975            4 
  224000    1.2056531   -6.0665794    114.49709  0.042595643  0.045464637            2 
  225000    1.2201576   -6.0756581    115.35013  0.042722272  0.045446597            1 
  226000    1.2045163   -6.0826807    115.50683  0.042591014  0.045428007            2 
  227000    1.2055313   -6.0983167    115.98507  0.042578952   0.04540759            2 
  228000    1.2046454    -6.111798    116.29554  0.042505679  0.045388884            2 
  229000    1.2110563   -6.0579228    116.62991  0.042441742  0.045371247            4 
  230000    1.2127233   -6.0742435    117.92691  0.042727142  0.045355936            3 
  231000    1.1943834   -6.0646652     118.0884  0.042600433   0.04534208            3 
  232000     1.232412    -6.053385    118.42481  0.042537646  0.045327326            2 
  233000    1.2030872   -6.0724622    119.04378  0.042576461  0.045311057            2 
  234000    1.2117037   -6.1162777    119.12694  0.042424124  0.045293849            2 
  235000    1.1931897   -6.0463263    119.74665  0.042463351  0.045277203            2 
  236000    1.2152732   -6.1003661    120.46449  0.042536898  0.045259464            2 
  237000    1.1795997   -6.0742086    120.84528  0.042491308  0.045241424            2 
  238000    1.2444067    -6.092567     120.9247   0.04234058  0.045223278            6 
  239000    1.1966669   -6.0504644    122.28769  0.042638666  0.045206474            2 
  240000    1.2189439   -6.0972745    122.22982  0.042440909  0.045189492            6 
  241000    1.2090923   -6.0966903    122.50347   0.04235943  0.045172365            3 
  242000    1.2265276   -6.0796912    123.56038   0.04254834  0.045156677            3 
  243000    1.2313163   -6.1081544    124.10762  0.042560912  0.045140652            5 
  244000    1.2129466   -6.1149682     124.8638  0.042644742  0.045126873            4 
  245000    1.2238818   -6.0769017    125.43711  0.042665684  0.045112685            3 
  246000    1.2047421   -6.0770898     125.7794  0.042608197  0.045098584            6 
  247000    1.2148165   -6.0660127    126.59467  0.042710751  0.045085456            1 
  248000    1.2243102   -6.0796978      126.931  0.042651546  0.045071933            5 
  249000    1.2490702   -6.1093915    127.17931  0.042563357  0.045058474            3 
  250000    1.2092238   -6.0865007    127.38746  0.042462486  0.045046388            4 
  251000    1.2210347   -6.0582792    128.22243  0.042570529  0.045032073            6 
  252000    1.2247141   -6.0706548    128.17636  0.042386364  0.045016035            6 
  253000    1.2331774   -6.1224183    128.62959  0.042368114  0.044998894            4 
  254000    1.2128118   -6.0714602    129.68283   0.04254686   0.04498176            3 
  255000    1.1971039   -6.0997314    129.77469  0.042410028  0.044965146            2 
  256000    1.2393705   -6.0843508    130.98022  0.042636791  0.044950178            2 
  257000    1.2249225   -6.0650262     131.3226  0.042581905    0.0449368            2 
  258000    1.1981631   -6.0797453    131.91044  0.042606732  0.044922696            4 
  259000    1.1956451   -6.0734124     132.8825  0.042754987  0.044911206            3 
  260000    1.1834531   -6.0633555     132.9625  0.042616186  0.044898046            5 
  261000     1.179181   -6.0495468    133.43607  0.042604109  0.044887095            2 
  262000    1.2208977   -6.0815452    133.93818  0.042601201  0.044874935            4 
  263000    1.1789761   -6.0826387    134.51417  0.042621726  0.044862484            3 
  264000     1.213024   -6.0777883    135.08561  0.042640661  0.044849631            4 
  265000      1.20892   -6.0543626    135.64978  0.042657164  0.044836484            3 
  266000    1.2115051   -6.1020011    135.96701  0.042596182  0.044822893            4 
  267000    1.1929122   -6.0749899    136.53292  0.042613272  0.044808928            2 
  268000    1.2195312   -6.1037868     136.7341  0.042516821   0.04479518            4 
  269000    1.2130719   -6.0832554    137.25618  0.042520502  0.044780523            2 
  270000    1.2347035   -6.0935264    138.25465  0.042671189  0.044769334            3 
  271000    1.2383599   -6.0689352    138.73055  0.042660072  0.044759836            3 
  272000    1.2334534   -6.0842274    139.44822  0.042723106  0.044752973            3 
  273000    1.2032039   -6.0775933    139.72419  0.042650852  0.044744224            2 
  274000    1.1917184   -6.0779407    140.94654  0.042866951  0.044736527            3 
  275000    1.2135291   -6.0936855    141.14322  0.042770673  0.044727882            2 
  276000    1.1947412   -6.0874148    141.71225  0.042787515  0.044722037            2 
  277000    1.2017421   -6.0857022    142.47087  0.042861271  0.044716981            2 
  278000    1.2283711   -6.1044128    143.05288  0.042881559  0.044711541            4 
  279000    1.1858452   -6.0936113    143.52788  0.042869738  0.044704969            4 
  280000    1.2198703   -6.0804255    144.25709  0.042933658  0.044698708            6 
  281000    1.2084668   -6.1040617    144.60956  0.042885398   0.04469289            2 
  282000    1.2151241   -6.1057775    144.58964  0.042727435   0.04468855            2 
  283000    1.1901561   -6.0869427    145.96652  0.042981897  0.044685387            2 
  284000    1.1716027   -6.0688181    147.07791  0.043156663   0.04468344            4 
  285000    1.2218851   -6.1133565    147.25156  0.043056012   0.04468288            2 
  286000    1.2130807   -6.0887195    148.42297  0.043246787  0.044683975            3 
  287000    1.2112123   -6.1129635    148.38213  0.043084241  0.044683892            2 
  288000    1.1963735   -6.1188896    147.93602  0.042805561  0.044681712            3 
  289000    1.2169857   -6.0496151    149.30637  0.043052585  0.044679667            3 
  290000    1.2219819   -6.0660925    150.04891  0.043117503  0.044680698            2 
  291000    1.1790865   -6.1497526    150.54633  0.043111779  0.044680603            2 
  292000    1.2015843   -6.0826146    151.70339  0.043294346  0.044681061            2 
  293000    1.1779809    -6.105842    152.39977  0.043344645  0.044683015            2 
  294000      1.23018   -6.1133282    152.64382  0.043266389  0.044685918            2 
  295000    1.1988614   -6.0668267    153.74581   0.04343102  0.044687455            6 
  296000    1.2161773   -6.0775861     153.6725  0.043263655  0.044690004            4 
  297000     1.203074   -6.1131106    154.07291  0.043230334  0.044691146            3 
  298000    1.1794343   -6.1161392    154.60046  0.043232791  0.044691753            3 
  299000     1.189963   -6.0924607    155.00309  0.043200415  0.044691411            2 
  300000    1.1881169   -6.0963843    155.57993  0.043216647  0.044692145            8 
  301000    1.1779503   -6.1168898    155.84221  0.043145685  0.044692438            2 
  302000    1.2182948   -6.0816341    156.53537  0.043194087  0.044691498            7 
  303000     1.208495   -6.1017109    156.87916  0.043146083  0.044690551            3 
  304000    1.2194836   -6.0649468     157.8306  0.043264967  0.044689368            7 
  305000     1.217171   -6.1101211    157.90145  0.043142473  0.044689001            2 
  306000    1.2165239   -6.0855963    158.67681  0.043212639  0.044688829            2 
  307000    1.2103943   -6.1462398    158.65672  0.043066429  0.044686512            6 
  308000    1.1971644   -6.1035736    159.41183  0.043130905  0.044684498            3 
  309000    1.1952616   -6.1007201    158.93449  0.042862592  0.044679595            3 
  310000    1.2020869   -6.0812766    160.10747  0.043039641  0.044673957            2 
  311000    1.2166748   -6.0680507    160.50957  0.043008994  0.044668752            2 
  312000    1.2166089   -6.1458463    161.30538  0.043083701  0.044664796            2 
  313000    1.1911327   -6.0623184    161.54948  0.043011043  0.044660613            3 
  314000    1.2082227    -6.105338    162.22669  0.043053792  0.044656661            4 
  315000    1.2163903   -6.1055844    162.16227  0.042900071   0.04465274            3 
  316000    1.1997814   -6.0895415    162.79592  0.042931413  0.044645785            2 
  317000    1.2231227   -6.1429084    163.16457  0.042892894  0.044640019            3 
  318000    1.1735743   -6.1097469    164.00577  0.042978452  0.044634142            1 
  319000    1.2083215    -6.116593    163.88829  0.042813033  0.044628217            3 
  320000    1.2064366   -6.0903277    164.43651  0.042822009  0.044621689            3 
  321000    1.2029876   -6.0943609    165.72327  0.043022655   0.04461425            4 
  322000    1.2320773   -6.0973751    165.47823  0.042825629  0.044607263            3 
  323000    1.2162226   -6.0698252    165.77275  0.042769027  0.044598372           11 
  324000    1.1930483   -6.1544667    166.32014  0.042777813  0.044590729            3 
  325000     1.218745   -6.0945067    166.92317  0.042800814  0.044583176            4 
  326000    1.2265795    -6.103117    167.95341  0.042932876  0.044575784            3 
  327000    1.2128674   -6.1180706    168.35914  0.042904979  0.044567742            4 
  328000    1.1781057   -6.0943534    168.97084  0.042929584  0.044560002            3 
  329000    1.1971843   -6.0828238    169.22623  0.042863788  0.044551205            2 
  330000    1.2287836    -6.118157    169.19192  0.042725232  0.044541341            2 
  331000    1.2269866   -6.0906962    169.85468  0.042763011  0.044531983            4 
  332000    1.1895058   -6.0831761    170.22554  0.042727295  0.044522236            4 
  333000    1.2318657   -6.1234896    170.74119  0.042728026  0.044513827            2 
  334000    1.1971109   -6.0913764    171.35707   0.04275376  0.044505741            7 
  335000    1.1979023    -6.110106    172.08574  0.042807398  0.044497479            5 
  336000    1.1996545   -6.0996312    172.11628   0.04268757  0.044487896            3 
  337000    1.1906835   -6.1057447     172.2411  0.042591766   0.04447719            2 
  338000    1.1544467   -6.0730997    173.31152  0.042729666  0.044466885            2 
  339000    1.2046497   -6.1321004    173.58725  0.042671399  0.044455357            2 
  340000    1.1973292   -6.0756646    174.23891  0.042705616  0.044443758            2 
  341000    1.2096597   -6.1265482    174.28724  0.042592189  0.044432822            4 
  342000    1.2092888   -6.1398189     174.8559  0.042606213  0.044420797            2 
  343000    1.2149717   -6.1494886    175.01496  0.042520641    0.0444093            3 
  344000    1.1802593   -6.1236841    175.56938  0.042531343  0.044398366            3 
  345000    1.1798725   -6.0906876    176.19162  0.042558362  0.044385325            6 
  346000    1.1994225   -6.1211735    176.49393  0.042508171   0.04437223            1 
  347000    1.2033378   -6.0837774    177.12339  0.042536836  0.044358226            2 
  348000    1.2006763   -6.1124767    177.71401  0.042556036  0.044345472            4 
  349000    1.1756428   -6.1269603    177.43861  0.042368341  0.044333533            4 
  350000    1.2076413   -6.0947268    178.79965  0.042571346  0.044321805            3 
  351000    1.2113261   -6.1279522    178.89781  0.042473365  0.044310721            4 
  352000     1.199081   -6.1277888    179.72454  0.042548423  0.044298587            4 
  353000    1.1773538   -6.0930852    180.41669  0.042591287  0.044286511            3 
  354000    1.1910112   -6.0991785    180.52148  0.042495641  0.044273935            1 
  355000    1.2111876   -6.1335202    180.95451  0.042477585  0.044261448            6 
  356000    1.1730361   -6.1375545    181.32012  0.042443848  0.044248952            2 
  357000    1.1981453   -6.0764949    181.98478  0.042480107  0.044236365            3 
  358000    1.2071401   -6.1167992    182.18367  0.042407743  0.044225331            5 
  359000    1.2073202   -6.1078556    183.04497  0.042489548  0.044213382            6 
  360000    1.1840823   -6.0838413    183.32955  0.042437395  0.044201724            4 
  361000    1.1826151    -6.113539    183.09886  0.042266588  0.044189252            7 
  362000    1.1997995   -6.1148193    184.26051  0.042417245  0.044176287            2 
  363000    1.1890092   -6.0906734    184.80305  0.042424943  0.044164293            4 
  364000    1.2042515   -6.1512052    184.84475  0.042317936  0.044151213            3 
  365000    1.1772058   -6.1226516    185.52131  0.042356463  0.044138075            3 
  366000    1.1907675    -6.088264    186.36035  0.042431773  0.044124825            4 
  367000    1.1734311   -6.0644604    186.15527  0.042269588  0.044111353            3 
  368000    1.2026817   -6.1345505    186.96862  0.042338908  0.044096924            6 
  369000    1.1772537   -6.1067537    187.68438  0.042385814  0.044081255            4 
  370000    1.1676491   -6.0718893    187.99986   0.04234231  0.044066459            3 
  371000    1.1894422   -6.1477223    188.04017  0.042237236  0.044051545            5 
  372000    1.1882459   -6.1154152    188.26676  0.042174454  0.044036115            3 
  373000    1.2014173   -6.0942362    188.84803   0.04219125  0.044021228            2 
  374000    1.1954004   -6.1203671     189.5231  0.042228855  0.044007375            2 
  375000    1.1995924   -6.1125821    190.11759  0.042248353  0.043992396            5 
  376000    1.2064981    -6.112705    190.38497  0.042195251  0.043978207            4 
  377000    1.1840815    -6.117347    190.91138  0.042199686  0.043963853            2 
  378000    1.2099423   -6.1313384    191.45758  0.042208462  0.043949955            4 
  379000    1.2176182   -6.0914095    192.01372  0.042219376  0.043936957            4 
  380000    1.2086908    -6.105344    192.66849  0.042251862  0.043924244            3 
  381000    1.1960523   -6.1607055    193.14675   0.04224557  0.043911761            4 
  382000      1.19258    -6.156869    193.43041  0.042196861   0.04389898            3 
  383000    1.1958285   -6.1036604      194.073    0.0422265  0.043886427            2 
  384000    1.1925015   -6.1305184    194.94254   0.04230524  0.043873052            4 
  385000    1.2215889   -6.1495982    194.91978  0.042190428  0.043860189            4 
  386000    1.1816855    -6.155613    194.40368  0.041969706  0.043846259            1 
  387000    1.1808045   -6.1184565    195.86841   0.04217666  0.043833356            2 
  388000    1.1856596   -6.1081882    195.80067  0.042053409  0.043819693            2 
  389000    1.2032251   -6.1384805    195.89709  0.041965958  0.043805867            2 
  390000    1.1824957   -6.0888678     197.3226  0.042162949  0.043792113            2 
  391000    1.1813694   -6.1650907    197.04253  0.041995424  0.043778719            2 
  392000    1.1956238   -6.1025759    198.13172  0.042119839  0.043764619            2 
  393000    1.1844151   -6.1666732    198.13331  0.042013001  0.043751365            3 
  394000    1.1746781   -6.1239998    198.51673  0.041987465  0.043738107            3 
  395000    1.1675614   -6.1309791    200.47513  0.042294331   0.04372538            3 
  396000     1.220013    -6.143855    200.18956  0.042127432  0.043713331            2 
  397000    1.1697214   -6.0972229    201.42086  0.042279778  0.043701648            5 
  398000    1.1690466   -6.1156897    201.32344  0.042153148  0.043690797            5 
  399000    1.1777298   -6.1037324    202.19497  0.042229527  0.043679819            3 
  400000    1.2007039   -6.0817488    202.84737  0.042259868  0.043669786            1 
  401000    1.1724416   -6.1016227    203.35621  0.042260226  0.043660564            1 
  402000    1.1819118   -6.1003521    203.69737  0.042225823  0.043648556            3 
  403000    1.2080091    -6.122718     203.8585  0.042154362  0.043637059            2 
  404000     1.180175   -6.1099691    204.64213  0.042211661  0.043626551            2 
  405000    1.1950111   -6.1293074    205.09228  0.042200058  0.043615956            3 
  406000    1.2041147   -6.1487844    205.37206  0.042153543  0.043605511            2 
  407000    1.1676136   -6.1016342    206.02316  0.042183284  0.043595435            2 
  408000    1.1977252   -6.1169067    206.64702  0.042207315  0.043584802            2 
  409000    1.1597083   -6.1187706    207.13421  0.042203385  0.043574606            3 
  410000    1.1685401   -6.0940138    207.66545  0.042208425  0.043563806            2 
  411000    1.1682839   -6.1477172    207.44187  0.042060396  0.043552344            2 
  412000    1.1730696   -6.1165918    207.93912  0.042058884  0.043540405            3 
  413000    1.1712092   -6.0982929    208.55645  0.042081609  0.043529445            4 
  414000    1.1730105   -6.1435464    209.51456  0.042172817  0.043518547            2 
  415000    1.1913511   -6.1311614    209.61661  0.042091689  0.043507967           13 
  416000    1.1746469   -6.1354209     209.3787  0.041942849  0.043496557            3 
  417000    1.1785515    -6.146959    209.81474  0.041929405  0.043485309            5 
  418000     1.202441    -6.133897    210.81901  0.042029307  0.043473608            4 
  419000    1.1708321   -6.1364077    211.26553  0.042017807  0.043461644            4 
  420000    1.1892496   -6.1338282    211.54231  0.041972681  0.043449564            7 
  421000    1.1654955   -6.1313211    212.00855  0.041965272  0.043437052            2 
  422000    1.1844066   -6.1272757    212.27691  0.041918821  0.043424541            2 
  423000    1.1939482   -6.1624316     212.1685  0.041798365  0.043410779            5 
  424000    1.1964319   -6.1316173    213.62835  0.041986704  0.043396893            3 
  425000    1.2186297    -6.116099    212.32958  0.041633251  0.043382635            2 
  426000    1.1744521   -6.1453263    213.31413  0.041728116  0.043367942            5 
  427000    1.1690028   -6.1261973    214.26423  0.041815813  0.043353904            3 
  428000    1.1695775   -6.1331563    213.87316   0.04164197  0.043339029            2 
  429000    1.1934224    -6.116574    215.28458  0.041819071  0.043324498            2 
  430000    1.1775011   -6.1644405    214.59392   0.04158797  0.043310438            4 
  431000    1.1717164   -6.1357018    215.71631  0.041708489  0.043296018            4 
  432000    1.1930038     -6.09955    216.65782  0.041793562  0.043281795            3 
  433000    1.1952777   -6.1226872    217.29747  0.041820143  0.043268284            5 
  434000    1.1691296    -6.104761    217.29703    0.0417237  0.043255058            2 
  435000    1.2013577   -6.0795315    218.30802  0.041821459  0.043241985            9 
  436000    1.1963642   -6.1213403     218.0538   0.04167695   0.04322826            3 
  437000    1.1690591    -6.146081    218.67758   0.04170053  0.043214061            4 
  438000     1.186808   -6.1431817     219.3019  0.041724106  0.043200732            4 
  439000    1.1985148   -6.1427459    219.26335  0.041621745  0.043187022            3 
  440000    1.1955052    -6.116693    220.45219  0.041752309  0.043172771            2 
  441000    1.1954572   -6.1230996    220.54249  0.041674695  0.043158981            1 
  442000    1.2044972    -6.139991    221.63664  0.041786698  0.043145687            2 
  443000    1.1726531   -6.1239556    221.19277  0.041608873  0.043131359            5 
  444000    1.1864435   -6.1339798    221.59338   0.04159035  0.043117632            4 
  445000    1.1582559   -6.0979685    222.04259  0.041581009  0.043103489            3 
  446000    1.1727041   -6.1538786    222.16305  0.041510286     0.043089            4 
  447000    1.1746617   -6.1518572    222.32827  0.041448223   0.04307413            2 
  448000     1.174013   -6.1246389    223.16558  0.041511455  0.043059431            2 
  449000    1.1748349   -6.1204433    223.71256  0.041520519  0.043043855            2 
  450000    1.1844184   -6.1642304    223.62946  0.041412862  0.043028869            3 
  451000     1.179433   -6.0984489    224.96305  0.041567451  0.043013515            2 
  452000    1.1555172   -6.2114927    223.10384  0.041132715  0.042997441            5 
  453000    1.1858083   -6.1877972    224.07455  0.041220483  0.042981044            3 
  454000    1.1938149   -6.1261617    225.95089  0.041474099  0.042964587            4 
  455000    1.1705901   -6.1923208    226.02008  0.041395619  0.042948974            1 
  456000    1.2132385   -6.1784321    226.20456  0.041338553  0.042933968            4 
  457000    1.1663224   -6.1357837    227.03988  0.041400416  0.042918615            3 
  458000    1.1874974   -6.1635615    227.16065  0.041331996  0.042902749            3 
  459000    1.1965268   -6.0814939    227.86884  0.041370523  0.042886927            3 
  460000    1.1616582   -6.1593251    227.99851  0.041304078  0.042871159            7 
  461000     1.151619   -6.1038502    228.50631  0.041306274    0.0428555            5 
  462000    1.1792785    -6.113458    229.66984  0.041426739  0.042839649            3 
  463000    1.1775362   -6.1173601    228.99358  0.041215547  0.042823391            8 
  464000    1.1961523   -6.1995671    229.08515  0.041143167  0.042807347            5 
  465000    1.1793257   -6.1643519    229.16182  0.041068427  0.042790726           10 
  466000    1.1679284   -6.1720655    229.76109  0.041087462  0.042774182            2 
  467000    1.1453223   -6.1265789    230.47662  0.041127163  0.042757709            6 
  468000    1.1770559   -6.1088511     231.5816   0.04123604  0.042741444            3 
  469000    1.1688406   -6.1417422    231.67987  0.041165578  0.042724648            3 
  470000    1.1738761   -6.1342314    232.53754  0.041230061  0.042708297            2 
  471000    1.1725251   -6.1744037    232.26272    0.0410939  0.042692397            3 
  472000    1.1894178   -6.1510563    233.40822  0.041209079  0.042676712            2 
  473000    1.1792717   -6.1219593    233.28577  0.041100382  0.042661735            4 
  474000    1.1985158   -6.1396061    233.90217  0.041122041  0.042645884            5 
  475000    1.1712208   -6.1662084    233.99514  0.041051779  0.042630355            5 
  476000    1.1814446   -6.1199337    234.80955  0.041108114  0.042614984            4 
  477000    1.1799481   -6.1440659    235.43826  0.041131772   0.04259994            4 
  478000    1.1730225   -6.1307098    235.98526  0.041141084  0.042584871            3 
  479000    1.1981014   -6.1355939    236.43371  0.041133214  0.042569198            1 
  480000    1.1710536   -6.1778281    236.42482  0.041045976   0.04255434            4 
  481000    1.1819163   -6.1552852    237.39553  0.041128817  0.042539854            5 
  482000    1.1943402   -6.1697076    238.35289  0.041209007  0.042525842            2 
  483000    1.1724221   -6.1374286    238.28688  0.041112299  0.042511122            6 
  484000    1.1547513   -6.1330727    239.38054  0.041215657  0.042497584            4 
  485000     1.168443   -6.1671365    239.28246  0.041113825  0.042483814            5 
  486000    1.1660427   -6.1672917     239.6627  0.041094427  0.042469621            3 
  487000    1.1523621   -6.2061271    240.34929   0.04112753  0.042455275            7 
  488000    1.1820587   -6.1461725    240.50567  0.041069958  0.042441227            1 
  489000    1.1766389   -6.1717135    240.83405   0.04104193  0.042426565            1 
  490000    1.1651061   -6.1484946    242.17494  0.041186214  0.042411778            3 
  491000    1.1937382   -6.1194283     242.1696  0.041101426   0.04239717            2 
  492000    1.1792577   -6.1789401    241.44509  0.040895172  0.042381984            2 
  493000    1.1624294   -6.1650203    242.44975   0.04098204  0.042366592            3 
  494000    1.1768633   -6.1531095     242.5634  0.040918252  0.042351707            3 
  495000    1.1734809   -6.1430378    244.19936  0.041111003  0.042338014            3 
  496000    1.1909981   -6.1715889    244.58456  0.041092837  0.042324087            2 
  497000    1.2029839   -6.1864973     245.0623  0.041090258   0.04231099            2 
  498000    1.1782486   -6.1558402    245.50685  0.041082137   0.04229763            2 
  499000     1.178016   -6.1378575    245.76023  0.041042122  0.042284571            3 
  500000    1.1608745   -6.1186426     246.1922  0.041032033  0.042270832            2 
  501000    1.1733146   -6.1051925    246.84439  0.041058615  0.042257836            6 
  502000    1.1804833   -6.1417156    246.63106   0.04094141  0.042244653            3 
  503000    1.1575528   -6.1792627    247.07108  0.040932917  0.042231195            5 
  504000    1.1612812   -6.1873905    246.78061  0.040803672  0.042217076            8 
  505000    1.1462385   -6.1112508    248.23933  0.040963585  0.042203131            3 
  506000    1.2020583   -6.1604174    248.20179  0.040876448  0.042188831            3 
  507000    1.1617328   -6.1514947    249.51264  0.041011282  0.042174796            5 
  508000    1.1779802   -6.1628863    249.43452  0.040917736  0.042160992            3 
  509000    1.1741827   -6.1697038    249.61718  0.040867253  0.042147702            5 
  510000    1.1851454   -6.1081218    251.25494   0.04105473  0.042134666            4 
  511000    1.1688792   -6.1752504    250.80814  0.040901523  0.042122314            7 
  512000    1.1748424   -6.1559279    252.60933    0.0411148  0.042110681            3 
  513000    1.1835154   -6.1230648    253.50012  0.041179357  0.042099278            1 
  514000    1.1590966   -6.1686689    252.69614  0.040968894    0.0420871            3 
  515000    1.1851985   -6.1776936    253.70943  0.041053305  0.042074982            2 
  516000     1.181658   -6.1362412    254.43362  0.041090701  0.042063963            3 
  517000    1.1434342   -6.1516376    255.00632  0.041103533  0.042053287            3 
  518000     1.170983   -6.1581293    255.74028  0.041142258  0.042042299           10 
  519000    1.1822133   -6.1495953    255.69291  0.041055381   0.04203216            1 
  520000     1.144055   -6.1802843    256.79773  0.041153482  0.042022414            4 
  521000    1.1709862   -6.1618922    256.53016  0.041031696  0.042011543            4 
  522000    1.1604993   -6.1445512    256.32899  0.040920975   0.04200051            4 
  523000    1.1697332   -6.1720111     257.8033  0.041077644  0.041989559            3 
  524000    1.1897135   -6.1796133    258.06157  0.041040326  0.041978656            5 
  525000    1.1379798   -6.1539715    258.44713  0.041023354  0.041968425            3 
  526000    1.1968691   -6.1644051    259.25194  0.041072867  0.041958339            2 
  527000    1.1544892   -6.1671773    259.10829  0.040972216  0.041948726            4 
  528000    1.1764352   -6.1296832    260.78533  0.041159301   0.04193897            4 
  529000    1.1706369     -6.12692    261.47646  0.041190369  0.041930044            4 
  530000    1.1430475   -6.1571165    259.93603  0.040870444  0.041919977            3 
  531000    1.1509268     -6.14041    261.95652  0.041110566  0.041910476            4 
  532000    1.1596508   -6.1736877    262.15405   0.04106423  0.041901285            2 
  533000    1.1823265   -6.1355257    264.06852   0.04128651  0.041892741            1 
  534000    1.1413042   -6.1875388    263.40284  0.041105312  0.041883807            9 
  535000    1.1648794    -6.182604    262.38771  0.040870359  0.041874593            5 
  536000    1.1522581    -6.158725    263.23904  0.040926467  0.041864805            2 
  537000    1.1282356   -6.1788498    264.64965  0.041069157  0.041855482            4 
  538000      1.16945   -6.1394392    264.98446  0.041044681  0.041845484            2 
  539000    1.1601736   -6.1755487    265.06665  0.040981239  0.041835595            3 
  540000    1.1657072   -6.1811412    266.39293  0.041110019  0.041826698            3 
  541000     1.159795    -6.151084    266.19514  0.041003565  0.041818066            3 
  542000    1.1823934    -6.159005    267.22086  0.041085619  0.041808636            3 
  543000    1.1964081   -6.1883188    267.06729  0.040986386  0.041799649            5 
  544000    1.1583752   -6.1399366    267.99184  0.041052672  0.041791209            5 
  545000    1.1708278    -6.157596    268.78863  0.041099179  0.041782936            3 
  546000    1.1769152   -6.1892272    268.93604  0.041046404  0.041774708            5 
  547000    1.1624551   -6.1480171    270.12376  0.041152309   0.04176751            3 
  548000    1.1827038   -6.1490209      270.193  0.041087744  0.041759983            2 
  549000     1.158512   -6.1637733    270.63624  0.041080183  0.041752403            3 
  550000    1.1527477   -6.1715669    271.14829  0.041083074   0.04174447            3 
  551000    1.1565201   -6.1725623     271.0447  0.040992847  0.041736692            4 
  552000    1.1661896   -6.1826413    272.28625  0.041106016  0.041728823            3 
  553000      1.16448   -6.2044587     272.2705   0.04102931  0.041721074            4 
  554000    1.1448364   -6.1705439    274.28046   0.04125759   0.04171418            2 
  555000    1.1634248   -6.2227566    273.00505  0.040991749  0.041706555            3 
  556000     1.177418   -6.1839422    274.24137  0.041103323  0.041699189            5 
  557000    1.1509396   -6.1394667    275.00859  0.041144314  0.041691708            4 
  558000    1.1792801   -6.1870891    274.44767  0.040986808  0.041684405            4 
  559000    1.1698105   -6.1440098    275.75469  0.041108332  0.041677042            3 
  560000    1.1619095   -6.1786813    274.77325  0.040888877  0.041668585            4 
  561000    1.1696277   -6.1732901    275.88508  0.040981146  0.041660214            4 
  562000    1.1597185   -6.1519074    275.52282  0.040854511  0.041651586            3 
  563000    1.1660772   -6.1992938    276.80992  0.040972458  0.041642369            3 
  564000    1.1410011   -6.1687742    277.01911   0.04093072  0.041633797            4 
  565000     1.161362   -6.1580397    277.56642     0.040939  0.041625059            4 
  566000    1.1978803   -6.1740998    278.31587  0.040977012  0.041617029           10 
  567000    1.1785065   -6.1898681    278.85396  0.040983827  0.041609414            3 
  568000    1.1461992   -6.1592264     279.3794  0.040988761  0.041601406            3 
  569000    1.1803577   -6.2189218    278.54427  0.040794415  0.041593693            2 
  570000    1.1611216   -6.1528718    279.89465  0.040920271  0.041585661            3 
  571000    1.1499395   -6.1973786    279.78562  0.040832694  0.041577497            6 
  572000    1.1419795   -6.1579347    280.22485  0.040825299  0.041569646            2 
  573000    1.1481332   -6.1731167    281.48673  0.040937569  0.041561309            2 
  574000    1.1500494   -6.1995271    280.66542  0.040747012  0.041552545            7 
  575000    1.1567192   -6.1805628    281.95873  0.040863583  0.041544498            3 
  576000    1.1358082   -6.1548529    283.13565  0.040962912  0.041536729            2 
  577000    1.1447358   -6.1864769    283.02296  0.040875644  0.041529211            6 
  578000    1.1698046   -6.1898129    283.47867  0.040870628   0.04152123            2 
  579000    1.1486693   -6.1471247    284.06638  0.040884626  0.041513158            3 
  580000    1.1547225   -6.1902535    283.40249  0.040718749  0.041505221            4 
  581000    1.1458019   -6.1612956      284.613  0.040822289   0.04149728            2 
  582000    1.1906376   -6.1759785    284.72265  0.040767848  0.041489253            4 
  583000    1.1715748   -6.2063915    285.12609  0.040755588  0.041480696            2 
  584000    1.1473908   -6.2072595    285.57125  0.040749322  0.041472223            5 
  585000    1.1692832   -6.1827946    286.01316  0.040742616  0.041464082            3 
  586000    1.1872318   -6.1605939    285.67087  0.040624413  0.041455259            3 
  587000    1.1848438   -6.1303323    286.70013  0.040701325  0.041446039            6 
  588000    1.1702599   -6.1618284    287.49252  0.040744405  0.041436786            3 
  589000    1.1603534   -6.1819999    286.35994  0.040514988  0.041426785            4 
  590000    1.1725377   -6.1720641    288.64264  0.040768734  0.041416766            4 
  591000    1.1662518   -6.1992486    287.67342  0.040563087  0.041407204            3 
  592000    1.1579943   -6.1763636    289.91784  0.040810507  0.041397357            3 
  593000    1.1497069   -6.1742663    289.43629  0.040674014   0.04138821            4 
  594000    1.1395604   -6.1743396    289.89508  0.040669904  0.041378776            3 
  595000    1.1521849   -6.1761424    290.45386  0.040679812  0.041369201            3 
  596000    1.1741555   -6.2016421     289.8836  0.040531823  0.041359016            3 
  597000    1.1662822   -6.1653142    290.50249  0.040550319  0.041349086            2 
  598000    1.1398541   -6.1716209    290.32492  0.040457765  0.041339456            3 
  599000    1.1451848   -6.1987232     291.5894  0.040566138  0.041329715            5 
  600000    1.1595338   -6.1759745    291.68352    0.0405116  0.041319787            3 
  601000    1.1567662    -6.193874    291.49314  0.040417795  0.041309336            3 
  602000    1.1643105   -6.1770671    292.89272  0.040544396  0.041299431            3 
  603000    1.1346101   -6.1623079    293.10372  0.040506319  0.041289472            3 
  604000    1.1593421   -6.2022533    293.45583  0.040487835  0.041279526            5 
  605000    1.1378034   -6.1610953    293.31533  0.040401561  0.041269654            2 
  606000    1.1557786   -6.1543837    294.98678  0.040564739  0.041259746            7 
  607000     1.160911   -6.2149889    294.71304   0.04046033  0.041249471            2 
  608000    1.1795692   -6.1831626    294.09323  0.040308831  0.041239131            2 
  609000    1.1797817   -6.2171751    293.91541  0.040218311  0.041228408            3 
  610000    1.1359559    -6.182026    296.06447  0.040445966  0.041218142            3 
  611000    1.1389547   -6.1806726    296.84434  0.040486135  0.041208762            3 
  612000    1.1444056   -6.1678227    297.60209   0.04052316  0.041199292            4 
  613000    1.1751586    -6.196355    297.39221  0.040428522  0.041190105           11 
  614000    1.1479128   -6.1792094    298.15384  0.040466048  0.041180522            3 
  615000    1.1450184   -6.1955357    298.35057  0.040426907  0.041171151            2 
  616000    1.1200456   -6.1809593    298.36283  0.040362937  0.041161331            2 
  617000    1.1542932   -6.1739335     299.6203  0.040467355  0.041151662            4 
  618000    1.1535391   -6.1509013     300.6926  0.040546467  0.041143109            3 
  619000    1.1466799   -6.1793889    299.73482  0.040352022  0.041133936            2 
  620000    1.1655584   -6.2085703    300.46536  0.040385129   0.04112504            3 
  621000    1.1432954   -6.2338811    300.74904  0.040358164  0.041115706            3 
  622000    1.1319589   -6.2177639    300.75762  0.040294429  0.041105918            3 
  623000    1.1601279   -6.1756732     302.4614  0.040457651  0.041096532            5 
  624000    1.1681979   -6.1666477    303.32722  0.040508443  0.041086998            4 
  625000    1.1245799   -6.1855713    302.38447  0.040317929  0.041077281            5 
  626000    1.1642459   -6.1968493    303.07912  0.040345996  0.041067472            2 
  627000    1.1782129   -6.1826923    302.77687  0.040241476  0.041056912            3 
  628000    1.1352278   -6.2427755    302.43244  0.040131693  0.041046142            2 
  629000    1.1343544   -6.1950717    303.44509  0.040202052  0.041035987            2 
  630000     1.133148   -6.2291582    303.85877  0.040192959  0.041025943            4 
  631000    1.1495329     -6.18017    304.48487  0.040211948  0.041016096            6 
  632000    1.1675836   -6.2039272    304.71744  0.040178987  0.041005843            3 
  633000    1.1553662   -6.1886941    305.82933  0.040261892  0.040995838            4 
  634000    1.1473716   -6.1693557    307.34981  0.040398241  0.040985715            5 
  635000    1.1611359   -6.1906728    306.89071  0.040274371  0.040976015            2 
  636000    1.1454203   -6.1671147    307.27249   0.04026107  0.040966092            3 
  637000    1.1826701    -6.188957    307.88185  0.040277583  0.040956059            4 
  638000    1.1334431   -6.1941371    306.80065   0.04007323  0.040945876            6 
  639000    1.1726741   -6.2130274    308.00997  0.040168228  0.040935852            2 
  640000     1.164185   -6.2324706    307.94401  0.040096876  0.040926138            4 
  641000    1.1229254   -6.1846252    309.04443  0.040177383  0.040915989            9 
  642000    1.1532597   -6.1894093    310.28957  0.040276423  0.040906363            3 
  643000    1.1475769   -6.2135444    310.95073  0.040299473  0.040897006            4 
  644000    1.1318802   -6.2094906    310.45108  0.040172241    0.0408879            7 
  645000    1.1585056   -6.2062141    310.88769  0.040166368  0.040879003            4 
  646000    1.1363355   -6.1711821    313.05283  0.040383492  0.040870215            6 
  647000    1.1352233   -6.2384774    312.47208  0.040246275  0.040861078            5 
  648000    1.1688883   -6.1666388    313.25642  0.040285033   0.04085254            2 
  649000    1.1442955   -6.1964005    313.94234  0.040311034  0.040844234            3 
  650000    1.1627033   -6.2410014    313.85455  0.040237763  0.040835973            2 
  651000    1.1492068   -6.2509594    315.44411   0.04037943  0.040827706            3 
  652000    1.1597102   -6.1631736    315.35522  0.040306138  0.040819256            5 
  653000    1.1364078   -6.2144289    315.27884  0.040234666  0.040811016            4 
  654000    1.1512337   -6.2387647     315.6032  0.040214475   0.04080264            6 
  655000    1.1322932   -6.1956347    316.62951  0.040283653  0.040794518            2 
  656000    1.1297619   -6.1814827    317.88478  0.040381705  0.040786382            2 
  657000     1.144094   -6.1768814    317.10595  0.040221455   0.04077852            2 
  658000    1.1716997   -6.1867444    318.16655  0.040294649  0.040770423            2 
  659000    1.1400697   -6.1541347    318.16087  0.040232785  0.040762074            2 
  660000    1.1786731   -6.2186108    318.54795    0.0402207  0.040753556            3 
  661000    1.1317384   -6.1746459    319.35048  0.040261029   0.04074469            2 
  662000    1.1402215    -6.192294    318.34198   0.04007326  0.040736091            2 
  663000    1.1611824   -6.2055059    319.06677  0.040103918  0.040727433            8 
  664000     1.126177   -6.1874549    318.92325  0.040025508  0.040718671            2 
  665000    1.1567529   -6.1687734    320.69528  0.040187378  0.040709938           11 
  666000    1.1300998   -6.1829543    321.22992  0.040193934  0.040701546            5 
  667000    1.1538215   -6.2291478    320.81805  0.040082215  0.040693099            4 
  668000    1.1612537   -6.2092632     320.6503  0.040001285  0.040684608            5 
  669000    1.1587085   -6.2317164    321.59798  0.040059539  0.040676301            4 
  670000    1.1351473    -6.206779    322.65596  0.040131338  0.040668104            3 
  671000    1.1658597   -6.1523724     323.6843  0.040199242  0.040660101            3 
  672000     1.172465   -6.1980042    323.69826  0.040141153  0.040651986            4 
  673000    1.1434653   -6.1601219    323.97766  0.040116104    0.0406439            4 
  674000    1.1507509   -6.2295467    324.64463  0.040139049  0.040635428            3 
  675000    1.1351455    -6.211452    323.83111  0.039979149  0.040626412            3 
  676000     1.151389   -6.2138956    323.98127   0.03993852  0.040617672            6 
  677000    1.1471494   -6.2081313    324.08611  0.039892432  0.040608242            2 
  678000    1.1383999   -6.2208852    325.26708  0.039978747  0.040599633            5 
  679000    1.1377989   -6.2211536    326.25079  0.040040597  0.040590844            5 
  680000    1.1565747   -6.2314954    325.79196  0.039925485  0.040582064            3 
  681000    1.1495752    -6.195016    326.85136  0.039996496  0.040573667            6 
  682000    1.1543057   -6.2095827    328.21841  0.040104889  0.040565394            6 
  683000    1.1581259   -6.2148916    327.50986  0.039959719   0.04055737            7 
  684000    1.1537714   -6.2361268    328.75165  0.040052589  0.040548861            7 
  685000     1.137983   -6.2213131    329.05317  0.040030799  0.040540714            3 
  686000    1.1561331   -6.2043923    330.31071  0.040125207  0.040532425            2 
  687000    1.1558097   -6.2122577    329.86801  0.040013102  0.040524396            2 
  688000    1.1469998   -6.2106609    330.36084  0.040014637  0.040516221            3 
  689000    1.1327107   -6.1850648    331.19477  0.040057422  0.040507937            5 
  690000    1.1247035   -6.1851942    330.06213  0.039862576  0.040499645            2 
  691000    1.1537777   -6.2131289    330.68234  0.039879685  0.040490801            3 
  692000    1.1451386   -6.1922118      331.599  0.039932442  0.040482391            5 
  693000    1.1570075   -6.2094264    333.06066  0.040050584  0.040473786            1 
  694000    1.1391722   -6.1872721    332.17254  0.039886232  0.040465417            5 
  695000    1.1509932   -6.2518441    333.36015  0.039971241  0.040456688            6 
  696000    1.1394059   -6.1830235    334.52225  0.040052952  0.040448185            4 
  697000    1.1567837    -6.181347    334.67871  0.040014193  0.040440323            3 
  698000    1.1378858   -6.1816152    333.45937  0.039811291  0.040432214            2 
  699000    1.1424109   -6.1870565    335.03686  0.039942401  0.040423657            3 
  700000    1.1336407   -6.2172126    334.76856    0.0398534  0.040415151            4 
  701000    1.1310525   -6.2342925    335.07459  0.039832928  0.040405969            6 
  702000    1.1612091   -6.1860403    335.29179   0.03980197  0.040396686            4 
  703000    1.1497894   -6.1977601    333.86215  0.039575883  0.040387175            4 
  704000    1.1339601   -6.1958267    335.33429  0.039693926  0.040377381            4 
  705000    1.1234918   -6.2040868    335.43787  0.039649866  0.040367651            3 
  706000    1.1362654   -6.2100893    336.40821   0.03970824  0.040357979            4 
  707000    1.1393901   -6.2192237     337.0115  0.039723185  0.040348344            2 
  708000    1.1563865   -6.2096365    338.01769   0.03978551  0.040338801            1 
  709000    1.1485082   -6.1809792    337.50539  0.039669181  0.040329685            4 
  710000    1.1483679   -6.2164161    336.84691  0.039536022  0.040320229            5 
  711000    1.1256367   -6.2069298    339.00669  0.039733554  0.040310642            2 
  712000    1.1281435    -6.196322    338.71915  0.039644095  0.040300935            4 
  713000    1.1289775   -6.2135229    339.36566  0.039664055  0.040291441            5 
  714000    1.1262906   -6.2238568    339.16584  0.039585182  0.040282022            4 
  715000    1.1322232   -6.2048531    340.17331  0.039647239  0.040272834            6 
  716000    1.1307431   -6.2402449    340.39417  0.039617571   0.04026352            3 
  717000    1.1415961   -6.2181536    340.61003  0.039587404  0.040253616            4 
  718000    1.1273541   -6.2077153    341.73545  0.039662889  0.040243539            5 
  719000    1.1266237   -6.2153527    340.67474  0.039484787  0.040233528            3 
  720000    1.1338718   -6.2077355    340.03017  0.039355344  0.040222694            3 
  721000    1.1219905   -6.1828886    340.03045  0.039300792   0.04021187            5 
  722000    1.1363341   -6.2284614    340.50407  0.039301024  0.040200621            1 
  723000    1.1500063   -6.2445984     342.1421  0.039435466   0.04018934            4 
  724000    1.1301118   -6.2343087    341.80875  0.039342627  0.040178297            4 
  725000    1.1517672   -6.2428497     342.3672  0.039352552  0.040167475            2 
  726000    1.1577197   -6.2368043    342.36514  0.039298111  0.040156362            3 
  727000    1.1273388   -6.2056617    344.49777   0.03948851  0.040145379            5 
  728000    1.1108626    -6.189024    343.74764  0.039348402  0.040134677            2 
  729000    1.1336148   -6.2104094    344.07488  0.039331834  0.040123616            3 
  730000     1.147238   -6.1760307    345.35564   0.03942416  0.040112708            3 
  731000    1.1415045   -6.2054804     345.3528  0.039369904  0.040101801            2 
  732000    1.1442332   -6.2193989    345.52683  0.039335932  0.040090965            3 
  733000    1.1476099   -6.2068468     346.3477  0.039375591  0.040080182            5 
  734000    1.1140113   -6.2177495     345.2851  0.039201306  0.040069189            2 
  735000    1.1198488   -6.2215031    345.11572  0.039128767  0.040057847            4 
  736000    1.1415024   -6.2660828    345.21008  0.039086287  0.040046088            2 
  737000    1.1277706   -6.2337229     346.1744  0.039142289  0.040034006           13 
  738000    1.1302405    -6.212235    348.92662  0.039400025  0.040022323            2 
  739000    1.1558796   -6.2309807    346.73215   0.03909925  0.040010777            5 
  740000    1.1388043   -6.2445064    347.10411    0.0390883  0.039998938            8 
  741000    1.1224842   -6.1991877    346.69559  0.038989608  0.039986841            5 
  742000    1.1036604   -6.2046804    347.96353  0.039079462  0.039974797            3 
  743000    1.1193604   -6.2467109     348.1071  0.039042968  0.039962688            4 
  744000    1.1224028   -6.2284867    348.59759  0.039045429  0.039950901            3 
  745000    1.1633523   -6.2448714    349.57206   0.03910202  0.039939293            3 
  746000    1.1358039   -6.2150906    350.95677  0.039204287  0.039928336            7 
  747000    1.1222862   -6.2349666    350.76493  0.039130403  0.039917365            3 
  748000    1.1200318   -6.2415697    351.12503  0.039118208  0.039906409            3 
  749000     1.131971   -6.2308114    352.28105  0.039194599  0.039896031            6 
  750000    1.1642576   -6.2293612    352.72086  0.039191207  0.039885289            4 
  751000    1.1187526   -6.2330818    352.84196  0.039152459  0.039874358            5 
  752000    1.1462462   -6.1784027    353.06155  0.039124728    0.0398638            5 
  753000    1.1602775   -6.2448712    352.78714  0.039042402  0.039852854            4 
  754000    1.1128535   -6.2284334    352.91461  0.039004709  0.039841974            2 
  755000    1.1239092   -6.2706748    353.28568  0.038994004  0.039831072            6 
  756000    1.1410747   -6.2297605    354.56238  0.039083155  0.039820043            3 
  757000      1.13522   -6.2020595    355.39322  0.039122988  0.039808978            6 
  758000    1.1094501   -6.2055324    354.87537  0.039014443  0.039797841            3 
  759000     1.129169   -6.2200643    355.35023  0.039015176  0.039786715            3 
  760000    1.1190729   -6.2417861    356.46831  0.039086437  0.039775509            3 
  761000    1.1307759   -6.2268396    356.46662  0.039034891  0.039764435            7 
  762000    1.1254953    -6.214673    356.59716  0.038997939  0.039753248            3 
  763000      1.11845   -6.2260208    356.15456  0.038898488  0.039742361            4 
  764000    1.1606091   -6.2205999    357.03267  0.038943354  0.039731301            6 
  765000    1.1135876   -6.2662232    357.18461  0.038908999  0.039720014            3 
  766000    1.1196302   -6.2473138    356.80268  0.038816654  0.039708616            3 
  767000    1.1687053   -6.2204102    359.37341   0.03904535  0.039697579            3 
  768000      1.10798   -6.2167815    358.96664  0.038950373  0.039686754            2 
  769000    1.1307143   -6.1988251    360.49451  0.039065291  0.039675653            3 
  770000    1.1560839    -6.228771     359.6881  0.038927284  0.039664656            5 
  771000    1.1242502    -6.222648    360.56029  0.038971065  0.039653656            4 
  772000    1.1211108    -6.229143    361.10351  0.038979222  0.039642874            5 
  773000    1.1391214   -6.2124247    360.39974  0.038852925  0.039631993            5 
  774000    1.1135608   -6.2495155    360.64529  0.038829165  0.039620859            2 
  775000    1.1176521   -6.2412733    360.96343  0.038813272  0.039610093            5 
  776000    1.1378477   -6.2285245    361.71426  0.038843886  0.039599087            4 
  777000    1.1289275   -6.2338704    362.63443  0.038892581  0.039587975            2 
  778000    1.1407686   -6.2341823    362.35685  0.038812859  0.039577002            2 
  779000    1.1497526   -6.1843361    364.46468   0.03898852  0.039565947            3 
  780000    1.1246882   -6.2357147    363.28808  0.038812829   0.03955531            6 
  781000    1.1160224   -6.2221882    363.64417  0.038801128  0.039544533           11 
  782000    1.1240734   -6.2285518    364.65058  0.038858757  0.039533817            2 
  783000    1.1578211   -6.2172495    365.52621  0.038902321  0.039523547            3 
  784000    1.1306239   -6.2509138    366.09932  0.038913619  0.039513038            3 
  785000    1.1420459   -6.2662252    365.19074  0.038767595  0.039502585            4 
  786000     1.124765    -6.202329    366.50587  0.038857704  0.039491862            6 
  787000    1.1440721   -6.2707207    366.86089  0.038845923  0.039481086            7 
  788000     1.114389   -6.2305948    367.14347  0.038826509   0.03947051            4 
  789000    1.0990393    -6.245883    366.41843  0.038700721  0.039459827            2 
  790000    1.1330334   -6.2587329    367.21393  0.038735647  0.039448805            3 
  791000    1.1420525   -6.2451362    367.62324  0.038729798  0.039438089            3 
  792000    1.1205248   -6.2177295    368.89302  0.038814501  0.039426977            4 
  793000    1.1349373    -6.210524    368.37025  0.038710619  0.039415778            2 
  794000    1.1276681   -6.2175799    370.33454  0.038868024  0.039405065            2 
  795000     1.131108   -6.2289017    368.86386  0.038664974   0.03939445            3 
  796000    1.1189663    -6.239944    370.23629  0.038760081  0.039384054            2 
  797000    1.1391568   -6.2199316    369.57684  0.038642497  0.039373223            3 
  798000    1.1416133   -6.2104054    369.58279  0.038594694  0.039362212            4 
  799000    1.1253874   -6.2098564    371.66329   0.03876338  0.039351333            2 
  800000    1.1400616   -6.2517566    370.45476  0.038589037   0.03934016            2 
  801000    1.0950006   -6.2272756    371.48553  0.038648099  0.039328978            4 
  802000    1.1350613   -6.2361331    371.46769  0.038598056  0.039317887            2 
  803000    1.1080284     -6.21326    372.31117  0.038637523  0.039307004           10 
  804000    1.1163346   -6.2104033    372.46194  0.038605093  0.039296338            7 
  805000    1.1225363   -6.2325414    372.68902  0.038580643  0.039285676            4 
  806000    1.1172339   -6.2322679    373.32328  0.038598354  0.039274989            3 
  807000    1.1399431   -6.2479877    373.85396  0.038605324  0.039264547            4 
  808000    1.1291116   -6.2579257    375.05239  0.038681146   0.03925428            3 
[...]
 4800000   0.48391948   -7.6906813    836.25395  0.014518298   0.01294738         2832 
 4801000   0.50531232   -7.6751406    838.09112  0.014547162   0.01294317         2871 
 4802000    0.4829836   -7.6696535    836.29844  0.014513023  0.012938965         2898 
 4803000   0.48745947   -7.6777207     837.5844  0.014532313  0.012934759         2877 
 4804000   0.49029183   -7.6779459    835.71199  0.014496808  0.012930555         2916 
 4805000   0.46902125   -7.6896987    837.02526  0.014516567  0.012926354         2908 
 4806000   0.47798616   -7.6662408    836.88249  0.014511071  0.012922156         2890 
 4807000   0.47568143   -7.6829284    836.87837  0.014507981  0.012917956         2897 
 4808000   0.48796944   -7.6530329    837.77856  0.014520566  0.012913761         2906 
 4809000    0.4745545   -7.6794007    836.65273  0.014498037  0.012909564         2900 
 4810000   0.48142767   -7.6837455    836.78526  0.014497319  0.012905371         2884 
 4811000   0.47825795   -7.6720839    837.17612  0.014501076  0.012901181         2873 
 4812000   0.48652408   -7.6836234    835.61487  0.014471025  0.012896989         2880 
 4813000   0.47166241   -7.6726309    836.65128  0.014485963  0.012892797         2894 
 4814000   0.48890753   -7.6733577    837.41689  0.014496207  0.012888608         2890 
 4815000   0.48182856   -7.6688612    835.40222  0.014458328  0.012884423         2903 
 4816000   0.49295218   -7.6902269    837.44994  0.014490759  0.012880235         2883 
 4817000   0.47844109   -7.6768417    836.45767  0.014470584   0.01287605         2928 
 4818000   0.48641045   -7.6752954    836.12353  0.014461802  0.012871865         2897 
 4819000   0.49726615    -7.692536    837.21675  0.014477705  0.012867686         2903 
 4820000   0.48477837   -7.6677731    835.90239  0.014451978  0.012863503         2902 
 4821000   0.48466235   -7.6942366    837.79688  0.014481727  0.012859325         2927 
 4822000   0.48111814    -7.686494    837.69216  0.014476914  0.012855148         2892 
 4823000   0.48107949    -7.684418     838.2661  0.014483829  0.012850974         2896 
 4824000   0.47682747   -7.6826437    836.91609  0.014457506  0.012846801         2899 
 4825000   0.48054427   -7.6778706    837.35047  0.014462012  0.012842627         2920 
 4826000   0.47902729   -7.6928117    836.52573  0.014444774  0.012838454         2907 
 4827000   0.47746821   -7.6863809     837.7058  0.014462154  0.012834286         2938 
 4828000   0.48122974   -7.6852921    836.87023  0.014444736  0.012830115         2872 
 4829000   0.48372237   -7.6795991    838.24158   0.01446541  0.012825951         2934 
 4830000   0.47695963   -7.6545226     836.1034  0.014425524  0.012821786         2889 
 4831000   0.48235826   -7.6802371    836.83482  0.014435155  0.012817624         2916 
 4832000    0.4725843   -7.6942326    835.46239  0.014408499  0.012813463         2888 
 4833000   0.47676114   -7.6787438    837.46649  0.014440073  0.012809306         2904 
 4834000   0.46976975   -7.6807539     834.9634  0.014393935  0.012805148         2915 
 4835000    0.4833376   -7.6737154    836.33783  0.014414647  0.012800993         2927 
 4836000   0.47264433   -7.6802942    837.14926  0.014425649  0.012796842         2899 
 4837000   0.47870153   -7.6764216    836.55193  0.014412376   0.01279269         2860 
 4838000   0.47728672   -7.6690684    836.73456  0.014412542  0.012788541         2886 
 4839000   0.48779183   -7.6631117    836.52514  0.014405957  0.012784395         2870 
 4840000   0.46530713    -7.670317    836.17955  0.014397031  0.012780249         2857 
 4841000   0.48713072   -7.6861634    836.36354  0.014397224   0.01277611         2885 
 4842000   0.47103313   -7.6985493    836.02512  0.014388426  0.012771966         2881 
 4843000   0.48045629   -7.6736158    836.42025  0.014392254  0.012767823         2916 
 4844000   0.48138909   -7.6911422    836.25803  0.014386492  0.012763683         2871 
 4845000   0.48096361    -7.689235    837.81619  0.014410323  0.012759545         2865 
 4846000   0.47883549   -7.6831804    836.37238  0.014382521  0.012755409         2867 
 4847000   0.48110592   -7.6738296    835.82761  0.014370188  0.012751273         2895 
 4848000   0.48129469   -7.6871665    837.54259  0.014396703  0.012747143         2857 
 4849000   0.47040639   -7.6903032    837.31383  0.014389803  0.012743015         2889 
 4850000   0.46914578   -7.6857964    836.76863  0.014377468  0.012738888         2899 
 4851000   0.47816522   -7.6913337    836.02931  0.014361804  0.012734759         2859 
 4852000   0.48028522   -7.6880272    836.39316  0.014365093  0.012730631         2882 
 4853000   0.48162617   -7.6832009    835.71049   0.01435041  0.012726505         2911 
 4854000   0.48484316   -7.6710429    836.74324  0.014365184  0.012722386         2904 
 4855000   0.47614398   -7.6888884    836.46373  0.014357428  0.012718265         2912 
 4856000   0.47310249   -7.6886617    835.77035  0.014342572  0.012714146         2885 
 4857000   0.47071657   -7.6992875    837.21177   0.01436435  0.012710031         2896 
 4858000   0.47721716   -7.6936571    836.74387  0.014353367  0.012705914         2915 
 4859000   0.47783582    -7.680757    836.22597  0.014341531  0.012701795         2860 
 4860000   0.47841785   -7.6891598    836.82288  0.014348815  0.012697682         2909 
 4861000   0.47313878   -7.6948392    836.20959  0.014335349   0.01269357         2904 
 4862000   0.47438919   -7.6873269    834.66554  0.014305936   0.01268946         2902 
 4863000   0.48064283   -7.6776211     835.8987  0.014324126  0.012685353         2919 
 4864000   0.48007033   -7.6744977    835.91907   0.01432153  0.012681247         2912 
 4865000    0.4620855   -7.6898043    835.65876  0.014314127   0.01267714         2927 
 4866000   0.47434992   -7.6782453    836.35731  0.014323149  0.012673038         2928 
 4867000    0.4766003   -7.6889882    836.81608  0.014328061  0.012668936         2922 
 4868000   0.47200332    -7.676937    835.86766  0.014308882  0.012664832         2883 
 4869000   0.47615891   -7.6801961    835.69421  0.014302975  0.012660734         2909 
 4870000   0.45984175   -7.6831361     836.6095    0.0143157  0.012656638         2928 
 4871000   0.46998036    -7.697528     836.3758  0.014308763  0.012652545         2935 
 4872000   0.46656623   -7.6990013    836.70587  0.014311472  0.012648453         2878 
 4873000   0.47551866   -7.6871528    836.36621  0.014302726   0.01264436         2904 
 4874000   0.47575768   -7.6925704    837.06928  0.014311812   0.01264027         2944 
 4875000   0.46791727   -7.6815105    837.08931  0.014309219  0.012636181         2914 
 4876000    0.4675793   -7.6835645    835.08008  0.014271946  0.012632092         2916 
 4877000   0.46677982   -7.6852965    836.05313  0.014285646  0.012628008         2899 
 4878000   0.46763195   -7.6965862    837.37494  0.014305298  0.012623925         2907 
 4879000   0.48159023   -7.6853195    835.51896  0.014270666  0.012619839         2926 
 4880000   0.47034883   -7.6834961    836.20435  0.014279446  0.012615758         2916 
 4881000   0.47144193   -7.7020788    836.09184  0.014274599   0.01261168         2907 
 4882000   0.46765792   -7.6902574    834.76431  0.014249015  0.012607604         2879 
 4883000   0.46825646   -7.6853876    835.59494  0.014260273  0.012603526         2862 
 4884000   0.46689515   -7.6961475    836.65888  0.014275506   0.01259945         2899 
 4885000   0.46522378   -7.6780405    835.86769  0.014259087  0.012595375         2918 
 4886000   0.47588308   -7.6892688     836.4004  0.014265255  0.012591305         2918 
 4887000   0.47088992   -7.6889333    835.70287  0.014250441  0.012587236         2901 
 4888000   0.45722378   -7.6892684    836.21317  0.014256226  0.012583166         2906 
 4889000   0.47712592    -7.674911    836.02169  0.014250046  0.012579101         2878 
 4890000   0.46997827   -7.6828475    835.65884  0.014240948  0.012575038         2894 
 4891000   0.46966715   -7.6836314     837.9186  0.014276539  0.012570975         2859 
 4892000   0.46568019   -7.6959391    836.91717  0.014256561  0.012566915         2917 
 4893000   0.48216212   -7.6909121    836.91669  0.014253639  0.012562854         2903 
 4894000   0.47218041   -7.6864472    835.93263  0.014233971  0.012558796         2921 
 4895000   0.46731118   -7.6958103    836.42944  0.014239521  0.012554741         2904 
 4896000   0.46826705   -7.6996718    836.25597   0.01423366  0.012550684         2899 
 4897000     0.464166   -7.6891997    836.12449  0.014228516  0.012546629         2930 
 4898000   0.47225366   -7.7013454    836.01954  0.014223825  0.012542576         2905 
 4899000   0.46470673   -7.6881116     835.8767  0.014218492  0.012538524         2896 
 4900000   0.46441654    -7.697698    835.82103  0.014214643  0.012534472         2900 
 4901000   0.46796255    -7.683485    836.05944  0.014215797  0.012530425         2888 
 4902000   0.47370351   -7.7050635    835.94608   0.01421097  0.012526378         2913 
 4903000   0.47262049   -7.7035947    835.19973  0.014195386  0.012522333         2949 
 4904000   0.46710689   -7.6842849    836.01431  0.014206333  0.012518287         2882 
 4905000   0.46176003   -7.6906707    836.99446  0.014220089  0.012514245         2895 
 4906000   0.45585679   -7.6931764    836.84527  0.014214657  0.012510205         2885 
 4907000   0.47287222   -7.7009069    835.30307  0.014185569  0.012506166         2883 
 4908000   0.46235718   -7.7069149    837.41351  0.014218512  0.012502133         2884 
 4909000   0.47134041   -7.6942398    836.17036  0.014194513  0.012498096         2881 
 4910000   0.46518959   -7.7077227    834.45369  0.014162486  0.012494062         2849 
 4911000     0.462638   -7.6907671    835.95378  0.014185057  0.012490031         2918 
 4912000   0.46379104   -7.7068233    835.93427  0.014181838  0.012486001         2885 
 4913000   0.46000283   -7.7042041    836.70505  0.014192025  0.012481973         2868 
 4914000   0.46579017   -7.6905643     834.3971  0.014149998  0.012477945         2886 
 4915000   0.46392406   -7.6994148    835.82122  0.014171265  0.012473919         2937 
 4916000   0.47986873    -7.688766    834.70863  0.014149522  0.012469895         2903 
 4917000   0.46830139   -7.6938148    834.59394  0.014144701  0.012465873         2889 
 4918000   0.47886888    -7.714834    835.30543  0.014153881  0.012461854         2943 
 4919000   0.47136472   -7.6948942    835.91896  0.014161397  0.012457833         2880 
 4920000    0.4624672    -7.699477    835.67115  0.014154322  0.012453818         2863 
 4921000   0.46583095    -7.709878    835.52002  0.014148886    0.0124498         2882 
 4922000   0.46508201   -7.6991728    834.54395  0.014129486  0.012445785         2917 
 4923000   0.45957201   -7.6995227    835.23245   0.01413827  0.012441773         2903 
 4924000   0.46863501   -7.6975379     834.5256  0.014123436  0.012437763         2852 
 4925000   0.45987997   -7.7017461    835.25232  0.014132865  0.012433751         2890 
 4926000    0.4620941   -7.6967965    835.05016  0.014126576  0.012429744         2885 
 4927000   0.46335603   -7.6932756    834.69875  0.014117765  0.012425736         2908 
 4928000   0.46009362   -7.6996527    834.50818  0.014111678   0.01242173         2901 
 4929000   0.45724846   -7.6879623    834.89724  0.014115393  0.012417727         2880 
 4930000   0.46881851   -7.7182605    836.75777  0.014143979  0.012413725         2903 
 4931000   0.45813764   -7.7000509    834.63247  0.014105193  0.012409723         2891 
 4932000   0.45013829   -7.6994902    835.19451  0.014111829  0.012405728         2888 
 4933000   0.45683117   -7.6941402    836.01086  0.014122759   0.01240173         2878 
 4934000   0.46573899   -7.7078721    835.01561  0.014103088  0.012397733         2927 
 4935000   0.45940851   -7.7036732    835.05205  0.014100845  0.012393737         2904 
 4936000   0.46415219   -7.7303394    835.64426  0.014107986  0.012389749         2918 
 4937000   0.46482065   -7.7000989    834.99536  0.014094176  0.012385754         2878 
 4938000   0.46158937   -7.7076379    836.51488  0.014116965  0.012381766         2913 
 4939000   0.46099619   -7.7122347    835.79722  0.014101998  0.012377779         2933 
 4940000   0.46609358   -7.7114822    836.11768  0.014104549  0.012373793         2880 
 4941000    0.4536782   -7.7123776    834.70696  0.014077902  0.012369805         2892 
 4942000    0.4564805   -7.7078048    835.02097  0.014080348  0.012365821         2888 
 4943000    0.4592914   -7.6893705    834.12604  0.014062412  0.012361837         2914 
 4944000   0.46098186   -7.7028224    834.83577  0.014071531  0.012357858         2905 
 4945000   0.45458004   -7.7005109    835.01579  0.014071719   0.01235388         2897 
 4946000   0.45419841   -7.7141758    835.31614  0.014073934  0.012349906         2915 
 4947000   0.46785869   -7.7112294    834.69181  0.014060572   0.01234593         2901 
 4948000   0.46134885   -7.7106846    837.21727  0.014100264  0.012341959         2893 
 4949000   0.46254752   -7.7081895    836.53734  0.014085966  0.012337985         2918 
 4950000   0.45690096   -7.7151865    836.09488  0.014075671  0.012334015         2938 
 4951000    0.4617335    -7.704561    834.82557  0.014051464  0.012330049         2865 
 4952000   0.46806088   -7.7069575    835.75172  0.014064212  0.012326081         2868 
 4953000   0.46537894   -7.7207389    836.03059  0.014066064  0.012322114         2930 
 4954000   0.46517977    -7.718831    835.16526  0.014048669  0.012318151         2903 
 4955000    0.4567286   -7.7193416    836.40879  0.014066747  0.012314189         2893 
 4956000   0.45434912   -7.7076766    835.13226  0.014042445  0.012310225         2888 
 4957000   0.45909223   -7.7233794    835.72089  0.014049507  0.012306268         2884 
 4958000   0.44818233   -7.7150683    834.83214  0.014031736  0.012302311         2900 
 4959000   0.46934342   -7.7025736    835.15269  0.014034293  0.012298353         2929 
 4960000   0.45822248   -7.7083541    835.73275  0.014041209  0.012294403         2931 
 4961000   0.46271131   -7.7112593    835.65395  0.014037055  0.012290449         2867 
 4962000   0.46422333   -7.7036313    835.00301  0.014023294  0.012286497         2897 
 4963000   0.44963915   -7.7017359    835.26759  0.014024911  0.012282546         2877 
 4964000   0.45487565   -7.7165938    835.64116  0.014028357    0.0122786         2925 
 4965000   0.45819667    -7.715492    834.10495  0.013999747  0.012274652         2907 
 4966000   0.46641562   -7.7091841    835.54031  0.014021015  0.012270709         2855 
 4967000   0.45175679   -7.7005158    835.43314  0.014016394  0.012266769         2896 
 4968000   0.45759571   -7.7064119    835.29842  0.014011313   0.01226283         2932 
 4969000   0.44986564   -7.7179886    836.54431  0.014029387   0.01225889         2928 
 4970000      0.45316   -7.7092043    835.43043  0.014007888  0.012254953         2910 
 4971000   0.44899513   -7.6998558     835.0464  0.013998632  0.012251019         2894 
 4972000   0.45484651   -7.7015733    834.74623  0.013990786  0.012247084         2906 
 4973000   0.46070379   -7.7131896    836.13958  0.014011321  0.012243152         2933 
 4974000   0.45021476   -7.7102387    834.87142  0.013987257  0.012239221         2895 
 4975000   0.45784552   -7.7067769     833.9448  0.013968925  0.012235292         2902 
 4976000   0.44669479     -7.70216    835.09946  0.013985455   0.01223136         2882 
 4977000   0.45746591   -7.7135252    834.68113   0.01397564  0.012227436         2917 
 4978000   0.45089495   -7.7207669    836.44226  0.014002314   0.01222351         2885 
 4979000   0.44905654   -7.7113677    835.89133  0.013990281  0.012219586         2931 
 4980000   0.45131038   -7.7156294    833.60997  0.013949297   0.01221566         2876 
 4981000   0.45518084   -7.7225296    834.16069   0.01395571  0.012211737         2881 
 4982000   0.46107992   -7.7077605    835.24095  0.013970978  0.012207815         2911 
 4983000   0.46353752   -7.7109531    834.89118  0.013962325  0.012203895         2942 
 4984000    0.4597227   -7.7187133    835.74679  0.013973829  0.012199977         2922 
 4985000     0.447508   -7.7054575    834.79571  0.013955127  0.012196064         2939 
 4986000   0.45010208   -7.7149303    834.62809  0.013949527   0.01219215         2904 
 4987000   0.46345292   -7.7234887    834.74132  0.013948622  0.012188236         2910 
 4988000   0.45528061   -7.7280838    833.52318  0.013925474  0.012184324         2958 
 4989000   0.44988049   -7.7129139    834.05899  0.013931633  0.012180414         2913 
 4990000   0.44740725    -7.724719    834.49776  0.013936168  0.012176504         2909 
 4991000   0.45630086   -7.7162511    835.13591  0.013944031  0.012172599         2885 
 4992000   0.45595789   -7.7036397    834.70969  0.013934123  0.012168694         2937 
 4993000    0.4469847   -7.6938565    835.06677  0.013937292  0.012164792         2912 
 4994000   0.44987865   -7.7234663    834.58278  0.013926425  0.012160891         2909 
 4995000   0.44854036   -7.7167533    834.95435  0.013929836   0.01215699         2929 
 4996000   0.44993831   -7.7213847    833.97462  0.013910706  0.012153093         2927 
 4997000   0.45118752   -7.7174686    835.02985  0.013925519  0.012149197         2903 
 4998000   0.45608306    -7.713399    834.91731  0.013920857  0.012145303         2928 
 4999000   0.45147595   -7.7146962    835.11218  0.013921321  0.012141408         2915 
 5000000   0.44424923   -7.7237446    836.02743   0.01393379  0.012137517         2897 
 5001000   0.45138297   -7.7174238    835.49999  0.013922215  0.012133625         2930 
 5002000   0.44787587    -7.707128    835.89904   0.01392608  0.012129736         2938 
 5003000   0.45825046   -7.7232531    834.87682   0.01390627  0.012125851         2919 
 5004000   0.44601001   -7.7051159     834.7912  0.013902065  0.012121968         2898 
 5005000   0.45092489   -7.7026646    834.76698  0.013898884  0.012118083         2868 
 5006000   0.44795618   -7.7200199    835.35044   0.01390582  0.012114201         2920 
 5007000    0.4488988   -7.7096693    835.41305  0.013904085  0.012110322         2872 
 5008000   0.46380859   -7.6922986    835.15275  0.013896977  0.012106446         2924 
 5009000   0.44576708    -7.714772    836.16107  0.013910978  0.012102571         2943 
 5010000   0.45158594   -7.7248394    834.80151  0.013885587    0.0120987         2941 
 5011000   0.45376761   -7.7081714    834.27301  0.013874027  0.012094825         2886 
 5012000   0.44115083   -7.7200912    833.89088  0.013864906  0.012090952         2943 
Loop time of 10842.6 on 48 procs for 5000000 steps with 4000 atoms

Performance: 79685.477 tau/day, 461.143 timesteps/s
99.4% CPU use with 48 MPI tasks x no OpenMP threads

MPI task timing breakdown:
Section |  min time  |  avg time  |  max time  |%varavg| %total
---------------------------------------------------------------
Pair    | 702.71     | 739.42     | 763.44     |  42.5 |  6.82
Neigh   | 66.693     | 67.863     | 70.335     |   7.2 |  0.63
Comm    | 595.16     | 619.31     | 674.05     |  73.5 |  5.71
Output  | 15.068     | 15.072     | 15.154     |   0.3 |  0.14
Modify  | 9224.7     | 9274.6     | 9315.3     |  25.9 | 85.54
Other   |            | 126.3      |            |       |  1.17

Nlocal:        83.3333 ave          93 max          75 min
Histogram: 1 2 6 9 8 11 8 2 0 1
Nghost:        1778.29 ave        1796 max        1765 min
Histogram: 6 4 6 8 6 6 6 0 3 3
Neighs:        10810.4 ave       12128 max        9641 min
Histogram: 1 3 3 9 13 7 5 6 0 1
FullNghs:      21621.5 ave       24728 max       19123 min
Histogram: 1 2 3 13 11 10 6 1 0 1

Total # of neighbors = 1037830
Ave neighs/atom = 259.45750
Neighbor list builds = 269848
Dangerous builds = 0

#clear
#
#next RN
#
#jump SELF
Total wall time: 3:00:45
