
units lj                  # Use reduced LJ style units
atom_style atomic         # Uncharged point particles
atom_modify map hash      # Needed for indexing of clusters etc
                          # Used to be able to find where atoms are in relation to each other.

# Define a lattice with which to populate the simulation cell. With units
# set to 'lj' the second argument to the lattice command is the reduced
# density rho* and the spacings are multiples of that required to acheive
# that density. Also define a simulation cell called 'box' in lattice units
# and fill it with atoms. Here we're creating a box which is ten lattice
# constants in each direction.
lattice fcc 1.0 spacing 1 1 1                 # All equal sizes - gives the right reduced density.
Lattice spacing in x,y,z = 1.5874011 1.5874011 1.5874011

region box block 0 10 0 10 0 10 units lattice # Defines a region, "box", in lattice units
create_box 1 box                              # Creates a simulation box as specified above,
Created orthogonal box = (0.0000000 0.0000000 0.0000000) to (15.874011 15.874011 15.874011)
  3 by 4 by 4 MPI processor grid
                                              # with one type of atom
create_atoms 1 box                            # Creates particles on lattice points
Created 4000 atoms
  using lattice units in orthogonal box = (0.0000000 0.0000000 0.0000000) to (15.874011 15.874011 15.874011)
  create_atoms CPU = 0.002 seconds


# Set the mass of the first (and only) atom type.
mass 1 1.0

# Lennard-Jones interactions between particles, 3.5 sigma cut-off. Apply
# long range tail corrections to energy and pressure and set all coefficients
# to unity since we work in reduced units here. Note that this doesn't shift
# the potential such that it goes to zero at the cutoff. That would require
# pair_modify('shift', 'yes').
pair_style lj/cut  3.5      # non-GPU version
pair_modify tail  yes
pair_coeff 1  1  1.0  1.0   # Intearaction between 1 and 1 set with epsilon = 1 and sigma = 1

write_data data.*
System init for write_data ...
Neighbor list info ...
  update every 1 steps, delay 10 steps, check yes
  max neighbors/atom: 2000, page size: 100000
  master list distance cutoff = 3.8
  ghost atom cutoff = 3.8
  binsize = 1.9, bins = 9 9 9
  1 neighbor lists, perpetual/occasional/extra = 1 0 0
  (1) pair lj/cut, perpetual
      attributes: half, newton on
      pair build: half/bin/atomonly/newton
      stencil: half/bin/3d
      bin: standard

#############################
#   M E L T   S Y S T E M   #
#############################

velocity all create 2.4 5833274 mom yes dist gaussian # Assign velocities
                                                    # Temperature 2.4, random number seed, zero linear momentum
						                                                        # Gaussian distribution

timestep 0.002   # simulation timestep
thermo 1000       # output thermodynamic data every 1000 steps

# Define a fix  in this case with index 1 applied to all
# particles in the simulation. This fix is for simulations
# in the anisotropic NPT ensemble. Note that we use the MTK
# correction.
fix 1 all npt temp 2.4 2.4 0.1 iso 5.68 5.68 0.5 mtk yes tchain 5 pchain 5 # Use NPT ensemble
                                                                         # Set temperature and pressure and damping
                                                                         # Numbers of thermostats in chain and in barostat
run 1000         # run for 10000 steps
Per MPI rank memory allocation (min/avg/max) = 3.642 | 3.644 | 3.648 Mbytes
Step Temp E_pair E_mol TotEng Press Volume 
       0          2.4   -8.3859253            0   -4.7868253   -2.2405722         4000 
    1000    2.3797751   -4.4966384            0  -0.92786813    5.4591985    5168.8144 
Loop time of 0.225715 on 48 procs for 1000 steps with 4000 atoms

Performance: 765568.687 tau/day, 4430.374 timesteps/s
99.5% CPU use with 48 MPI tasks x no OpenMP threads

MPI task timing breakdown:
Section |  min time  |  avg time  |  max time  |%varavg| %total
---------------------------------------------------------------
Pair    | 0.090627   | 0.10066    | 0.11925    |   1.6 | 44.60
Neigh   | 0.017312   | 0.018861   | 0.022665   |   0.6 |  8.36
Comm    | 0.06378    | 0.079357   | 0.096927   |   2.5 | 35.16
Output  | 2.4414e-05 | 2.6011e-05 | 3.3774e-05 |   0.0 |  0.01
Modify  | 0.018276   | 0.025256   | 0.033272   |   2.8 | 11.19
Other   |            | 0.001553   |            |       |  0.69

Nlocal:        83.3333 ave          95 max          76 min
Histogram: 5 3 8 10 11 3 4 3 0 1
Nghost:        1390.04 ave        1421 max        1371 min
Histogram: 5 8 6 7 8 4 4 3 1 2
Neighs:        7371.42 ave        8414 max        6707 min
Histogram: 8 7 3 4 13 5 4 1 0 3

Total # of neighbors = 353828
Ave neighs/atom = 88.457000
Neighbor list builds = 87
Dangerous builds = 16

# Equilibrate just above the melting temperature to avoid step fn in T

fix 1 all npt temp 1.25 1.25 0.1 iso 5.68 5.68 0.5 mtk yes tchain 5 pchain 5
run 1000
Per MPI rank memory allocation (min/avg/max) = 3.642 | 3.644 | 3.648 Mbytes
Step Temp E_pair E_mol TotEng Press Volume 
    1000    2.3797751   -4.4966384            0  -0.92786813    5.4591985    5168.8144 
    2000    1.2516439   -5.8169213            0   -3.9399248    5.7560827    4346.0008 
Loop time of 0.212949 on 48 procs for 1000 steps with 4000 atoms

Performance: 811463.574 tau/day, 4695.970 timesteps/s
99.6% CPU use with 48 MPI tasks x no OpenMP threads

MPI task timing breakdown:
Section |  min time  |  avg time  |  max time  |%varavg| %total
---------------------------------------------------------------
Pair    | 0.094316   | 0.099609   | 0.10546    |   0.8 | 46.78
Neigh   | 0.015455   | 0.016061   | 0.016713   |   0.2 |  7.54
Comm    | 0.067124   | 0.073122   | 0.079497   |   1.1 | 34.34
Output  | 2.4665e-05 | 2.5277e-05 | 3.1595e-05 |   0.0 |  0.01
Modify  | 0.020074   | 0.022136   | 0.024546   |   0.9 | 10.40
Other   |            | 0.001995   |            |       |  0.94

Nlocal:        83.3333 ave          89 max          74 min
Histogram: 1 1 1 3 8 4 13 5 8 4
Nghost:        1549.94 ave        1572 max        1533 min
Histogram: 3 3 10 7 6 10 5 1 1 2
Neighs:        8760.96 ave        9501 max        7906 min
Histogram: 1 3 6 6 7 6 6 5 3 5

Total # of neighbors = 420526
Ave neighs/atom = 105.13150
Neighbor list builds = 74
Dangerous builds = 4


# Small amount of linear quench

fix 1 all npt temp 1.25 ${temp} 0.1 iso 5.68 5.68 0.5 mtk yes tchain 5 pchain 5
fix 1 all npt temp 1.25 1 0.1 iso 5.68 5.68 0.5 mtk yes tchain 5 pchain 5
run 2000
Per MPI rank memory allocation (min/avg/max) = 3.643 | 3.645 | 3.648 Mbytes
Step Temp E_pair E_mol TotEng Press Volume 
    2000    1.2516439   -5.8169213            0   -3.9399248    5.7560827    4346.0008 
    3000    1.1346326   -6.0296451            0   -4.3281216    5.5981788    4264.0149 
    4000     1.013921    -6.221558            0   -4.7010567    5.9111944    4154.4591 
Loop time of 0.439587 on 48 procs for 2000 steps with 4000 atoms

Performance: 786192.651 tau/day, 4549.726 timesteps/s
99.7% CPU use with 48 MPI tasks x no OpenMP threads

MPI task timing breakdown:
Section |  min time  |  avg time  |  max time  |%varavg| %total
---------------------------------------------------------------
Pair    | 0.20257    | 0.21303    | 0.22608    |   1.1 | 48.46
Neigh   | 0.027601   | 0.02841    | 0.029181   |   0.2 |  6.46
Comm    | 0.13762    | 0.1491     | 0.16061    |   1.4 | 33.92
Output  | 4.5627e-05 | 4.6896e-05 | 5.9701e-05 |   0.0 |  0.01
Modify  | 0.039752   | 0.044275   | 0.049075   |   1.2 | 10.07
Other   |            | 0.004725   |            |       |  1.07

Nlocal:        83.3333 ave          90 max          77 min
Histogram: 3 5 1 8 8 8 7 3 2 3
Nghost:        1599.35 ave        1620 max        1578 min
Histogram: 2 3 2 3 10 14 7 4 0 3
Neighs:        9165.02 ave        9985 max        8243 min
Histogram: 2 2 4 3 10 11 7 3 3 3

Total # of neighbors = 439921
Ave neighs/atom = 109.98025
Neighbor list builds = 126
Dangerous builds = 0

#############################
# F R E E Z E  S Y S T E M  #
#############################

# Define solid atoms. This closely follows ten Wolde  Ruiz-Montero and Frenkel  Faraday Discuss  1996  104  93-110
# Compute components of the per-atom q6 vector
compute q6 all orientorder/atom degrees 1 6 components 6 nnn NULL cutoff 1.3 # compute the Q6 parameter.
                                                                             # Use all neighbours within 1.3 unit cell.

# get number of connections
compute coord_number all coord/atom orientorder q6 0.5

# An atom is solid if it has 8 or more connections (of a possible 14)
variable is_solid atom c_coord_number>=8
group solid dynamic all var is_solid    # Must be dynamic to update
dynamic group solid defined

# do clustering
compute cluster solid cluster/atom 1.3 # Create a cluster where all atoms within are solid and max 1.3 units from another member

# define chunks one chunk per cluster
compute clus_chunks solid chunk/atom c_cluster nchunk every compress yes  # Says which atoms are in which chunk

# count the size of each chunk
compute size_chunks solid property/chunk clus_chunks count


# Find the maximum entry in the vector of chunk sizes
variable max_n equal max(c_size_chunks)


# Thermo style which includes this variable
thermo_style custom step temp pe vol v_max_n

thermo ${N}  # Print the thermo information every 100 steps
thermo 1000  

# Reset the npt fix at a lower temperature (below freezing)
fix 1  all npt temp  ${temp} ${temp}  0.1  iso  5.68  5.68  0.5  mtk yes tchain  5  pchain  5
fix 1  all npt temp  1 ${temp}  0.1  iso  5.68  5.68  0.5  mtk yes tchain  5  pchain  5
fix 1  all npt temp  1 1  0.1  iso  5.68  5.68  0.5  mtk yes tchain  5  pchain  5

dump dmp2 all dcd ${N} traj_${rand}.dcd
dump dmp2 all dcd 1000 traj_${rand}.dcd
dump dmp2 all dcd 1000 traj_462431.dcd


# fix rnuntil all halt ${N} v_max_n >= 3980 error soft message no   # Stop when solidified


run 1000000 # 5000000  # Run for this many steps
Neighbor list info ...
  update every 1 steps, delay 10 steps, check yes
  max neighbors/atom: 2000, page size: 100000
  master list distance cutoff = 3.8
  ghost atom cutoff = 3.8
  binsize = 1.9, bins = 9 9 9
  4 neighbor lists, perpetual/occasional/extra = 1 3 0
  (1) pair lj/cut, perpetual
      attributes: half, newton on
      pair build: half/bin/atomonly/newton
      stencil: half/bin/3d
      bin: standard
  (2) compute orientorder/atom, occasional
      attributes: full, newton on
      pair build: full/bin/atomonly
      stencil: full/bin/3d
      bin: standard
  (3) compute coord/atom, occasional
      attributes: full, newton on
      pair build: full/bin/atomonly
      stencil: full/bin/3d
      bin: standard
  (4) compute cluster/atom, occasional
      attributes: full, newton on
      pair build: full/bin/atomonly
      stencil: full/bin/3d
      bin: standard
Per MPI rank memory allocation (min/avg/max) = 9.364 | 9.369 | 9.373 Mbytes
Step Temp PotEng Volume v_max_n 
    4000     1.013921    -6.221558    4154.4591            5 
    5000    1.0040674   -6.2366229    4163.5677            7 
    6000   0.99247813   -6.2525496    4168.2146            8 
    7000   0.99627078   -6.2732733    4154.2093           14 
    8000    1.0040833   -6.2610057    4165.0668            6 
    9000    1.0149685   -6.2615208    4147.4065            6 
   10000   0.98441036   -6.2974316    4152.3311            6 
   11000   0.99005831   -6.2772325    4148.6295            7 
   12000     1.009347   -6.2873957     4149.011            3 
   13000    1.0207958   -6.2532542    4154.4619            4 
   14000     1.003456   -6.2613603    4163.0636            5 
   15000    0.9978633   -6.2844795     4163.485           19 
   16000   0.97355953   -6.2730743    4148.0944            4 
   17000    1.0134856   -6.2751925    4151.1512            4 
   18000    1.0063838   -6.2922731    4172.4428            5 
   19000   0.99337999   -6.2613765    4156.5447           11 
   20000    1.0038931   -6.2933554    4139.8887            8 
   21000    1.0102551   -6.2723012    4147.3218            4 
   22000    1.0142824   -6.2613362      4149.34            5 
   23000   0.99355476   -6.2563163    4153.2997            8 
   24000    1.0167023   -6.2575959    4159.2026           10 
   25000    1.0019594   -6.2836234    4152.1241           18 
   26000    0.9914962   -6.2613631    4160.7558            4 
   27000    1.0112283   -6.2859314    4165.3122            5 
   28000    1.0028257   -6.2684153    4157.1836            7 
   29000   0.98867462     -6.29151    4138.6988            5 
   30000   0.99686269   -6.3084602    4156.8774            5 
   31000     1.007042   -6.2887023    4146.8595            6 
   32000   0.98139635    -6.306254    4140.3611           15 
   33000   0.99666783   -6.2683703    4167.8071            6 
   34000   0.98512527   -6.2403397    4159.6981            5 
   35000   0.99192935   -6.2798797    4144.0746            4 
   36000    1.0204247   -6.2583438    4166.9722            7 
   37000    1.0038461   -6.2466831    4157.5895            7 
   38000    1.0093904   -6.3036706    4145.7837            7 
   39000   0.98458625   -6.2318981    4161.9257            3 
   40000    1.0105667   -6.2627695    4145.2717           15 
   41000   0.98912282   -6.2870408    4148.5922           14 
   42000   0.98935557   -6.2829709    4157.9259            7 
   43000    1.0026023   -6.2510289    4160.5115            4 
   44000   0.98526549   -6.2534383     4137.485            4 
   45000    1.0011028   -6.2869482    4156.8221            8 
   46000    0.9945623   -6.2755366    4155.3628            7 
   47000    1.0213757   -6.2892108    4150.0196           11 
   48000    1.0085857   -6.2705838     4143.223            6 
   49000   0.99009737   -6.2659433     4145.623            3 
   50000    1.0101944   -6.2881843    4153.4982           13 
   51000    1.0012598   -6.2571328    4149.6942            5 
   52000   0.99902013   -6.2658429    4175.0301            5 
   53000   0.99710403   -6.2735334     4160.822            4 
   54000   0.98141812   -6.2766279    4162.5917            4 
   55000     0.998036   -6.2781983    4158.1713            7 
   56000     1.003316   -6.2611295    4160.0994            8 
   57000    0.9740442   -6.2273543    4148.9154            5 
   58000   0.99049264   -6.2713634    4155.8756            4 
   59000    1.0277603   -6.2609784    4160.0864            4 
   60000    1.0137895   -6.2824775    4131.1638            6 
   61000    1.0135657   -6.2684483    4159.0821            7 
   62000   0.99232401   -6.2655806    4146.2214           19 
   63000    1.0094471   -6.2754803    4149.1249            2 
   64000   0.98305494   -6.2793578    4140.5281           15 
   65000    1.0145742   -6.2507973    4161.9098           10 
   66000    1.0173491   -6.2703668    4157.6299            4 
   67000   0.98272429   -6.2628133    4140.6429           12 
   68000      1.01222   -6.2795636    4143.5985            7 
   69000   0.99609632   -6.2605648    4151.9045            4 
   70000    1.0040378   -6.2550824    4159.4129            9 
   71000    1.0074145   -6.2643018    4159.6362            8 
   72000    1.0127589   -6.2523844    4148.5049            7 
   73000    1.0245559   -6.2637284    4142.8058            5 
   74000    1.0220326   -6.2369166    4135.4205            6 
   75000   0.98891837   -6.2277492     4149.191            3 
   76000   0.98812004    -6.254036    4135.1706            6 
   77000   0.97906448   -6.2820636    4144.4378            7 
   78000   0.96315907   -6.2965272    4154.1492           12 
   79000    1.0015752   -6.2881058    4159.0764            4 
   80000   0.98796503   -6.2842016    4149.3491            6 
   81000   0.99087201   -6.2579561    4162.3941           11 
   82000    1.0039374    -6.267757    4147.4311           11 
   83000   0.99694089   -6.2609264     4143.472            5 
   84000   0.99466111    -6.258937    4171.0948            9 
   85000   0.99587053   -6.2779806    4160.9266           12 
   86000   0.99865544   -6.2520592    4162.5292           17 
   87000    1.0128695   -6.2651289    4150.9653            6 
   88000   0.98754423   -6.2357011    4138.1382            5 
   89000    1.0054991   -6.2774164    4161.5213            4 
   90000    1.0125255   -6.2546496    4132.7881            9 
   91000   0.99923559   -6.2774925    4153.0766            4 
   92000   0.98386377    -6.263844    4163.8978            7 
   93000    1.0161032   -6.2699744    4157.4226            9 
   94000   0.98944067   -6.2523277    4128.2493            9 
   95000    0.9971459   -6.2638168    4131.4985            8 
   96000     1.005357   -6.2543539     4169.541            4 
   97000   0.99044715   -6.2353637    4162.6371            6 
   98000    1.0043948   -6.2999449    4167.9403            4 
   99000    1.0074992   -6.2585229    4137.3966            7 
  100000   0.98491256   -6.2859233    4138.2526            7 
  101000   0.98723962   -6.2870718    4159.5055            4 
  102000   0.98380202   -6.2807819    4140.3625            4 
  103000   0.99181736   -6.2639349     4165.944           15 
  104000    1.0060726   -6.2724028    4167.6228            7 
  105000    1.0071085   -6.2925394    4156.3652            6 
  106000    1.0220194   -6.2818752    4148.3441            6 
  107000    0.9884708   -6.2659426    4159.1796           12 
  108000   0.97452839   -6.3042258    4148.2979           14 
  109000    1.0153219    -6.254528    4168.7115           10 
  110000   0.99606795   -6.2497294     4152.883            5 
  111000    1.0091382   -6.2492487    4156.6234            2 
  112000    0.9971386   -6.2748285    4159.9544            5 
  113000    1.0011766   -6.2951322    4146.2954            4 
  114000    1.0070222   -6.2530652    4149.4347            5 
  115000   0.98893131   -6.2753183    4153.2795            8 
  116000   0.97970028    -6.253269    4144.9116            3 
  117000   0.98541087   -6.2662512    4154.4825            9 
  118000    1.0047584   -6.2729065    4146.2345           15 
  119000   0.97959226   -6.2919698    4144.9399            7 
  120000    0.9950854   -6.2535687    4152.5509            9 
  121000   0.99762932   -6.2712694    4143.9611           22 
  122000    1.0146869   -6.2742287    4141.2652            6 
  123000    1.0041765   -6.2809769    4154.9185            8 
  124000    1.0078795   -6.2792995    4158.4135            5 
  125000   0.98295674   -6.2796173    4159.5456            3 
  126000    1.0101204   -6.2531284    4161.1617            5 
  127000    1.0069276   -6.2632097    4151.3369            8 
  128000   0.99766749   -6.2330901     4156.495            5 
  129000    1.0062359   -6.2822691    4144.9096            6 
  130000    1.0011043   -6.2864897    4163.0594            3 
  131000    1.0183403   -6.2358601    4142.2525            6 
  132000      1.00756   -6.2946884    4142.7984            8 
  133000     1.006713    -6.218978    4142.3627            6 
  134000    1.0198837   -6.3013121    4159.9877           12 
  135000    1.0192757   -6.3058731    4137.1092            9 
  136000    1.0134145    -6.250844    4142.4104            7 
  137000    1.0004102   -6.2419586    4173.9834            5 
  138000    1.0133792   -6.2562319    4155.3657            7 
  139000   0.98823379   -6.2856292    4155.6051            6 
  140000   0.99776405   -6.2671619     4152.188            8 
  141000   0.98843289   -6.2546763    4153.6678            9 
  142000    1.0095386    -6.250422    4137.2218            3 
  143000   0.99819671   -6.2659472    4140.1799           10 
  144000    1.0002182   -6.2581337    4144.3181            7 
  145000    1.0000568    -6.274575    4152.7313            7 
  146000   0.98852593   -6.2511581    4156.4572           11 
  147000   0.99430147    -6.281619    4142.8141            6 
  148000    1.0257875   -6.2738748    4163.9998            4 
  149000    1.0132768   -6.2514681    4164.2846           10 
  150000   0.99571153   -6.2580697    4157.2002            4 
  151000   0.99255176   -6.2570139    4145.2562            6 
  152000   0.99903617   -6.2679992    4142.9496            5 
  153000   0.98068383   -6.2381853    4160.1977            3 
  154000    1.0003611   -6.2936965    4140.6946            5 
  155000   0.99437137   -6.2992103    4145.3615            7 
  156000    1.0104913   -6.2895729    4150.9767            5 
  157000    1.0018013   -6.2468163    4151.2407            6 
  158000   0.97540429   -6.2976623    4137.7915            8 
  159000    1.0092571   -6.2870173    4150.0432            9 
  160000   0.99008649   -6.2734592    4157.9727           11 
  161000   0.98772603   -6.2285685    4156.5332           12 
  162000   0.98757555   -6.2592412    4166.3341            5 
  163000   0.98982441   -6.2509946    4152.4334            9 
  164000    1.0126529   -6.2748039    4149.4855           10 
  165000   0.99446605   -6.2908678    4156.5246           13 
  166000    1.0076842   -6.2812087    4154.7824           17 
  167000     1.008633   -6.2820442    4157.3495            8 
  168000    1.0010996   -6.2682089    4138.4794           12 
  169000    1.0203438   -6.2704922    4146.3823            6 
  170000    1.0160713   -6.2730006    4155.2115            2 
  171000      1.00658   -6.2793469    4141.1263            6 
  172000     1.012974   -6.2998629    4143.8533            6 
  173000   0.98887869   -6.2749503    4147.0638           15 
  174000     1.005711   -6.2958549     4147.099            7 
  175000    1.0124836   -6.2980231    4164.7461            6 
  176000    0.9900517   -6.2892229    4151.1184            6 
  177000   0.99631774   -6.2627876    4153.4998           14 
  178000   0.97812374   -6.2587273    4146.1831            5 
  179000    1.0046297   -6.2921441    4140.5086            5 
  180000    1.0091874   -6.2555756    4162.0276            4 
  181000    1.0099575   -6.3064994     4143.283            8 
  182000    1.0083079   -6.2664669    4156.9919            7 
  183000   0.99711007   -6.2365851    4151.9099            7 
  184000    1.0049856   -6.2755694    4143.6547            7 
  185000    1.0165213   -6.2789934    4141.8236            8 
  186000     1.017623   -6.2498102    4141.1731            5 
  187000   0.99338429   -6.2673642    4152.1399            7 
  188000   0.99111225   -6.2833281    4172.9409            6 
  189000     0.983083   -6.2995946    4162.9559            8 
  190000   0.98945312   -6.3069632    4161.3788            7 
  191000    1.0040133   -6.2791976    4126.2979            6 
  192000    1.0001294   -6.2440596    4145.8321           14 
  193000   0.97894764   -6.2690397     4140.744            8 
  194000   0.99650273   -6.2573887    4146.6745            8 
  195000    1.0234473   -6.2928715    4150.1344            9 
  196000   0.98570578   -6.2501771    4156.4136           13 
  197000    1.0060394   -6.2950982    4149.2697            2 
  198000    1.0001107   -6.2711964    4156.0554            6 
  199000    1.0011375    -6.258494    4141.1353            8 
  200000    1.0008932   -6.3092443    4148.6498           11 
  201000    1.0125179   -6.2646122    4143.7794            4 
  202000   0.98511484   -6.2658765    4151.3711            5 
  203000    1.0035185   -6.2766918    4147.7892            7 
  204000   0.99303965   -6.2418085    4162.6949            7 
  205000     1.003479    -6.257902    4157.2512            4 
  206000    1.0117082   -6.2980015    4142.1705            5 
  207000    1.0208816   -6.2607468     4172.227            9 
  208000   0.99942598   -6.3012683    4127.8351            5 
  209000   0.98944145   -6.3079806    4160.3331            4 
  210000    1.0133022   -6.2693794    4151.1499           17 
  211000   0.98664415   -6.2847851    4156.0833            5 
  212000     1.001413   -6.2734562    4135.4676            7 
  213000   0.99461892   -6.2953735    4147.6774            6 
  214000    1.0204007   -6.2214769    4159.8922            3 
  215000    1.0109549   -6.2330339    4150.9166            5 
  216000   0.99539954   -6.2564704    4163.0914            4 
  217000    1.0028499    -6.250083    4157.4645            3 
  218000    1.0045578   -6.2683752    4159.6617           10 
  219000    1.0152575   -6.2704797    4139.0137            8 
  220000   0.99082845   -6.2678662    4155.7909            4 
  221000   0.99256111   -6.2533916    4157.8194            4 
  222000   0.99156569   -6.2890395    4145.4996           10 
  223000    1.0337943   -6.2730102    4153.5183            7 
  224000    1.0018255   -6.2640766    4168.8959            9 
  225000   0.99260356   -6.3067669    4128.6206            5 
  226000     1.002207   -6.3057292    4160.8168            8 
  227000   0.99937929   -6.2596679    4153.5655            7 
  228000   0.98362492   -6.2920736    4138.5109            7 
  229000    1.0085121   -6.2884114    4154.6262           13 
  230000    1.0032943   -6.2648929    4142.3351            8 
  231000   0.99328908   -6.2547994    4153.6057            5 
  232000    0.9950152   -6.2771072    4156.5747            5 
  233000   0.99938215   -6.2572993    4160.0012           15 
  234000    1.0034842   -6.2662262    4155.6647            5 
  235000    1.0126778   -6.2821539    4167.2052            4 
  236000    1.0162134   -6.2654719     4168.313            9 
  237000    1.0003286    -6.319815    4159.1922           14 
  238000    1.0106411   -6.2856846    4162.8552            6 
  239000   0.98257885   -6.2597979    4147.0006            7 
  240000    1.0009093   -6.2693243    4156.8936            8 
  241000   0.99767556   -6.2457959    4162.7942            6 
  242000   0.99111632   -6.2514884      4150.01            4 
  243000    1.0149783    -6.272749    4147.7263            9 
  244000   0.98478293   -6.2587104    4147.1105           11 
  245000   0.98868121   -6.2631011    4141.8925            5 
  246000   0.98929735   -6.2638641    4159.3974           12 
  247000   0.99499647   -6.2839637     4158.938            3 
  248000   0.99740459     -6.30081     4159.337            7 
  249000   0.99358633   -6.2918772    4140.4911            9 
  250000   0.97780707   -6.2827042    4156.1858            8 
  251000    1.0138423   -6.2709817    4132.5815            5 
  252000    1.0157991   -6.2595457    4158.6163            7 
  253000   0.99649633   -6.2424668    4150.1139            4 
  254000    1.0171991   -6.2514461    4149.6234            5 
  255000    1.0053824   -6.2826466    4158.2547            9 
  256000    1.0034328    -6.228441    4158.9784            3 
  257000   0.98938066   -6.2640118    4158.4903            6 
  258000    1.0122051   -6.2744598    4149.7485            6 
  259000     1.001976   -6.2716768    4161.0246           12 
  260000     1.001437   -6.2368204    4157.3188            6 
  261000    1.0155176    -6.278813    4149.8161            7 
  262000   0.99081391   -6.2890484    4141.1301           12 
  263000    1.0244154   -6.2833836    4160.1975            7 
  264000    1.0094266   -6.2834403    4152.9862            4 
  265000    1.0024794   -6.2636046    4169.9823            5 
  266000    1.0257446   -6.2699279    4155.6021            4 
  267000      1.02034   -6.3041838    4141.1746            6 
  268000    1.0177021   -6.2665715    4161.1561            4 
  269000   0.99042018   -6.2800447    4143.9542            6 
  270000   0.99871328   -6.2994512    4154.4121            7 
  271000    1.0058068   -6.2528262     4166.131            5 
  272000    1.0111299   -6.2798144    4142.1686            5 
  273000   0.99483921   -6.2917107    4153.3535           10 
  274000    1.0118838   -6.2767554    4142.6532            6 
  275000    1.0019146   -6.2535376    4150.3659            8 
  276000    1.0108004   -6.2923027    4152.1452            5 
  277000    1.0052543   -6.2753117    4150.8646            6 
  278000    1.0103657   -6.2886444    4167.0487            6 
  279000    1.0030083   -6.2624132    4143.0524           14 
  280000    1.0064813   -6.2413504    4157.7546           17 
  281000    1.0203424   -6.2640853    4155.2525            7 
  282000   0.99894094   -6.2502843    4148.0338            5 
  283000    1.0159355   -6.2836999     4143.254           11 
  284000    0.9914187   -6.2573263    4162.1944           10 
  285000   0.98431328   -6.2720729    4154.7098            5 
  286000    0.9953377   -6.2731892    4153.3633            6 
  287000    1.0138186   -6.2564157    4144.8627            4 
  288000    1.0011209   -6.2438406    4179.7793            9 
  289000   0.99392911   -6.3166034    4134.9967            4 
  290000   0.99361609   -6.2426233    4171.1941            4 
  291000   0.99220197   -6.2561608    4154.1459            6 
  292000    1.0009752   -6.2883002    4138.2683            4 
  293000    1.0023503   -6.2650336    4154.0589            6 
  294000    1.0017747   -6.2952856    4145.3035            3 
  295000   0.98761928   -6.3024538    4140.5503            9 
  296000    1.0049624     -6.25091    4148.6771            5 
  297000     1.010658    -6.281844    4163.4207            5 
  298000    1.0120361   -6.2807766    4155.1093            5 
  299000    1.0132757   -6.2958678    4155.8186            6 
  300000    1.0105149   -6.2640538    4158.2289            4 
  301000    0.9776917   -6.3271169     4161.854            5 
  302000    1.0001642   -6.2423171    4149.5995            9 
  303000    1.0182909    -6.280688    4129.9317            9 
  304000    1.0002609    -6.314526    4164.9916            9 
  305000   0.99220645   -6.2790168    4150.6424            8 
  306000    0.9921015   -6.3036666    4154.9615            8 
  307000    1.0080071   -6.2836993     4163.655           10 
  308000   0.99019196   -6.2688167    4161.6092            6 
  309000    1.0051133   -6.2426747    4158.1186            7 
  310000    1.0159695   -6.2947089    4155.3982            3 
  311000   0.99829664    -6.272175    4157.6854           11 
  312000   0.98851696   -6.2830535    4132.9786            8 
  313000   0.99103001   -6.2557169    4154.8937            8 
  314000    1.0143701   -6.2846102    4149.1387            7 
  315000   0.98420628   -6.2609405    4150.4084            4 
  316000   0.99961511   -6.2729395    4141.9913            9 
  317000   0.99981605   -6.2469003    4163.6951           13 
  318000   0.98707137   -6.2557555     4139.153            3 
  319000   0.98872993   -6.2546078    4170.3417           11 
  320000   0.99684882   -6.2691007     4161.864            3 
  321000   0.99871413   -6.2285728    4157.0195           12 
  322000   0.99336238   -6.2502176    4159.5542           16 
  323000     0.978335   -6.2649475     4154.945            6 
  324000   0.98240012   -6.2778883    4149.1997            5 
  325000    1.0064915   -6.3016564    4159.0615            6 
  326000   0.99154465   -6.2918142    4154.8409            5 
  327000    1.0156778   -6.2733383    4153.6122            7 
  328000    1.0168792   -6.2550391    4161.8199            5 
  329000    1.0087172   -6.2298533     4153.341            5 
  330000   0.98356694   -6.2784108    4144.4854            7 
  331000   0.98471214    -6.260517    4143.9369            4 
  332000   0.97328953   -6.2816175    4149.3669            6 
  333000   0.99703258   -6.2278262    4148.4169            8 
  334000    1.0043706   -6.2863446    4172.0577            6 
  335000    1.0139591   -6.2614144     4158.778            6 
  336000   0.99942244   -6.2524211    4160.9964            5 
  337000     1.005187   -6.2689566    4149.8108            4 
  338000    1.0080599    -6.249174    4149.0923            8 
  339000   0.99770295   -6.2818689    4154.7811           10 
  340000    1.0180094   -6.2695371    4152.6332            5 
  341000    1.0142621   -6.2239617    4158.6914            5 
  342000    1.0166041    -6.271672    4155.0546            5 
  343000   0.97756904   -6.2729964    4147.7835            4 
  344000   0.99635981    -6.260391    4158.5698           11 
  345000   0.99276716    -6.248024    4155.4621            7 
  346000     1.010732    -6.264307    4153.2218            6 
  347000   0.99918967   -6.2296856    4163.0429            8 
  348000   0.99443018   -6.2885252    4151.9789            6 
  349000   0.97676001   -6.2894855    4147.1509            4 
  350000    1.0066085   -6.2819611    4143.2562            3 
  351000   0.98922598   -6.3010366    4140.7425           12 
  352000     1.009628   -6.3014202    4146.8338            6 
  353000    1.0088023   -6.2868071    4145.7463           13 
  354000    1.0015418   -6.2875187    4160.5845            4 
  355000   0.99465203   -6.2693732    4151.6235            7 
  356000   0.98561003   -6.2975774    4146.3733            8 
  357000    1.0069342   -6.2918022    4148.5514            5 
  358000     1.021086   -6.2268076    4163.1137            6 
  359000    1.0111064   -6.2837132    4151.1228            7 
  360000    1.0221042   -6.2579406    4167.9825            7 
  361000   0.97693346   -6.2650799    4151.0081            8 
  362000    1.0058983    -6.248178    4157.7715            8 
  363000   0.99974175   -6.2436104    4160.5926           13 
  364000   0.98737581     -6.28709     4162.475            8 
  365000   0.99613638   -6.2838543    4156.8644            5 
  366000    1.0005985   -6.2996063    4152.6187            7 
  367000    0.9955932   -6.2512822    4139.0929            4 
  368000    1.0075213     -6.26806     4165.691            7 
  369000    1.0083445   -6.3138619    4132.0038           11 
  370000   0.99371316   -6.2426456    4158.3726            4 
  371000    1.0051073   -6.2795893    4151.0176            6 
  372000    1.0205609    -6.269445    4148.8479            7 
  373000    1.0079011   -6.2532735    4152.6208            8 
  374000    1.0049778   -6.2651598    4159.7988            4 
  375000    1.0273441   -6.2838283    4137.3471            5 
  376000    0.9785174   -6.2524896    4159.9997            5 
  377000    1.0274022   -6.2427207    4172.2675            6 
  378000   0.98780851   -6.2701946    4160.5465            7 
  379000    1.0041261   -6.2815984    4148.3825            5 
  380000   0.99599335   -6.2455003    4158.4514            5 
  381000    1.0054866   -6.2849976    4157.1698            7 
  382000   0.99579854   -6.2252136    4174.6693            7 
  383000     1.006544     -6.26388    4152.1928           11 
  384000    0.9870699    -6.277572    4148.3238            2 
  385000     1.011235   -6.2875865    4157.0472           10 
  386000   0.99918545   -6.2682533    4154.0844            4 
  387000    1.0004036   -6.2591134    4159.5397            5 
  388000    1.0355988   -6.2837102    4153.3014            9 
  389000   0.98006946    -6.266396    4152.7802           18 
  390000   0.99073029   -6.2623319    4145.9862            6 
  391000   0.98453533   -6.2522901    4141.4675           13 
  392000    1.0014749   -6.2844222    4162.5839            3 
  393000    1.0020026   -6.2737517    4142.7926            8 
  394000   0.98664672   -6.2838319    4145.7665           13 
  395000   0.97453533   -6.3146545    4138.9346            4 
  396000    1.0039098   -6.2709732    4151.3749           12 
  397000    1.0160135   -6.2626682    4145.0892            5 
  398000   0.98879018   -6.2829167    4161.7764            3 
  399000    0.9733639   -6.2829221    4147.8799            8 
  400000   0.99863253   -6.2846763    4147.5227            9 
  401000   0.98378699   -6.2705462    4154.0236            3 
  402000   0.99814377   -6.3202381    4171.4518           13 
  403000    1.0129127   -6.2884227    4151.0043            5 
  404000   0.99868989   -6.2621988    4160.1751            4 
  405000   0.99098951   -6.2467117    4158.3377           12 
  406000    1.0065133   -6.2497398     4164.704            4 
  407000   0.99246736   -6.2483755     4167.362            9 
  408000     1.000097   -6.3148143    4135.5581            7 
  409000    1.0124478   -6.2619921    4164.4112            6 
  410000    1.0080705   -6.2868929    4166.7758            9 
  411000   0.99970102    -6.284201    4134.4132           12 
  412000    1.0063515   -6.2683007    4159.5947           12 
  413000   0.99272879   -6.2554197    4147.1864            8 
  414000    1.0175949   -6.2626176    4140.6356            8 
  415000    1.0050415    -6.241353    4151.2168            6 
  416000   0.99440683   -6.3076568     4144.432            4 
  417000   0.98882813   -6.2553809    4164.8388           12 
  418000    1.0019242   -6.2497765    4144.6828            4 
  419000    1.0073831   -6.2485996    4169.0422            4 
  420000   0.97608924   -6.2422867     4167.165            7 
  421000   0.99249861   -6.2381988    4165.7186           10 
  422000   0.99899979   -6.2710661    4146.1454           13 
  423000   0.98552836   -6.2811025    4149.2038           10 
  424000    1.0081917   -6.2895878    4147.8066           10 
  425000   0.98760118   -6.2739296    4154.6638            5 
  426000   0.99940479   -6.2749466    4152.9459           27 
  427000   0.99152443   -6.2578717    4151.1879            6 
  428000   0.99487826   -6.2638864    4154.6368            6 
  429000   0.99764455   -6.2577925    4165.8747            5 
  430000   0.98305495   -6.2990327    4154.1534           10 
  431000   0.99308434   -6.2627647    4148.4544            5 
  432000    1.0319881   -6.2735907    4166.5976            2 
  433000    1.0024451   -6.2636195    4156.3533            7 
  434000   0.98473946   -6.2920935    4139.3852           13 
  435000    1.0080575   -6.2639783    4161.2035            7 
  436000   0.99677956    -6.277212    4149.1654            8 
  437000   0.99346047   -6.2364705    4144.6694            4 
  438000    1.0060575   -6.2507138    4135.1041            8 
  439000    1.0088737    -6.283706    4153.8893            7 
  440000   0.98444862   -6.2927211    4164.4201            6 
  441000   0.99782077   -6.2450889    4159.2316            4 
  442000   0.98561475    -6.239575    4163.4102            8 
  443000   0.98598649   -6.2772969    4147.5675            7 
  444000   0.99862294    -6.305962    4135.7763           20 
  445000    1.0144024    -6.275841    4148.1586            8 
  446000   0.99593085   -6.2953669    4153.8999           12 
  447000    1.0029254   -6.2821778    4158.0979            8 
  448000    1.0096384   -6.2835277    4149.5025            5 
  449000    1.0107624   -6.2808733    4161.6989            6 
  450000    1.0099467   -6.2889631    4135.5305            6 
  451000    1.0194562   -6.2660927    4159.4471            8 
  452000   0.99054039   -6.2765997    4152.7504            8 
  453000    1.0107753   -6.2641315     4168.309            5 
  454000   0.98239908   -6.2249935    4142.4371            4 
  455000    1.0117295   -6.2818794    4128.5286            5 
  456000    1.0064755   -6.2780504    4156.6859            6 
  457000    1.0236742   -6.2784901    4147.1579            6 
  458000    1.0084622   -6.2665438    4174.1541            8 
  459000   0.98805546     -6.29486    4136.7164            5 
  460000    1.0225537   -6.2807314    4158.3593            4 
  461000    1.0015041   -6.2434979    4149.6419            5 
  462000   0.98747539   -6.2865989    4154.7652            8 
  463000    1.0129434   -6.2770538    4141.9143            8 
  464000   0.98330707   -6.2449967    4166.6261            5 
  465000   0.98948641    -6.249504    4158.5105            2 
  466000   0.99110765   -6.2740905    4149.0172            9 
  467000   0.99693127    -6.249509    4151.7324            7 
  468000   0.98155659   -6.2747386    4140.9413            5 
  469000   0.99595704   -6.2692674    4155.1573            5 
  470000    1.0143268   -6.2845455    4151.6597            3 
  471000   0.99287383   -6.2829726    4146.8004           10 
  472000    1.0205602   -6.2758334     4141.853            5 
  473000   0.99600232   -6.2733364    4157.0728            6 
  474000   0.99633478   -6.2877439    4151.7668            3 
  475000    1.0185158   -6.2878439    4134.1785           10 
  476000     1.017986   -6.2744406    4167.7218           11 
  477000     1.024944   -6.3003249    4142.4559            8 
  478000   0.99620488   -6.2896757    4141.0202            3 
  479000    1.0050311    -6.250763    4154.3865            9 
  480000   0.97559346   -6.2666106     4150.366           21 
  481000    1.0079687   -6.3124207    4142.4357            6 
  482000   0.99280954   -6.2351399     4153.357            4 
  483000   0.98633363   -6.2488663    4140.4855            8 
  484000   0.98456062   -6.2654328    4175.8403           10 
  485000   0.99968804   -6.2649232    4140.9683            7 
  486000     0.992643    -6.272962    4151.3803            4 
  487000   0.99921719   -6.2639888    4140.9083            5 
  488000    1.0146325   -6.2329471     4159.357            4 
  489000   0.99410968   -6.2432348    4164.1628            6 
  490000    1.0130676   -6.2817132    4146.9144            7 
  491000   0.98707961   -6.2406673    4143.5487            7 
  492000    1.0168208   -6.2639611    4161.9706           11 
  493000    1.0051645   -6.2665812    4145.9345            6 
  494000    0.9951676   -6.2571236    4147.9532            7 
  495000   0.96914923   -6.2751711    4152.2484            7 
  496000   0.99781239   -6.3047891    4148.4605            4 
  497000    0.9923532   -6.2725377    4156.8184            9 
  498000   0.99166068   -6.2677808    4157.5254            4 
  499000    1.0124833   -6.2705306    4141.4994            5 
  500000    1.0045555   -6.2980365    4156.0149            9 
  501000    1.0047636   -6.3378982    4137.5403            3 
  502000   0.99698613   -6.2843892    4140.8067            5 
  503000    1.0149467   -6.2822974    4132.5204           10 
  504000   0.99896242   -6.2868515    4167.8712            5 
  505000     1.013267   -6.2942853    4139.8403            4 
  506000    1.0056193    -6.303919    4139.6292            5 
  507000    1.0069076   -6.3004604     4140.884           20 
  508000      1.00858   -6.3140195    4147.5308            8 
  509000   0.98793369   -6.3061245    4144.2244            7 
  510000    1.0034909   -6.2904935    4151.4746            4 
  511000   0.97221745   -6.2784723    4140.6354            7 
  512000    1.0058068   -6.2485221    4164.8077            5 
  513000   0.99139412   -6.3052837    4140.3163           12 
  514000   0.99010673   -6.2709192    4152.1751            2 
  515000    1.0050731   -6.2622259    4173.5423            5 
  516000   0.99775032   -6.2620104    4157.4457            6 
  517000     1.010457   -6.2181015    4168.3863            9 
  518000    0.9956618   -6.2667028    4151.7094            5 
  519000   0.98960358   -6.2682184    4151.2529            9 
  520000    1.0111453   -6.2929938    4165.5195            5 
  521000   0.99464686   -6.2494288    4164.2393            5 
  522000    1.0135031   -6.2498188    4137.6424            4 
  523000   0.98941384   -6.2665724    4152.8378            4 
  524000   0.98602078   -6.2930107    4147.0419            3 
  525000    1.0063097   -6.2901392    4137.5069            9 
  526000      1.02486   -6.2545837    4153.1684           10 
  527000    1.0020116   -6.2294466    4172.8338            6 
  528000    1.0011481   -6.2563354     4157.423            8 
  529000    0.9852606   -6.2672433    4165.8418            8 
  530000    1.0007753    -6.262165    4156.6284            7 
  531000   0.98907408    -6.283716    4150.5195           12 
  532000   0.99630351   -6.2670424    4158.2757            6 
  533000   0.99505856   -6.2701153    4166.7194            7 
  534000   0.99652399   -6.3003633    4149.6871            7 
  535000     1.015336   -6.2991015    4149.8801            4 
  536000   0.97595768   -6.2665973    4140.5901            7 
  537000    1.0002758     -6.24844    4154.2117            9 
  538000   0.99013711   -6.2648365    4155.9367            6 
  539000   0.99276109   -6.2695345    4159.4876           10 
  540000     1.007237   -6.2771534    4153.9239           16 
  541000    1.0070819   -6.2740055     4159.635            5 
  542000    1.0062088    -6.278916     4156.817            8 
  543000   0.99606315   -6.2571093    4174.3516            7 
  544000   0.96979816   -6.2488818    4159.7295            4 
  545000     1.022826   -6.2835284    4150.0874            7 
  546000   0.98700029   -6.2793823    4161.9331            6 
  547000    1.0079376   -6.2419014    4171.4962            7 
  548000   0.99807211   -6.2608684    4150.4774            6 
  549000     1.000977   -6.2508682    4159.4253            9 
  550000   0.99359032   -6.2421507    4147.4654           15 
  551000     1.007539   -6.2710015    4146.2734            3 
  552000   0.99119119   -6.3005642    4154.2655            8 
  553000   0.99296973   -6.2843972      4153.25            8 
  554000   0.99266337   -6.2879367    4148.9106           12 
  555000   0.97907462   -6.2774019    4159.4219           12 
  556000   0.99689435   -6.2573589    4158.9932            6 
  557000     1.021975   -6.2890793    4161.6964            8 
  558000   0.99941137   -6.2541928    4151.0164            9 
  559000   0.99490518   -6.2565787    4144.2472           10 
  560000    1.0119892   -6.2672963    4135.8121            7 
  561000    1.0027944   -6.2794346    4157.8168            4 
  562000    1.0037351   -6.2670234     4150.283            7 
  563000    1.0056118   -6.2570594    4148.3701            4 
  564000    1.0159076   -6.2972968     4154.605            7 
  565000     0.991063   -6.2869382    4145.0533            5 
  566000     0.999598   -6.2758542    4138.6713            9 
  567000   0.98861499   -6.2828996    4135.2904            5 
  568000   0.99336553   -6.2998437    4149.5218            5 
  569000    1.0028559   -6.2694036    4140.3423            7 
  570000    1.0061579   -6.2784907    4165.2402            5 
  571000   0.98001996   -6.2838128    4136.5397            7 
  572000   0.99252477   -6.2560263    4148.2334           14 
  573000    1.0152935   -6.2770502    4154.9736            5 
  574000   0.99650496   -6.2541797    4159.7023            8 
  575000   0.99940834   -6.2664289    4147.6562            4 
  576000   0.99217469   -6.2934047    4157.3168           12 
  577000   0.99112886   -6.2601484    4133.4366           10 
  578000    1.0209199   -6.2925309    4154.4301            3 
  579000   0.97978049    -6.302028    4152.7971           18 
  580000    1.0151923   -6.2710578    4181.5079           13 
  581000   0.99221683   -6.2746836    4167.9044           13 
  582000    0.9943173   -6.2618368    4159.6655            7 
  583000    1.0158653   -6.2543394    4155.3097            4 
  584000   0.99422143   -6.2628262    4152.3924            5 
  585000   0.98295154   -6.2462871    4173.8126            8 
  586000   0.99684896   -6.2621083    4164.3357            4 
  587000   0.99339275   -6.2305573    4163.4665            5 
  588000    1.0276206   -6.2388874     4151.649            4 
  589000   0.99357797   -6.3019035    4131.2848            3 
  590000   0.98858237   -6.2779772    4149.3299            6 
  591000    1.0006132   -6.2504722    4160.9075            7 
  592000    1.0166297   -6.2702346    4165.7843           19 
  593000   0.99143985    -6.300844     4155.719           10 
  594000    1.0108088   -6.2861918    4149.8221            8 
  595000   0.97305063   -6.2535175     4162.552            8 
  596000   0.98737611   -6.3039798    4151.3859            8 
  597000    1.0132159   -6.2470267    4152.4864            6 
  598000   0.98564065   -6.2398732    4141.0101            7 
  599000    1.0217141   -6.2607911    4139.1658            5 
  600000   0.99582054   -6.2891356    4146.8435            7 
  601000    1.0013342   -6.2591031    4153.8577            6 
  602000    1.0178701   -6.2547409    4163.1357            5 
  603000   0.99836836   -6.2195972    4142.8995            3 
  604000   0.98208402   -6.2845232    4153.2049            3 
  605000    0.9997672   -6.3043129    4146.4487           16 
  606000    1.0041582   -6.2611226    4156.0543            4 
  607000   0.99463528    -6.234662    4147.5962           12 
  608000   0.99499558   -6.2449352    4140.1251            5 
  609000   0.99867558   -6.2795963    4160.1555            6 
  610000    1.0153682   -6.2986716    4147.1413            5 
  611000    1.0010864   -6.2969363     4150.776            6 
  612000   0.99930339   -6.2634466    4153.9871            8 
  613000    1.0358833    -6.260391    4162.2722            3 
  614000    1.0020077   -6.2388909    4144.5236           11 
  615000    1.0263437    -6.247917    4140.7397           11 
  616000   0.99838703   -6.2889617    4145.5153            7 
  617000   0.99651851   -6.2653151    4163.1925            5 
  618000   0.99782122   -6.2487185    4159.2495            6 
  619000    1.0044871   -6.2456024    4147.5542            3 
  620000   0.99097664   -6.2755637    4152.7286           11 
  621000    1.0144301   -6.2572511    4138.6217           17 
  622000    1.0139672    -6.285395    4148.1342            6 
  623000   0.99071127   -6.2700441    4158.3187            8 
  624000    1.0093417   -6.2697255    4153.5798            5 
  625000   0.98182334   -6.2446841    4166.0035            5 
  626000    1.0059978   -6.2661532    4168.6414            4 
  627000    1.0241557   -6.2909664    4144.6166            8 
  628000    0.9873584   -6.2687913    4131.5893            4 
  629000    1.0046855   -6.2769245      4160.76           10 
  630000   0.99048541   -6.2726107    4132.8512            8 
  631000    1.0117451   -6.2342518    4171.1094            7 
  632000   0.99589456   -6.2861831    4150.0828            5 
  633000   0.99181406   -6.3010661    4143.9005            8 
  634000    1.0133404   -6.2565853    4166.7543            5 
  635000   0.99572186   -6.2895379    4147.4134            9 
  636000    1.0022427   -6.2910366    4144.1729            9 
  637000     1.016354   -6.2582643    4155.3546            6 
  638000   0.99617457     -6.28179    4147.7766            6 
  639000    1.0334872   -6.2554313    4142.8137           10 
  640000   0.99205359   -6.3167809    4166.5846            8 
  641000   0.98047162   -6.2700447    4146.6002            8 
  642000   0.99416398   -6.2595834    4153.4857           11 
  643000    1.0095061   -6.2758104    4141.3816           11 
  644000   0.99117802   -6.2775027    4157.4394            7 
  645000    1.0107799   -6.2721425    4149.1352            8 
  646000   0.98478103    -6.297976    4151.6187            7 
  647000    1.0161909   -6.2699212    4145.9461            6 
  648000   0.98867899   -6.2816159    4143.7409            7 
  649000   0.98367633   -6.2525744    4171.6913            4 
  650000   0.99320863   -6.2927445    4148.1637           11 
  651000   0.99177997    -6.282441    4146.6124           10 
  652000   0.97902918   -6.2422777    4163.1926            7 
  653000    1.0073769   -6.2580706    4139.7055            5 
  654000    1.0001431   -6.2803669    4156.3755            7 
  655000   0.99788933   -6.2607849    4158.3052            4 
  656000    1.0160437   -6.2967879    4130.0327            9 
  657000   0.98774035   -6.2760574     4148.977            2 
  658000    1.0178045   -6.2518217    4163.0217            5 
  659000    1.0164266   -6.2836407    4158.1156            4 
  660000   0.99316157   -6.2915172    4140.0745           10 
  661000   0.99247242   -6.2809352    4164.6221           12 
  662000    1.0009441   -6.2787121    4151.6858            5 
  663000   0.99096533   -6.2427879    4165.7888            5 
  664000    1.0065196   -6.2797745    4158.4201           12 
  665000   0.99098612   -6.2625422    4164.2101            6 
  666000   0.98708946   -6.2480688    4167.8343            3 
  667000   0.98341431   -6.2669256    4137.6847           10 
  668000   0.99528887   -6.2883863    4150.5031            4 
  669000    1.0105711   -6.2707297    4151.5493            6 
  670000   0.98697637   -6.2625058    4168.6315            5 
  671000   0.98723777   -6.2721235     4152.238            5 
  672000   0.99912207    -6.276821    4136.4429            4 
  673000    1.0016624   -6.2718767    4155.4829           11 
  674000    1.0104526   -6.2517815    4155.5245            5 
  675000   0.99649662   -6.3039909    4150.1958            7 
  676000    1.0039063   -6.2484037     4167.495            9 
  677000   0.99573212   -6.2437696     4149.954            2 
  678000    1.0028131   -6.2584679    4162.4403            4 
  679000    1.0103171   -6.2662077    4144.7449            8 
  680000   0.98250691   -6.2676449     4161.144            6 
  681000    1.0044821   -6.2481898    4161.2427            4 
  682000    1.0087582   -6.2638909    4154.4116            5 
  683000   0.98894796   -6.2907431    4160.0767           10 
  684000   0.97586434   -6.2852831    4136.5331            5 
  685000   0.98650255   -6.2778504    4133.8832           10 
  686000   0.99875306   -6.2687097    4137.6753            5 
  687000   0.98944693   -6.2780164    4159.8347            6 
  688000    1.0000194   -6.2770304    4151.3924            6 
  689000   0.98485648   -6.3003142    4148.6756            7 
  690000   0.99096776    -6.298138    4127.8952           11 
  691000   0.98884093   -6.2799843    4144.1929            5 
  692000   0.99502418    -6.235956    4152.3015            3 
  693000   0.98796152   -6.2772962    4156.4607           14 
  694000   0.98815441   -6.2551777    4142.6436           13 
  695000   0.99921982   -6.2862277    4158.1402            5 
  696000    1.0186869   -6.2705392    4140.9594            6 
  697000   0.98662072   -6.2436848    4178.7173            5 
  698000   0.98001072   -6.2252037    4162.0574            7 
  699000   0.98825661    -6.271281    4160.4133            5 
  700000   0.99120929   -6.2926319    4145.3413           11 
  701000    1.0071188   -6.2688097    4160.6583            4 
  702000     1.008078   -6.2815535    4156.4173            9 
  703000    1.0004526   -6.2863641    4144.0701            6 
  704000   0.99100352   -6.2770035    4159.4361            9 
  705000    1.0018355   -6.3071678    4154.2991            4 
  706000   0.99494668   -6.2754022    4153.7955            7 
  707000   0.99645693   -6.2816758    4129.8673            5 
  708000    1.0080502   -6.2664567    4153.3169            3 
  709000   0.99909351    -6.287894    4137.7386            4 
  710000    1.0093551   -6.2710657    4150.5728           14 
  711000    1.0208697   -6.2568554    4139.0413            5 
  712000   0.99281668   -6.2925464    4138.9587            7 
  713000    1.0158284   -6.2584383    4148.8879           12 
  714000   0.99874126    -6.251313    4160.6246            5 
  715000    0.9771188   -6.2723152     4151.413            8 
  716000   0.98363322   -6.2478026    4169.8994            6 
  717000    1.0007431   -6.2771841    4157.6166            4 
  718000   0.99279796   -6.2805573    4141.8878           10 
  719000   0.99687315   -6.2562751    4152.1283            5 
  720000   0.99460282   -6.2936535    4164.5231            7 
  721000   0.99875021   -6.2926438    4150.1139           10 
  722000   0.99085801   -6.2389844    4153.5155           10 
  723000    1.0120753   -6.2737957    4169.1011            4 
  724000    1.0012151   -6.2409112    4155.9256            6 
  725000   0.99492172   -6.2653353    4175.2909            9 
  726000   0.99509777   -6.2666563    4159.1164           10 
  727000   0.99898959   -6.2858903    4155.1221           20 
  728000   0.99993736   -6.2857318    4141.9613            5 
  729000   0.98300433   -6.2826912    4148.7783           11 
  730000   0.99381552   -6.3085346    4135.6084            3 
  731000    1.0001515   -6.2481283    4149.9779            5 
  732000    1.0095774   -6.2693389     4155.575            6 
  733000    1.0234081   -6.2902028    4156.3884            6 
  734000    1.0023882   -6.2840815    4150.6439            6 
  735000    1.0163814   -6.2509267     4160.785            4 
  736000    1.0049542     -6.22733    4154.8981            8 
  737000   0.99208755    -6.239664    4148.4394            9 
  738000    1.0105007   -6.2638249    4143.2902            7 
  739000   0.98976906   -6.2418578    4159.3365            5 
  740000   0.98781926   -6.2688712    4149.5398            6 
  741000    1.0032598    -6.267447    4150.1115           15 
  742000     1.010198   -6.2489231     4160.685            5 
  743000   0.99257116   -6.2742754    4156.3797            3 
  744000    1.0225703   -6.2857948    4161.9692            3 
  745000    1.0010246   -6.2677492    4155.7231            4 
  746000    1.0176617   -6.3109358    4144.8105            9 
  747000    1.0042134   -6.2802376    4148.6629           12 
  748000    1.0004425   -6.2609152    4160.1371            4 
  749000   0.99905748   -6.2703716    4150.1401            5 
  750000    1.0017721   -6.2606262    4143.8257            7 
  751000   0.99173234   -6.2972634    4131.2967            4 
  752000   0.99423575   -6.2551967    4140.3997            6 
  753000    1.0109952   -6.2829471    4158.8916            9 
  754000    1.0112761   -6.2779189    4159.6823            7 
  755000    1.0083423   -6.3150974    4145.3279            4 
  756000   0.99897444   -6.2919392    4143.8359            7 
  757000    1.0098361   -6.2600083    4154.5858            5 
  758000   0.98837959   -6.2663544    4154.3204            5 
  759000   0.99539983   -6.2837708    4152.5994           12 
  760000   0.99128327   -6.2786436    4155.0286            5 
  761000   0.99388847   -6.2718585    4165.8178           11 
  762000      1.00181   -6.2765239    4143.5174           13 
  763000    0.9971167   -6.2509283    4165.4031           10 
  764000    1.0038636    -6.266783    4151.4547            5 
  765000    1.0042401   -6.2758041    4140.6845           11 
  766000   0.98844689   -6.3070268    4143.8104           10 
  767000   0.99040526   -6.2564949    4144.3078            7 
  768000   0.98253012   -6.2586911    4135.0174            5 
  769000   0.97961008   -6.2732661    4151.9294            4 
  770000    0.9883194   -6.2637249    4155.8073            8 
  771000   0.97186192   -6.2700276    4157.3361            6 
  772000    1.0018207   -6.2691824    4152.6511            3 
  773000    1.0295282   -6.2437322    4159.6453            6 
  774000    1.0011668   -6.2662205    4161.9404           15 
  775000   0.99847471   -6.2899413    4142.1434            8 
  776000   0.99123035   -6.2680362    4141.6612           10 
  777000    1.0047809    -6.281728    4149.0225            9 
  778000    1.0093219   -6.2632097    4157.8534            6 
  779000    1.0065128   -6.2625177    4164.6028            5 
  780000   0.98339508   -6.2396213    4158.4421            5 
  781000   0.99087591   -6.2498401    4138.9076           13 
  782000   0.98077415   -6.2606729     4154.888            4 
  783000   0.99351731   -6.3170408    4137.7494           15 
  784000    1.0201517   -6.2786442    4159.3753            8 
  785000   0.98414349   -6.2440648    4161.1369            7 
  786000   0.98667635   -6.2923372    4158.8503            4 
  787000    1.0220509   -6.2552376    4157.4547            6 
  788000    0.9995457    -6.268122    4177.6728           12 
  789000    1.0018615   -6.2822319    4157.3031            3 
  790000     1.007355   -6.2851179    4162.4025            6 
  791000    1.0176609   -6.2959765    4147.2021            7 
  792000    1.0005083    -6.290173       4159.7            9 
  793000    1.0093881   -6.2254279    4172.4769            8 
  794000    1.0094601   -6.2581738     4152.406            6 
  795000     1.005314   -6.2779742    4162.1166            8 
  796000   0.98779857   -6.2477862    4137.5583           10 
  797000   0.99782942   -6.2909964    4135.1537            4 
  798000   0.99555747   -6.3261245    4146.7381            4 
  799000    1.0227433   -6.2483325    4166.6859            4 
  800000   0.99358598   -6.2875492    4155.9299            5 
  801000   0.99172581   -6.2713858    4156.6433           12 
  802000   0.98411201    -6.265615    4150.0889            6 
  803000   0.97660067   -6.2653433    4160.3501            6 
  804000   0.98656175   -6.2749139    4161.3955            6 
  805000    1.0257126   -6.3244516     4145.625            7 
  806000   0.98888999   -6.2591129    4174.7756            7 
  807000     1.002482   -6.2828416    4165.7582            6 
  808000    1.0193034   -6.2844605    4141.3471            6 
  809000   0.99371102   -6.2578056    4158.1145            2 
  810000    1.0054516   -6.2347523    4161.5751            4 
  811000    0.9864149   -6.2331808    4158.7249            9 
  812000   0.99098227   -6.2906742    4159.0563            5 
  813000    1.0073671   -6.2872903    4141.9393            8 
  814000    0.9919354   -6.2422056    4155.2578            5 
  815000   0.98252277   -6.2659203    4155.3519            6 
  816000   0.98631961   -6.2305916      4158.49            9 
  817000   0.98628069   -6.2868474     4144.769            6 
  818000   0.99861259   -6.2879734    4154.9709            3 
  819000   0.99737392   -6.2663849    4140.9142            4 
  820000     1.007658   -6.2980119    4142.6558            6 
  821000   0.98590042   -6.2574949    4160.6104            9 
  822000   0.99778295   -6.2642366    4148.2013           11 
  823000   0.99626319   -6.2800549    4169.6598            3 
  824000    1.0059052   -6.2931775    4153.8115            5 
  825000   0.98362582   -6.2740475    4145.7102            3 
  826000    0.9852335   -6.2794502    4156.1834            6 
  827000   0.99163522   -6.3197663    4139.2322            4 
  828000   0.99665364   -6.2579286    4148.7151            6 
  829000    1.0112385   -6.2670977    4144.0002            5 
  830000   0.97021686   -6.2878467    4139.7529            6 
  831000   0.99160929   -6.2748304    4141.6163           12 
  832000    0.9866368   -6.2591049    4149.4973           10 
  833000    0.9988783   -6.2522936    4160.7754            7 
  834000   0.99393091   -6.2433539    4162.9639            4 
  835000    0.9989792   -6.2450628    4160.5479            4 
  836000    1.0044423   -6.2606126    4150.0628            4 
  837000    1.0294864   -6.2871635    4146.3031            6 
  838000   0.97924585   -6.2272073    4159.9562            6 
  839000   0.99169134   -6.2853597    4145.8854            7 
  840000    0.9864202   -6.2717838    4149.4907            5 
  841000   0.98328595   -6.2543987    4152.3356            9 
  842000     1.005308   -6.3015122    4152.1971            6 
  843000   0.99390413   -6.2882432     4155.159            6 
  844000    0.9957876   -6.2829316    4143.0635            8 
  845000    0.9945547    -6.251446    4164.8017           13 
  846000     1.004353    -6.288623    4164.0633            4 
  847000    1.0258092   -6.2704894    4159.3973            6 
  848000    1.0208596   -6.2947358    4161.2773            7 
  849000   0.99651841   -6.2556372     4164.454           17 
  850000      1.01303   -6.2510474    4160.5907            9 
  851000   0.98330664   -6.2686123    4142.1077            8 
  852000    1.0186631   -6.2658981     4167.068            9 
  853000    0.9943689   -6.2712052    4157.2752            7 
  854000    1.0163304   -6.2730413    4144.3408            9 
  855000   0.98525161   -6.2956041    4153.0586            5 
  856000    1.0039131   -6.2680814    4140.8859            4 
  857000    1.0286385   -6.2553665    4151.3073            5 
  858000    1.0036413   -6.2948413    4155.2626           11 
  859000    1.0328423   -6.2633557    4138.9781            7 
  860000    1.0088748   -6.2725813    4151.9267           18 
  861000   0.98672422   -6.2690445    4148.7988            3 
  862000    1.0020125   -6.2788917    4135.7851            5 
  863000    1.0004385   -6.2406841    4175.7267            6 
  864000    0.9882826   -6.2871606    4154.8846           14 
  865000    1.0093106   -6.2737085    4152.7972            3 
  866000   0.98832695   -6.2395376    4160.6002            8 
  867000     1.009508   -6.2733643    4144.1783           13 
  868000    0.9960136    -6.286492    4153.1364            8 
  869000    1.0190408   -6.2599603    4166.2598            7 
  870000    1.0089118   -6.2987489    4163.4807            6 
  871000    1.0008007   -6.2616651    4153.2642            6 
  872000    1.0007772   -6.2406256    4156.9694            7 
  873000    1.0149251   -6.2468495    4162.1183           10 
  874000   0.98384208   -6.2545147    4159.8586           13 
  875000    1.0156578   -6.2978949    4150.1972           19 
  876000   0.98235376   -6.3067011    4143.4097            8 
  877000    1.0051229   -6.2857383    4142.9127            4 
  878000    1.0293225   -6.2451124     4168.179            3 
  879000   0.99340651   -6.2755122    4157.2086            4 
  880000    1.0022066    -6.289734    4153.7006            5 
  881000    1.0199935    -6.222638    4161.2345            8 
  882000   0.97967316   -6.3121172    4145.7552            9 
  883000   0.98185647   -6.2794523     4147.601            4 
  884000    1.0222766   -6.3017506    4141.2301            6 
  885000   0.98438954   -6.2918368    4152.0756           12 
  886000   0.99460142   -6.3198732    4143.1279            7 
  887000    1.0039217   -6.2459317    4164.5134            4 
  888000   0.98064458   -6.2494292    4167.2316           11 
  889000    1.0210876   -6.2607362    4165.2493           14 
  890000   0.97620682   -6.2790814    4154.3761            5 
  891000    1.0041863   -6.2820378    4162.3348            5 
  892000    1.0320658   -6.2532817    4164.9791            7 
  893000   0.99370358   -6.2682618    4145.4059            8 
  894000   0.99572455    -6.276617    4168.4788            5 
  895000   0.99975856   -6.2750993    4135.7236            9 
  896000    1.0152864   -6.2952826    4144.4169            4 
  897000    0.9899622   -6.2979356    4137.6871            7 
  898000   0.98388677   -6.2607962    4152.1055           10 
  899000    1.0000986   -6.2446269    4142.1591            5 
  900000    1.0018328   -6.2612831    4166.2055            3 
  901000    1.0004016   -6.2995172    4147.3018           10 
  902000    1.0035497   -6.2667569    4151.2096            5 
  903000   0.99187668   -6.2796629    4143.0558           13 
  904000   0.99848138    -6.279981     4151.156            7 
  905000    1.0052918   -6.2572386    4149.2231            4 
  906000   0.99343912   -6.3035647    4127.9896           11 
  907000    1.0150466   -6.2977573      4161.18           14 
  908000   0.97162199   -6.2913935    4155.4238            6 
  909000    1.0079613   -6.2862325    4147.5771            4 
  910000   0.99866063   -6.2749243    4159.4261           11 
  911000   0.97285014    -6.244084    4149.2711           11 
  912000   0.99767212    -6.263021    4163.2053           14 
  913000    1.0359005   -6.2264523    4171.2265            9 
  914000    1.0028564   -6.2941003    4144.9036            8 
  915000   0.99019218   -6.2418922    4148.5328            6 
  916000   0.99594837   -6.2711242    4158.6144            6 
  917000    1.0022324   -6.2989197    4136.2756            5 
  918000    1.0033623   -6.2744057    4151.6388            8 
  919000   0.98505866   -6.2595015    4137.2814            9 
  920000   0.99244697   -6.2805121    4140.8214            6 
  921000    1.0061722   -6.2730826    4161.1791            9 
  922000    0.9819198   -6.2654888    4148.2842            8 
  923000    1.0055923   -6.2777576    4142.7562            4 
  924000    1.0120962   -6.2864974    4143.3161            6 
  925000    1.0199003   -6.2961866    4161.3249            7 
  926000   0.98798833   -6.2669342     4171.722           20 
  927000    1.0128441   -6.2675091    4147.4464            4 
  928000   0.99094541   -6.2865381     4152.554            5 
  929000    1.0119708   -6.2650356    4160.0752            6 
  930000   0.96816069   -6.2705469    4164.0051            5 
  931000   0.99081174   -6.2569993    4150.7003            7 
  932000   0.97650524   -6.2863264    4149.2296            8 
  933000    1.0069061   -6.2377637    4171.6689            5 
  934000    1.0108352   -6.2483591    4149.5211           10 
  935000   0.98668553   -6.2880981    4149.0277            7 
  936000    1.0166425   -6.2668936    4154.2996           16 
  937000    1.0058276   -6.2627256    4143.5629            5 
  938000    1.0080246    -6.241552    4170.6903            7 
  939000   0.99430898   -6.2646525    4143.2757           10 
  940000    1.0081331   -6.2748722    4136.5466           13 
  941000    1.0035824   -6.2591885    4173.9997           14 
  942000    1.0035934   -6.2616981    4149.8984            5 
  943000    1.0030395   -6.2659107     4151.063            4 
  944000   0.98166636   -6.2686367    4146.8902            6 
  945000    1.0035391   -6.2557182    4150.6145            9 
  946000   0.98969611   -6.2850372    4140.5844            5 
  947000     1.019468   -6.2680907    4143.3396            4 
  948000   0.98786513   -6.2949546     4145.809            8 
  949000   0.98654098   -6.2596797    4153.7059            6 
  950000    1.0076373   -6.2686054    4151.5329            8 
  951000   0.98527048   -6.2712444    4150.9186            5 
  952000   0.97907167   -6.2674727    4150.9444           15 
  953000   0.98293111   -6.2783487    4145.1307           11 
  954000   0.97723318   -6.3002585    4149.6475            8 
  955000   0.99228219   -6.2521624    4134.3473            5 
  956000   0.99998811   -6.2351166    4164.9634            6 
  957000   0.97813498   -6.2550574    4163.1329            7 
  958000     1.008537   -6.2568193    4150.8416           15 
  959000    1.0101412    -6.272858    4136.5874            8 
  960000    1.0089035   -6.2619935    4142.6618            4 
  961000    1.0010144   -6.2864547    4146.0723            7 
  962000   0.98732309   -6.2542955    4138.8409           15 
  963000    1.0221208   -6.2891891    4150.7902            5 
  964000    1.0239448   -6.2540062    4163.3028           11 
  965000    0.9814964   -6.2363973    4160.1933            3 
  966000   0.98305335   -6.2992488     4143.866            8 
  967000    1.0062259   -6.2751088    4163.2218            3 
  968000   0.98645334   -6.2798051    4144.1722            8 
  969000    1.0086174   -6.2518685    4162.5509            8 
  970000    1.0076989   -6.2895563    4138.0596            5 
  971000     1.016395   -6.2648366    4148.6759            5 
  972000    1.0215783   -6.2824561    4158.4734            9 
  973000   0.97617561   -6.3195373    4143.0465            8 
  974000    1.0132101   -6.2262491    4167.5049           12 
  975000    1.0069717   -6.2576354    4145.4141            5 
  976000   0.99312427   -6.2398802    4150.6313            9 
  977000   0.99962965   -6.2530958    4141.6089            7 
  978000   0.99516461   -6.2632803    4155.4334            8 
  979000    0.9946924   -6.2906796    4134.6085            4 
  980000   0.98283717   -6.2563076    4149.9664           10 
  981000    1.0194225   -6.2692709    4159.1552            9 
  982000   0.98185113   -6.2856113    4151.5928            5 
  983000    1.0178615   -6.2476929    4177.3144            5 
  984000   0.99619482   -6.2753121     4151.588            6 
  985000    1.0190616   -6.2851384    4145.4868            9 
  986000    1.0062425   -6.2856049    4152.0265            3 
  987000   0.99592503   -6.2829746    4145.9545            9 
  988000   0.99775314   -6.2846133     4142.022           11 
  989000    1.0086604    -6.283981    4134.9947            5 
  990000    1.0366427   -6.2654897    4154.5471            7 
  991000   0.99786877   -6.2476436    4156.6801            6 
  992000   0.98574694   -6.2510402    4139.5609            4 
  993000    1.0023438   -6.3131072    4139.1013            6 
  994000   0.99147169   -6.2867267    4152.5235            7 
  995000   0.99988871    -6.283724    4157.0373            4 
  996000   0.99472358   -6.2595512    4152.8771            2 
  997000   0.99852342   -6.2640723    4147.4544            7 
  998000    1.0091324   -6.3012726    4148.5425            9 
  999000   0.99975597   -6.2354664    4156.4832           10 
 1000000   0.99055315   -6.2692942    4148.1421            7 
 1001000   0.99484533   -6.2661149     4158.848            8 
 1002000   0.98463383    -6.255109    4161.2334            5 
 1003000   0.99652531   -6.2617938    4154.1846            9 
 1004000   0.99732204   -6.2635514     4164.282            8 
Loop time of 2079.99 on 48 procs for 1000000 steps with 4000 atoms

Performance: 83077.237 tau/day, 480.771 timesteps/s
99.4% CPU use with 48 MPI tasks x no OpenMP threads

MPI task timing breakdown:
Section |  min time  |  avg time  |  max time  |%varavg| %total
---------------------------------------------------------------
Pair    | 126.46     | 133.79     | 144.71     |  47.3 |  6.43
Neigh   | 14.795     | 14.975     | 15.504     |   3.1 |  0.72
Comm    | 119.29     | 127.9      | 135.62     |  43.2 |  6.15
Output  | 1.2488     | 1.25       | 1.2674     |   0.2 |  0.06
Modify  | 1773.3     | 1781.1     | 1789.5     |  10.1 | 85.63
Other   |            | 20.93      |            |       |  1.01

Nlocal:        83.3333 ave          89 max          76 min
Histogram: 2 0 1 11 7 3 12 6 2 4
Nghost:        1602.10 ave        1615 max        1586 min
Histogram: 1 2 8 2 10 3 8 3 7 4
Neighs:        9156.96 ave        9935 max        8310 min
Histogram: 2 1 4 7 11 6 4 8 2 3
FullNghs:      18313.8 ave       19931 max       16399 min
Histogram: 1 1 1 13 6 7 7 8 2 2

Total # of neighbors = 879062
Ave neighs/atom = 219.76550
Neighbor list builds = 59714
Dangerous builds = 0

#clear
#
#next RN
#
#jump SELF
Total wall time: 0:34:41
