
units lj                  # Use reduced LJ style units
atom_style atomic         # Uncharged point particles
atom_modify map hash      # Needed for indexing of clusters etc
                          # Used to be able to find where atoms are in relation to each other.

# Define a lattice with which to populate the simulation cell. With units
# set to 'lj' the second argument to the lattice command is the reduced
# density rho* and the spacings are multiples of that required to acheive
# that density. Also define a simulation cell called 'box' in lattice units
# and fill it with atoms. Here we're creating a box which is ten lattice
# constants in each direction.
lattice fcc 1.0 spacing 1 1 1                 # All equal sizes - gives the right reduced density.
Lattice spacing in x,y,z = 1.5874011 1.5874011 1.5874011

region box block 0 10 0 10 0 10 units lattice # Defines a region, "box", in lattice units
create_box 1 box                              # Creates a simulation box as specified above,
Created orthogonal box = (0.0000000 0.0000000 0.0000000) to (15.874011 15.874011 15.874011)
  3 by 4 by 4 MPI processor grid
                                              # with one type of atom
create_atoms 1 box                            # Creates particles on lattice points
Created 4000 atoms
  using lattice units in orthogonal box = (0.0000000 0.0000000 0.0000000) to (15.874011 15.874011 15.874011)
  create_atoms CPU = 0.002 seconds


# Set the mass of the first (and only) atom type.
mass 1 1.0

# Lennard-Jones interactions between particles, 3.5 sigma cut-off. Apply
# long range tail corrections to energy and pressure and set all coefficients
# to unity since we work in reduced units here. Note that this doesn't shift
# the potential such that it goes to zero at the cutoff. That would require
# pair_modify('shift', 'yes').
pair_style lj/cut  3.5      # non-GPU version
pair_modify tail  yes
pair_coeff 1  1  1.0  1.0   # Intearaction between 1 and 1 set with epsilon = 1 and sigma = 1

write_data data.*
System init for write_data ...
Neighbor list info ...
  update every 1 steps, delay 10 steps, check yes
  max neighbors/atom: 2000, page size: 100000
  master list distance cutoff = 3.8
  ghost atom cutoff = 3.8
  binsize = 1.9, bins = 9 9 9
  1 neighbor lists, perpetual/occasional/extra = 1 0 0
  (1) pair lj/cut, perpetual
      attributes: half, newton on
      pair build: half/bin/atomonly/newton
      stencil: half/bin/3d
      bin: standard

#############################
#   M E L T   S Y S T E M   #
#############################

velocity all create 2.4 1741580 mom yes dist gaussian # Assign velocities
                                                    # Temperature 2.4, random number seed, zero linear momentum
						                                                        # Gaussian distribution

timestep 0.002   # simulation timestep
thermo 1000       # output thermodynamic data every 1000 steps

# Define a fix  in this case with index 1 applied to all
# particles in the simulation. This fix is for simulations
# in the anisotropic NPT ensemble. Note that we use the MTK
# correction.
fix 1 all npt temp 2.4 2.4 0.1 iso 5.68 5.68 0.5 mtk yes tchain 5 pchain 5 # Use NPT ensemble
                                                                         # Set temperature and pressure and damping
                                                                         # Numbers of thermostats in chain and in barostat
run 1000         # run for 10000 steps
Per MPI rank memory allocation (min/avg/max) = 3.642 | 3.644 | 3.648 Mbytes
Step Temp E_pair E_mol TotEng Press Volume 
       0          2.4   -8.3859253            0   -4.7868253   -2.2405722         4000 
    1000    2.3665579   -4.4849007            0  -0.93595129    5.3827989    5183.0868 
Loop time of 0.225712 on 48 procs for 1000 steps with 4000 atoms

Performance: 765578.162 tau/day, 4430.429 timesteps/s
99.2% CPU use with 48 MPI tasks x no OpenMP threads

MPI task timing breakdown:
Section |  min time  |  avg time  |  max time  |%varavg| %total
---------------------------------------------------------------
Pair    | 0.088632   | 0.099532   | 0.1082     |   1.2 | 44.10
Neigh   | 0.017718   | 0.018953   | 0.020125   |   0.4 |  8.40
Comm    | 0.065112   | 0.074505   | 0.083945   |   1.5 | 33.01
Output  | 2.5331e-05 | 2.5997e-05 | 3.5036e-05 |   0.0 |  0.01
Modify  | 0.028719   | 0.031173   | 0.03398    |   0.8 | 13.81
Other   |            | 0.001523   |            |       |  0.67

Nlocal:        83.3333 ave          91 max          76 min
Histogram: 3 1 5 5 12 3 10 3 4 2
Nghost:        1382.46 ave        1409 max        1358 min
Histogram: 1 2 4 9 12 9 4 3 2 2
Neighs:        7343.96 ave        8183 max        6423 min
Histogram: 2 0 5 9 7 7 5 7 4 2

Total # of neighbors = 352510
Ave neighs/atom = 88.127500
Neighbor list builds = 88
Dangerous builds = 18

# Equilibrate just above the melting temperature to avoid step fn in T

fix 1 all npt temp 1.25 1.25 0.1 iso 5.68 5.68 0.5 mtk yes tchain 5 pchain 5
run 1000
Per MPI rank memory allocation (min/avg/max) = 3.642 | 3.644 | 3.648 Mbytes
Step Temp E_pair E_mol TotEng Press Volume 
    1000    2.3665579   -4.4849007            0  -0.93595129    5.3827989    5183.0868 
    2000    1.2409378   -5.8351603            0   -3.9742191    5.6352422    4349.8189 
Loop time of 0.215346 on 48 procs for 1000 steps with 4000 atoms

Performance: 802430.048 tau/day, 4643.692 timesteps/s
99.6% CPU use with 48 MPI tasks x no OpenMP threads

MPI task timing breakdown:
Section |  min time  |  avg time  |  max time  |%varavg| %total
---------------------------------------------------------------
Pair    | 0.092145   | 0.099488   | 0.11099    |   1.2 | 46.20
Neigh   | 0.015569   | 0.016333   | 0.018757   |   0.4 |  7.58
Comm    | 0.063011   | 0.074302   | 0.083271   |   1.8 | 34.50
Output  | 2.7128e-05 | 2.7914e-05 | 4.0767e-05 |   0.0 |  0.01
Modify  | 0.018534   | 0.023257   | 0.027464   |   1.8 | 10.80
Other   |            | 0.001938   |            |       |  0.90

Nlocal:        83.3333 ave          92 max          76 min
Histogram: 3 4 3 11 3 10 8 2 3 1
Nghost:        1552.58 ave        1572 max        1532 min
Histogram: 3 2 3 5 7 13 5 4 0 6
Neighs:        8747.67 ave        9575 max        7948 min
Histogram: 5 1 3 11 5 4 9 4 4 2

Total # of neighbors = 419888
Ave neighs/atom = 104.97200
Neighbor list builds = 75
Dangerous builds = 9


# Small amount of linear quench

fix 1 all npt temp 1.25 ${temp} 0.1 iso 5.68 5.68 0.5 mtk yes tchain 5 pchain 5
fix 1 all npt temp 1.25 0.02 0.1 iso 5.68 5.68 0.5 mtk yes tchain 5 pchain 5
run 2000
Per MPI rank memory allocation (min/avg/max) = 3.643 | 3.645 | 3.648 Mbytes
Step Temp E_pair E_mol TotEng Press Volume 
    2000    1.2409378   -5.8351603            0   -3.9742191    5.6352422    4349.8189 
    3000   0.75348024   -6.5686144            0   -5.4386766     5.644522    4033.2424 
    4000   0.15682287   -7.4350281            0   -7.1998526    5.6090118    3728.0432 
Loop time of 0.452237 on 48 procs for 2000 steps with 4000 atoms

Performance: 764200.723 tau/day, 4422.458 timesteps/s
99.7% CPU use with 48 MPI tasks x no OpenMP threads

MPI task timing breakdown:
Section |  min time  |  avg time  |  max time  |%varavg| %total
---------------------------------------------------------------
Pair    | 0.21083    | 0.22476    | 0.24103    |   1.2 | 49.70
Neigh   | 0.022229   | 0.023002   | 0.023926   |   0.3 |  5.09
Comm    | 0.13838    | 0.15326    | 0.16831    |   1.8 | 33.89
Output  | 4.671e-05  | 4.778e-05  | 6.0309e-05 |   0.0 |  0.01
Modify  | 0.039795   | 0.045552   | 0.054492   |   1.6 | 10.07
Other   |            | 0.005614   |            |       |  1.24

Nlocal:        83.3333 ave          89 max          79 min
Histogram: 6 3 4 11 3 3 6 2 5 5
Nghost:        1722.94 ave        1741 max        1710 min
Histogram: 5 5 6 8 8 5 5 2 2 2
Neighs:        10330.4 ave       11171 max        9630 min
Histogram: 7 1 6 9 4 6 6 3 3 3

Total # of neighbors = 495860
Ave neighs/atom = 123.96500
Neighbor list builds = 100
Dangerous builds = 0

#############################
# F R E E Z E  S Y S T E M  #
#############################

# Define solid atoms. This closely follows ten Wolde  Ruiz-Montero and Frenkel  Faraday Discuss  1996  104  93-110
# Compute components of the per-atom q6 vector
compute q6 all orientorder/atom degrees 1 6 components 6 nnn NULL cutoff 1.3 # compute the Q6 parameter.
                                                                             # Use all neighbours within 1.3 unit cell.

# get number of connections
compute coord_number all coord/atom orientorder q6 0.5

# An atom is solid if it has 8 or more connections (of a possible 14)
variable is_solid atom c_coord_number>=8
group solid dynamic all var is_solid    # Must be dynamic to update
dynamic group solid defined

# do clustering
compute cluster solid cluster/atom 1.3 # Create a cluster where all atoms within are solid and max 1.3 units from another member

# define chunks one chunk per cluster
compute clus_chunks solid chunk/atom c_cluster nchunk every compress yes  # Says which atoms are in which chunk

# count the size of each chunk
compute size_chunks solid property/chunk clus_chunks count


# Find the maximum entry in the vector of chunk sizes
variable max_n equal max(c_size_chunks)


# Thermo style which includes this variable
thermo_style custom step temp pe vol v_max_n

thermo ${N}  # Print the thermo information every 100 steps
thermo 1000  

# Reset the npt fix at a lower temperature (below freezing)
fix 1  all npt temp  ${temp} ${temp}  0.1  iso  5.68  5.68  0.5  mtk yes tchain  5  pchain  5
fix 1  all npt temp  0.02 ${temp}  0.1  iso  5.68  5.68  0.5  mtk yes tchain  5  pchain  5
fix 1  all npt temp  0.02 0.02  0.1  iso  5.68  5.68  0.5  mtk yes tchain  5  pchain  5

dump dmp2 all dcd ${N} traj_${rand}.dcd
dump dmp2 all dcd 1000 traj_${rand}.dcd
dump dmp2 all dcd 1000 traj_462431.dcd


# fix rnuntil all halt ${N} v_max_n >= 3980 error soft message no   # Stop when solidified


run 1000000 # 5000000  # Run for this many steps
Neighbor list info ...
  update every 1 steps, delay 10 steps, check yes
  max neighbors/atom: 2000, page size: 100000
  master list distance cutoff = 3.8
  ghost atom cutoff = 3.8
  binsize = 1.9, bins = 9 9 9
  4 neighbor lists, perpetual/occasional/extra = 1 3 0
  (1) pair lj/cut, perpetual
      attributes: half, newton on
      pair build: half/bin/atomonly/newton
      stencil: half/bin/3d
      bin: standard
  (2) compute orientorder/atom, occasional
      attributes: full, newton on
      pair build: full/bin/atomonly
      stencil: full/bin/3d
      bin: standard
  (3) compute coord/atom, occasional
      attributes: full, newton on
      pair build: full/bin/atomonly
      stencil: full/bin/3d
      bin: standard
  (4) compute cluster/atom, occasional
      attributes: full, newton on
      pair build: full/bin/atomonly
      stencil: full/bin/3d
      bin: standard
Per MPI rank memory allocation (min/avg/max) = 9.395 | 9.399 | 9.403 Mbytes
Step Temp PotEng Volume v_max_n 
    4000   0.15682287   -7.4350281    3728.0432           26 
    5000  0.023319648   -7.6398776    3659.8597           51 
    6000  0.020363909   -7.6693732    3652.8053           89 
    7000   0.01952442   -7.6855499    3650.3669          183 
    8000  0.019947029   -7.6964556    3646.8689          297 
    9000  0.020217392    -7.701896    3643.3039          220 
   10000  0.020326939   -7.7044742    3641.6331          161 
   11000  0.020993386   -7.7110195     3640.964          221 
   12000  0.020280188   -7.7152583     3640.876          216 
   13000  0.020184963   -7.7163849    3640.4179          428 
   14000  0.020607201   -7.7204579    3640.9851          247 
   15000  0.020166343   -7.7221214    3638.5516          381 
   16000  0.019898357   -7.7232167    3637.5812          388 
   17000  0.020177262    -7.726005    3637.0401          564 
   18000  0.019717535   -7.7271637    3634.8997          585 
   19000  0.019697621   -7.7293133    3635.9595          637 
   20000  0.019946846   -7.7318558    3636.2635          646 
   21000  0.019643455    -7.732473    3635.8427          657 
   22000  0.020263773   -7.7351312    3636.7918          701 
   23000  0.019647435   -7.7342877     3635.308          670 
   24000  0.020050582   -7.7361426    3634.3689          733 
   25000  0.019864238   -7.7355632    3633.7583          728 
   26000  0.020239357   -7.7360459    3633.6059          753 
   27000  0.020271895   -7.7366212    3632.8137          735 
   28000  0.019936589   -7.7374035    3631.9037          737 
   29000  0.019527177    -7.738726    3632.7637          773 
   30000  0.020336538    -7.740311     3633.395          779 
   31000  0.019903141   -7.7419499    3633.7453          787 
   32000  0.019872331   -7.7423269     3634.152          779 
   33000  0.020134325   -7.7419551    3633.9488          809 
   34000  0.019770993   -7.7438986    3634.9974          789 
   35000  0.019584304   -7.7417662    3633.2118          813 
   36000  0.020248236   -7.7411531    3632.6784          809 
   37000  0.020072494   -7.7397897    3631.5612          823 
   38000  0.020040427   -7.7404274    3632.4792          810 
   39000  0.019830799    -7.738994     3631.768          806 
   40000  0.019463955   -7.7407263    3632.7504          800 
   41000  0.019993239   -7.7412958    3632.4996          799 
   42000  0.019982018   -7.7418745    3632.8951          810 
   43000   0.02001139   -7.7425077     3634.153          816 
   44000   0.02000746   -7.7421455    3633.3189          813 
   45000  0.019933752   -7.7425749    3634.3269          782 
   46000  0.019932057   -7.7414695    3632.9819          802 
   47000  0.020416325   -7.7417966    3632.9384          774 
   48000  0.020324217   -7.7408327    3632.4654          817 
   49000  0.020170811   -7.7396029    3632.3219          804 
   50000  0.020123146   -7.7403106    3632.4115          781 
   51000  0.020136029   -7.7394871    3631.4695          820 
   52000  0.020176621   -7.7409045    3632.8436          803 
   53000  0.020104019   -7.7417109    3632.9035          803 
   54000  0.019890067   -7.7413417    3633.0819          801 
   55000  0.020103785   -7.7434016    3634.5766          795 
   56000  0.019954182   -7.7416295    3633.6396          802 
   57000  0.019816285   -7.7423839    3633.8386          796 
   58000  0.020105499   -7.7416349    3633.0593          774 
   59000  0.020063691   -7.7416832    3632.5246          789 
   60000  0.019830696   -7.7405395    3632.4747          792 
   61000  0.020011948   -7.7409502    3632.2783          811 
   62000  0.019994319   -7.7398949    3631.8904          785 
   63000  0.020005977    -7.740966     3632.173          820 
   64000  0.019861868   -7.7407687     3632.556          806 
   65000  0.019756815   -7.7415714    3632.9593          806 
   66000  0.019872741    -7.742614    3633.7236          791 
   67000  0.020139691   -7.7420051    3633.8915          815 
   68000  0.020439728   -7.7417167    3633.3757          795 
   69000  0.019770764   -7.7426669    3633.5401          796 
   70000  0.019627783   -7.7422684    3633.0219          790 
   71000  0.019838043    -7.741819    3632.3453          801 
   72000    0.0198741   -7.7402094    3631.9708          781 
   73000  0.020267577   -7.7384526    3630.9263          794 
   74000  0.019893764   -7.7408233    3632.1484          811 
   75000  0.019903066   -7.7407171    3632.3641          778 
   76000  0.020560121    -7.741428    3632.8924          810 
   77000  0.020417174   -7.7420877    3633.8915          813 
   78000  0.019804005   -7.7442964     3634.891          813 
   79000  0.019745194   -7.7427219    3633.8679          789 
   80000  0.019775349   -7.7420384    3633.5468          796 
   81000  0.019868489   -7.7427683    3633.7703          790 
   82000  0.020028849   -7.7418089    3632.7139          808 
   83000  0.019886726   -7.7403262    3632.7882          787 
   84000  0.020005466    -7.739427    3631.5667          785 
   85000  0.019689915    -7.740705    3632.5198          821 
   86000  0.019916796   -7.7403127    3632.0475          781 
   87000  0.019749723   -7.7408515    3632.8832          798 
   88000  0.019935256   -7.7416379    3633.2918          791 
   89000  0.019972925   -7.7419877      3633.06          797 
   90000  0.019891004   -7.7430888    3634.4566          783 
   91000  0.020108325   -7.7416521    3633.3741          795 
   92000  0.020009735   -7.7420119    3633.7431          804 
   93000  0.020230977   -7.7412071    3632.9691          791 
   94000  0.020092355   -7.7409296    3632.5421          813 
   95000  0.019813551   -7.7408527    3632.6214          804 
   96000  0.020300854   -7.7388819    3631.4995          783 
   97000   0.02014439   -7.7410996    3632.6304          808 
   98000  0.020452527   -7.7414129    3632.6046          810 
   99000  0.019447789   -7.7420895     3632.887          796 
  100000  0.020354264   -7.7429973    3633.7805          820 
  101000  0.020032091   -7.7410351    3633.2322          814 
  102000  0.020129023   -7.7424545    3633.7982          796 
  103000  0.019954481   -7.7422147    3633.7579          813 
  104000    0.0202653   -7.7416463    3633.2974          810 
  105000  0.020264014   -7.7412333    3632.7105          812 
  106000  0.020067269   -7.7409271    3632.8538          793 
  107000   0.01977885   -7.7398613    3631.5273          785 
  108000  0.019731943    -7.740238    3632.7637          809 
  109000  0.020102624   -7.7399367    3631.8147          808 
  110000  0.020014487    -7.741101    3632.8341          802 
  111000  0.020289806   -7.7419011    3633.2254          827 
  112000  0.019952629   -7.7428898    3633.4928          805 
  113000  0.020139719   -7.7424042    3633.8338          811 
  114000  0.020334482    -7.742657    3633.9923          810 
  115000  0.019799262   -7.7427761    3633.8907          820 
  116000  0.019775151   -7.7423762    3633.1895          781 
  117000  0.020121146   -7.7408659    3632.5885          757 
  118000  0.020092563   -7.7404224    3632.4905          809 
  119000  0.019703498   -7.7394483    3631.4628          820 
  120000  0.019824623   -7.7410266     3632.756          781 
  121000  0.020142139     -7.74111    3632.3528          813 
  122000  0.020391789   -7.7412439    3632.9981          816 
  123000  0.019683535   -7.7431895    3633.8666          803 
  124000  0.020032648   -7.7415418    3633.2729          836 
  125000  0.019769033   -7.7434324    3634.5767          795 
  126000  0.019706949   -7.7422925    3633.1466          809 
  127000   0.02011736   -7.7416812    3633.5211          803 
  128000  0.020046607   -7.7402943    3632.5835          810 
  129000  0.020014453   -7.7401304    3632.2315          796 
  130000   0.02042116   -7.7406802    3632.2456          811 
  131000  0.020013317   -7.7392869    3631.4308          798 
  132000  0.019965966    -7.739038    3630.7442          795 
  133000  0.020419755   -7.7412193    3632.7348          810 
  134000  0.020064636   -7.7418582    3633.1191          787 
  135000  0.019361758   -7.7436307    3634.2666          788 
  136000  0.019682994   -7.7423909     3633.524          788 
  137000  0.020342142   -7.7429606    3633.8181          807 
  138000  0.020238994   -7.7418303    3632.9973          806 
  139000  0.019591923    -7.741339    3633.4129          802 
  140000  0.020296316   -7.7412718    3632.8375          787 
  141000  0.019820128   -7.7401877     3632.027          790 
  142000   0.01992027   -7.7411146     3632.664          794 
  143000  0.020341704   -7.7392334    3631.5633          781 
  144000   0.02002336   -7.7406292    3632.6927          764 
  145000   0.01977752   -7.7411837    3632.6689          809 
  146000  0.020670152    -7.742764    3634.0165          787 
  147000  0.020087584   -7.7431566    3633.8672          808 
  148000  0.020078628   -7.7428507    3633.3865          779 
  149000  0.019872122   -7.7425603    3634.1281          807 
  150000  0.020130503   -7.7412374    3633.1185          806 
  151000  0.020250957   -7.7414771    3633.0637          791 
  152000  0.020031937   -7.7412107     3632.659          789 
  153000   0.02013668    -7.740139    3631.9151          778 
  154000  0.020192419    -7.740358    3632.5777          814 
  155000  0.020108955   -7.7399256    3631.6742          797 
  156000  0.019644903   -7.7409453    3632.7866          780 
  157000  0.020406371   -7.7420701    3632.7456          805 
  158000  0.020197995   -7.7422112    3633.1788          809 
  159000  0.020188218   -7.7435189    3634.2917          793 
  160000  0.019759811   -7.7420166    3633.6435          791 
  161000   0.02018466   -7.7421087    3633.8239          797 
  162000  0.020168299   -7.7417296    3633.0219          798 
  163000  0.020080488   -7.7412999    3632.8044          810 
  164000  0.019702171   -7.7404695    3632.5799          806 
  165000  0.019973771   -7.7395222    3631.8926          809 
  166000  0.019929825   -7.7380236    3630.6718          795 
  167000  0.019947484   -7.7404647    3632.3985          813 
  168000  0.020018622   -7.7408426    3632.5456          787 
  169000  0.019808955    -7.741671    3633.1814          785 
  170000     0.020184   -7.7424014    3633.1535          769 
  171000  0.020353962   -7.7428241    3634.1261          804 
  172000  0.020272098   -7.7411622    3633.2794          793 
  173000  0.019869342    -7.742807     3633.525          803 
  174000  0.019733399   -7.7424134    3633.0982          769 
  175000  0.019323298   -7.7410068    3632.4571          772 
  176000   0.01997034   -7.7410412     3632.622          776 
  177000   0.02017304   -7.7393373     3631.589          782 
  178000  0.020038827   -7.7393927    3631.8452          772 
  179000  0.019956198   -7.7409132    3632.3495          792 
  180000  0.019312725   -7.7410558    3632.4707          805 
  181000   0.02009588   -7.7414273    3633.3378          815 
  182000  0.020059006    -7.742408    3633.3098          827 
  183000  0.020015791   -7.7442694    3634.6177          788 
  184000  0.020212006   -7.7413663      3633.53          799 
  185000  0.019903968   -7.7424025    3633.7927          788 
  186000  0.020006972   -7.7414813    3632.9776          805 
  187000  0.019924494    -7.741326    3633.0069          792 
  188000  0.019873019    -7.740049    3632.0826          819 
  189000  0.019950323   -7.7409998    3632.4527          811 
  190000  0.020190233   -7.7400832    3631.9976          799 
  191000  0.019868569    -7.741279    3632.8362          789 
  192000  0.019569488     -7.74198    3633.1587          810 
  193000  0.020242183   -7.7417623    3633.2172          796 
  194000  0.019858782   -7.7433491    3634.0587          790 
  195000  0.019771915    -7.742157    3633.0219          817 
  196000  0.020424875   -7.7424257    3633.6569          813 
  197000  0.020242657   -7.7413919    3633.2551          809 
  198000  0.019782462   -7.7410425    3632.4497          789 
  199000  0.019808764   -7.7405271    3632.0396          811 
  200000  0.019895836   -7.7403004    3631.9069          807 
  201000  0.020162441   -7.7404165    3631.7674          784 
  202000  0.019977987   -7.7411651     3631.515          807 
  203000  0.019843486   -7.7419223    3632.3527          796 
  204000  0.019697228   -7.7427632    3633.3125          797 
  205000  0.020012864   -7.7441052    3633.5647          843 
  206000   0.01993033   -7.7437108    3633.2579          824 
  207000  0.019989854   -7.7439933    3633.8047          821 
  208000  0.019990353   -7.7447141    3633.9723          799 
  209000  0.020061541   -7.7424444    3633.0119          817 
  210000   0.02015984   -7.7418303    3632.7725          820 
  211000   0.01995672   -7.7418204    3631.6238          842 
  212000   0.01963853   -7.7425473    3632.2574          814 
  213000  0.020052205   -7.7404987    3631.3493          798 
  214000  0.019996323   -7.7422232    3632.5251          816 
  215000  0.020124212   -7.7422747    3632.3348          814 
  216000  0.019492833   -7.7430656    3632.6727          787 
  217000  0.019894782   -7.7434834    3633.5569          831 
  218000  0.020129229   -7.7428376     3633.188          819 
  219000  0.020270146   -7.7449352    3634.1665          829 
  220000  0.020665247   -7.7425773    3633.0275          819 
  221000  0.019987396   -7.7430712    3633.1276          784 
  222000  0.020023394   -7.7420045    3632.7719          811 
  223000  0.020111125   -7.7413063    3632.3532          833 
  224000  0.020268598   -7.7403924    3631.1489          819 
  225000  0.019588976   -7.7414048    3632.6097          826 
  226000  0.020230148   -7.7422422    3632.3574          810 
  227000  0.020245565   -7.7415866    3632.3032          798 
  228000  0.019802271   -7.7426219     3632.766          799 
  229000  0.020164368   -7.7445771    3633.8702          833 
  230000  0.019866868   -7.7438147    3633.6519          825 
  231000  0.019862979   -7.7435854    3633.3679          821 
  232000  0.019541389   -7.7443177    3634.5197          827 
  233000  0.019952198   -7.7425502    3633.3341          835 
  234000   0.02035562   -7.7417088    3632.8183          823 
  235000  0.020139455   -7.7422456    3632.6981          845 
  236000  0.020241126   -7.7405973    3631.5156          811 
  237000  0.020004466   -7.7420792    3632.4512          809 
  238000  0.020223769   -7.7405152    3631.7525          804 
  239000  0.019813874   -7.7424937    3632.4989          800 
  240000   0.01996338   -7.7430255    3632.7447          807 
  241000  0.019753077   -7.7422284    3632.8503          839 
  242000  0.019462005   -7.7445856     3633.776          824 
  243000  0.020014958    -7.743246    3632.9815          836 
  244000  0.019662298   -7.7442881    3633.9729          824 
  245000  0.020217351   -7.7425251    3632.9306          827 
  246000  0.019813895   -7.7424076    3632.4329          823 
  247000  0.020062596   -7.7424595    3632.5188          802 
  248000  0.019534515   -7.7408951     3631.368          824 
  249000  0.020299155   -7.7425466    3632.5145          838 
  250000  0.019966313   -7.7426281    3632.5399          806 
  251000  0.019887312   -7.7424208    3632.3971          827 
  252000  0.019667224   -7.7422422    3632.9223          824 
  253000  0.020002445   -7.7439691    3633.4334          820 
  254000   0.02003932   -7.7427097    3633.0394          840 
  255000  0.019359303   -7.7431719    3633.3575          788 
  256000  0.020228148   -7.7443809     3633.726          827 
  257000  0.020171597   -7.7428333    3633.3697          804 
  258000  0.020335636   -7.7424075    3632.7546          822 
  259000   0.02036459   -7.7421351    3632.6541          795 
  260000  0.019512845    -7.741892    3632.4039          823 
  261000  0.020475255   -7.7410436    3631.1664          823 
  262000  0.020067961   -7.7424879    3632.1942          817 
  263000  0.019724425   -7.7415655    3632.4442          824 
  264000  0.020039396   -7.7426372    3632.6478          821 
  265000  0.020070538    -7.742711    3632.9082          817 
  266000  0.020200641   -7.7446265    3634.0533          813 
  267000  0.020347902   -7.7427159    3633.0251          800 
  268000  0.020112891   -7.7442229    3633.9026          819 
  269000  0.019760375   -7.7429157     3632.926          807 
  270000  0.020310632   -7.7426069    3632.6941          811 
  271000  0.019961121   -7.7416545    3632.5096          816 
  272000  0.019853079   -7.7404039    3631.3385          837 
  273000  0.020009341    -7.741408    3631.5904          834 
  274000  0.019878057   -7.7419194    3631.9676          822 
  275000  0.019543276     -7.74132    3632.1593          839 
  276000   0.01972629   -7.7427961    3632.5368          823 
  277000  0.020111787   -7.7433449    3633.0098          815 
  278000  0.020016018   -7.7437054    3633.3369          809 
  279000  0.019980019   -7.7452844    3634.6449          811 
  280000  0.019654618   -7.7435228    3633.2301          836 
  281000  0.020002545    -7.742766    3633.1027          841 
  282000  0.020147808   -7.7426879    3632.7761          800 
  283000  0.020217854   -7.7412403     3632.296          838 
  284000  0.019993424   -7.7417251    3632.0322          812 
  285000  0.020283987   -7.7411823    3631.6026          822 
  286000  0.019928462   -7.7403041    3630.9922          815 
  287000  0.020469592   -7.7421276    3632.3051          815 
  288000    0.0201872   -7.7419195    3632.8673          828 
  289000  0.020394809    -7.743026     3633.579          819 
  290000  0.020779841   -7.7428289    3633.2227          821 
  291000  0.019990667   -7.7430303    3633.3407          827 
  292000   0.02018306   -7.7444019     3633.978          804 
  293000  0.020138777   -7.7426873    3632.9593          833 
  294000  0.019684568   -7.7421168    3632.7961          821 
  295000  0.020485575   -7.7423105    3632.4474          823 
  296000  0.019680794   -7.7409256    3631.3321          826 
  297000  0.020119347   -7.7420551    3632.5031          837 
  298000  0.020340596   -7.7410894    3631.4253          825 
  299000   0.01966433   -7.7421622    3632.5787          818 
  300000  0.019805826   -7.7425036    3632.8227          807 
  301000  0.020065523   -7.7423757    3632.9039          834 
  302000  0.020194851   -7.7431663    3633.3157          819 
  303000  0.020092348   -7.7448915    3634.1027          796 
  304000  0.020024955   -7.7432318    3632.9448          823 
  305000  0.019393785   -7.7438839    3633.3232          833 
  306000  0.020206803     -7.74223    3632.8682          841 
  307000  0.020269083   -7.7422542    3632.1928          827 
  308000  0.020449355   -7.7422963    3632.2963          829 
  309000  0.020117326   -7.7403598    3631.5642          834 
  310000  0.019456601   -7.7418903    3632.0128          832 
  311000  0.019419385   -7.7419969    3632.3949          807 
  312000  0.019482368   -7.7428212    3632.6884          845 
  313000  0.019903024    -7.742857    3632.7679          810 
  314000  0.020177164   -7.7442973    3633.8948          807 
  315000  0.019984429   -7.7430237    3633.1145          761 
  316000  0.019703557   -7.7443733    3633.7483          824 
  317000  0.019811626   -7.7425968    3632.9132          810 
  318000  0.020225705   -7.7425081    3632.5281          830 
  319000  0.019953818   -7.7421379    3632.4205          825 
  320000   0.02022207   -7.7418283     3632.179          797 
  321000  0.020064434   -7.7413211    3632.0102          804 
  322000  0.020484026   -7.7407337    3631.5597          806 
  323000  0.020261554   -7.7423594    3632.4414          804 
  324000  0.020156341   -7.7426433     3632.803          821 
  325000  0.019743927   -7.7426335    3632.8415          825 
  326000  0.020091684   -7.7438574    3633.8627          811 
  327000  0.020241068   -7.7428807    3633.2197          820 
  328000  0.020170409   -7.7438407    3633.9991          810 
  329000  0.019743823   -7.7430151    3633.0353          827 
  330000  0.020109432   -7.7421259     3632.579          858 
  331000   0.01949453   -7.7418971    3632.0588          818 
  332000  0.019602245    -7.741153    3631.5246          840 
  333000  0.020171666   -7.7416791    3632.4283          807 
  334000  0.020050725   -7.7411014    3631.5175          823 
  335000  0.019722002   -7.7421424    3632.6734          822 
  336000  0.019919547   -7.7428877      3632.76          820 
  337000  0.019926879   -7.7428421    3633.3231          813 
  338000   0.01986011   -7.7434709    3633.1702          837 
  339000  0.020142584    -7.744771    3634.5079          837 
  340000  0.019865246   -7.7432498    3633.2713          801 
  341000  0.020136724   -7.7435076    3633.1093          822 
  342000  0.019625429   -7.7420587    3632.7138          821 
  343000  0.020182668    -7.742023    3632.1741          816 
  344000  0.019766793    -7.742033    3632.0859          805 
  345000  0.020483329   -7.7412332    3632.0089          802 
  346000  0.020488941   -7.7413935    3631.8568          806 
  347000  0.020174469   -7.7422247    3632.6341          822 
  348000  0.019717891   -7.7424578    3633.2209          805 
  349000  0.020387215   -7.7428243    3632.9394          797 
  350000  0.020150714   -7.7436754    3633.9903          813 
  351000  0.019712843     -7.74338    3633.1243          819 
  352000  0.019732536   -7.7438451    3633.8906          808 
  353000  0.019709617   -7.7432864    3632.8369          820 
  354000  0.020440528    -7.742743    3632.4774          824 
  355000  0.020159555   -7.7406145    3631.5674          823 
  356000  0.019971765   -7.7415975    3631.9846          834 
  357000  0.020212055   -7.7405794    3631.9832          821 
  358000  0.020874854   -7.7416251    3631.9174          810 
  359000  0.020036034   -7.7419588    3632.6907          797 
  360000  0.020092859   -7.7429962    3632.9884          811 
  361000  0.019729789   -7.7440022    3633.8332          832 
  362000  0.020219541   -7.7456199    3634.7043          834 
  363000  0.020246302   -7.7438474    3633.6369          822 
  364000  0.019916162   -7.7429353    3633.3046          827 
  365000  0.020148595   -7.7432309    3632.8209          798 
  366000  0.019930478   -7.7421098    3632.2107          829 
  367000  0.020332953   -7.7404698     3631.883          836 
  368000  0.020028051   -7.7404272     3631.053          823 
  369000  0.019899312   -7.7420938    3632.0899          809 
  370000  0.020127302   -7.7414531    3632.0738          822 
  371000  0.019669669   -7.7417683    3632.2578          801 
  372000  0.020165764   -7.7432202    3633.0895          828 
  373000  0.020042454   -7.7438771    3633.2253          826 
  374000  0.019561009   -7.7436388    3633.4908          802 
  375000  0.019768708    -7.746312    3635.5191          829 
  376000  0.020299975   -7.7439568    3633.6378          803 
  377000  0.019914427   -7.7424189    3632.9291          836 
  378000  0.020095764   -7.7416762    3632.4699          822 
  379000  0.020073654   -7.7404412    3631.2473          832 
  380000  0.020025974   -7.7397446    3630.8015          801 
  381000  0.019939633   -7.7413682      3632.06          830 
  382000  0.020220163    -7.741144    3631.7043          795 
  383000  0.019485473   -7.7417124    3632.6407          800 
  384000  0.020117823   -7.7420475    3632.9882          827 
  385000  0.019594439   -7.7440939    3633.8554          810 
  386000  0.019674098   -7.7431177     3633.038          829 
  387000  0.020117485   -7.7427703     3632.649          839 
  388000   0.01980486   -7.7429351    3633.0079          805 
  389000  0.020175486   -7.7430365    3633.3471          831 
  390000  0.020061224   -7.7424016    3632.7494          824 
  391000  0.019712385   -7.7414725     3631.855          818 
  392000  0.020031727   -7.7421433    3632.4104          846 
  393000  0.020094679   -7.7399931    3631.1709          815 
  394000  0.019832862   -7.7419829     3632.616          816 
  395000  0.019777126   -7.7417741    3632.5874          830 
  396000  0.020497192    -7.742399    3632.9945          818 
  397000  0.020072287   -7.7429022     3633.459          810 
  398000  0.020315005   -7.7437384    3633.6155          827 
  399000  0.020208819   -7.7445839    3633.9673          814 
  400000  0.020066728   -7.7446331    3633.8057          815 
  401000   0.01940571   -7.7427593    3632.9464          831 
  402000  0.020272944   -7.7421591      3632.48          798 
  403000   0.01999955    -7.742153    3632.2697          825 
  404000  0.019956658   -7.7410011    3631.8638          825 
  405000  0.020080927   -7.7408987     3631.384          819 
  406000   0.02046066   -7.7411517    3631.2686          836 
  407000  0.019986382   -7.7423627    3632.5909          823 
  408000  0.020306882   -7.7425364    3632.9135          792 
  409000  0.020222158   -7.7435233    3633.7429          819 
  410000  0.019429809   -7.7444349    3633.8134          796 
  411000   0.02033477   -7.7437212     3633.395          831 
  412000  0.019856723   -7.7436388    3633.6163          804 
  413000  0.019768791   -7.7438577    3633.6324          804 
  414000  0.019740739   -7.7425981    3632.5099          837 
  415000  0.019955302   -7.7418359    3632.0859          836 
  416000  0.020277754    -7.741189    3632.1366          826 
  417000  0.020094161   -7.7396138     3630.826          824 
  418000  0.019728439     -7.74089    3631.9548          827 
  419000  0.020333872    -7.742105     3632.067          869 
  420000  0.019972982   -7.7429089    3632.6252          821 
  421000  0.019593885   -7.7433169    3632.9849          821 
  422000   0.01975692   -7.7446964    3634.2056          793 
  423000  0.020116165   -7.7444798    3634.1327          829 
  424000  0.020286407   -7.7433725    3633.3532          849 
  425000  0.019676563   -7.7430814    3633.3307          825 
  426000  0.019663189   -7.7426107    3632.7264          798 
  427000   0.01990559   -7.7420873    3632.5944          818 
  428000  0.020030205   -7.7408981    3631.4033          828 
  429000  0.019947965   -7.7426231    3632.3324          826 
  430000  0.019868205   -7.7407595    3631.7795          803 
  431000  0.019886272   -7.7424702    3632.6822          819 
  432000  0.020115354   -7.7428477     3632.922          823 
  433000  0.019595601   -7.7427948    3632.8082          818 
  434000  0.020102315   -7.7445278    3634.0857          829 
  435000  0.020154054   -7.7431621    3633.0307          800 
  436000  0.019872222   -7.7438643    3633.6145          804 
  437000  0.020290187   -7.7432167    3633.0523          830 
  438000   0.01978547   -7.7423986    3632.7889          832 
  439000  0.019702876   -7.7419283    3632.3943          820 
  440000  0.020177116   -7.7405576    3631.6154          809 
  441000  0.019721059   -7.7415573    3632.0401          806 
  442000  0.020089388   -7.7424208    3632.1414          830 
  443000  0.019753822   -7.7425794    3632.4843          817 
  444000  0.019839039   -7.7430264    3633.0368          801 
  445000  0.019867108   -7.7441319    3634.3242          794 
  446000  0.020049812   -7.7430107    3633.3081          813 
  447000  0.019651838   -7.7445201    3633.7671          816 
  448000  0.020017458   -7.7426222    3632.8003          802 
  449000  0.020340969   -7.7429026    3632.8983          809 
  450000    0.0200083   -7.7419809    3632.6287          824 
  451000  0.019803047   -7.7418885     3632.042          807 
  452000  0.020254456   -7.7423839    3632.5921          824 
  453000  0.020048302   -7.7406276    3631.5367          824 
  454000  0.019905407   -7.7424648     3632.385          830 
  455000  0.019668133   -7.7419013    3632.5818          819 
  456000  0.020094781   -7.7425096    3632.7983          830 
  457000   0.02010995    -7.744397    3633.9792          831 
  458000  0.020143488   -7.7426307    3633.0737          826 
  459000  0.019971133   -7.7438443    3633.7063          801 
  460000  0.019890617   -7.7427964    3632.7471          830 
  461000  0.020090447   -7.7424188    3632.9185          845 
  462000  0.019670208   -7.7422427    3632.5254          818 
  463000  0.019825436   -7.7408479    3631.4763          817 
  464000   0.01994749   -7.7420286    3632.5256          793 
  465000   0.01998596   -7.7406643    3631.5462          806 
  466000  0.019983985   -7.7420829    3632.4449          796 
  467000  0.020107129    -7.742188    3632.4498          809 
  468000  0.020312166   -7.7428304    3632.9355          837 
  469000  0.020355948   -7.7438807    3633.5719          812 
  470000  0.019838151   -7.7432083    3633.1154          812 
  471000  0.019881034   -7.7451353    3634.3836          822 
  472000  0.020067458    -7.743325    3633.1318          783 
  473000  0.019782357   -7.7430589    3632.8639          817 
  474000   0.02000508     -7.74179    3632.2921          823 
  475000  0.019729991   -7.7408803    3631.6941          807 
  476000  0.019887886   -7.7416372    3632.2274          835 
  477000  0.020335505   -7.7413146    3631.7009          801 
  478000  0.020045195   -7.7409364    3631.6555          811 
  479000  0.020025852    -7.742642    3632.4069          802 
  480000  0.019957409   -7.7428902    3633.1629          806 
  481000  0.019919295    -7.745196    3634.1571          804 
  482000  0.020194899   -7.7439941    3633.7156          798 
  483000  0.020449444   -7.7431309    3633.4678          802 
  484000  0.020245542   -7.7448154    3633.9029          828 
  485000  0.020149028   -7.7430216    3633.1565          830 
  486000   0.02029583   -7.7421632    3632.6832          846 
  487000  0.020077507   -7.7420102    3632.0543          818 
  488000  0.019983852   -7.7396132    3630.5808          832 
  489000  0.019833992   -7.7414601     3631.606          803 
  490000   0.02002078   -7.7421082    3632.0045          819 
  491000  0.019765302   -7.7415549    3631.9824          815 
  492000  0.019957122   -7.7424228    3632.9145          804 
  493000   0.01952002   -7.7431758    3633.2303          824 
  494000  0.020146724    -7.745113    3634.1932          837 
  495000  0.020076575   -7.7428704    3633.4036          818 
  496000  0.020192735   -7.7433336    3633.3705          822 
  497000  0.019790074   -7.7431019    3633.0395          839 
  498000  0.020084447   -7.7418284    3632.4082          793 
  499000  0.020287189    -7.742223    3632.2291          828 
  500000  0.019778392   -7.7411583    3632.0965          800 
  501000  0.020144595   -7.7397893    3631.0426          820 
  502000  0.019944885   -7.7410762    3631.6874          827 
  503000  0.020018774    -7.741962    3632.5515          809 
  504000  0.020332023    -7.743427    3632.8945          818 
  505000  0.020010989   -7.7434235    3632.9948          814 
  506000  0.020105735   -7.7442401    3633.5864          809 
  507000  0.019975541   -7.7457874    3634.5444          806 
  508000  0.019549119   -7.7437113    3633.8929          802 
  509000  0.019897287   -7.7428399    3632.8249          819 
  510000  0.020079534   -7.7421987    3632.4778          811 
  511000  0.019875253   -7.7414412    3631.9575          844 
  512000  0.019792816   -7.7410373    3632.0735          807 
  513000  0.020331874    -7.740035    3631.2352          804 
  514000   0.02024567   -7.7406417    3631.4133          824 
  515000  0.019875826   -7.7419346    3632.5204          824 
  516000  0.020239643   -7.7424336    3632.9085          833 
  517000  0.020148448    -7.743539    3633.4144          823 
  518000  0.019966588   -7.7429673    3633.1036          812 
  519000  0.019745499   -7.7436966     3633.674          790 
  520000  0.019702854    -7.743143    3633.5573          783 
  521000  0.020174931   -7.7435566    3633.5519          815 
  522000  0.020237837   -7.7423088     3632.579          817 
  523000  0.019876631   -7.7411421    3632.0707          826 
  524000  0.019679312   -7.7411667    3631.7148          816 
  525000  0.019723402   -7.7427207    3632.3766          847 
  526000   0.02031558   -7.7412765    3631.4502          815 
  527000  0.020020091   -7.7426449    3632.3989          844 
  528000  0.019968066   -7.7427314    3632.9011          824 
  529000  0.020264213   -7.7449779    3634.1907          828 
  530000  0.020460947   -7.7435212    3633.3947          815 
  531000   0.02012539   -7.7437817    3633.4613          809 
  532000  0.020187202   -7.7438117    3633.9244          839 
  533000  0.020111288   -7.7430565    3632.8025          821 
  534000  0.020440181   -7.7421869    3632.6323          821 
  535000  0.019961406    -7.740753    3631.5238          819 
  536000  0.020239079   -7.7414568    3631.8979          799 
  537000  0.019636037   -7.7396743    3631.0128          817 
  538000  0.019860316   -7.7417339    3632.3961          798 
  539000  0.020236359    -7.742298    3632.2458          786 
  540000  0.020256572   -7.7427644    3632.9462          817 
  541000  0.020080499   -7.7443138    3633.7231          794 
  542000  0.020019947   -7.7431272    3633.2436          840 
  543000  0.019983755    -7.744233    3634.2459          810 
  544000  0.020390806   -7.7435839    3633.6594          832 
  545000  0.019846793   -7.7430213    3632.9005          809 
  546000  0.020377222   -7.7419658    3632.7064          833 
  547000  0.020011065   -7.7419497    3632.0096          815 
  548000   0.01996452   -7.7416786    3631.8437          820 
  549000   0.02000274   -7.7413592    3631.8425          815 
  550000   0.01997944   -7.7401186    3631.0719          796 
  551000  0.020137508   -7.7418432    3632.4403          827 
  552000  0.020414612   -7.7426469    3632.8585          835 
  553000  0.020383216   -7.7426719    3632.9374          820 
  554000  0.020228761    -7.744702    3634.1029          812 
  555000  0.020190108   -7.7434759    3633.3338          815 
  556000  0.019474979   -7.7434873    3633.6325          803 
  557000  0.019738528   -7.7431954      3633.19          822 
  558000  0.019915139    -7.742491    3632.6118          811 
  559000  0.019401624   -7.7405745    3631.8941          836 
  560000  0.020067068   -7.7412297    3631.8502          789 
  561000  0.020046002   -7.7411009    3631.7533          812 
  562000  0.020147165    -7.741026    3631.7187          810 
  563000  0.020031903   -7.7420395    3632.6284          803 
  564000  0.019560851   -7.7428896    3632.8575          831 
  565000  0.019608104   -7.7430663    3633.0033          822 
  566000  0.019548765   -7.7424118    3632.9263          817 
  567000  0.019987701   -7.7443255    3634.3591          805 
  568000  0.020063499   -7.7433543    3632.9968          813 
  569000  0.019796584   -7.7431329    3633.1205          827 
  570000   0.02017304   -7.7426199     3632.585          834 
  571000  0.019850567   -7.7412804    3631.9379          817 
  572000   0.02014466     -7.74177    3632.2241          835 
  573000  0.019709035   -7.7415806    3632.0234          794 
  574000  0.019964972   -7.7430089    3632.4467          802 
  575000  0.020308581   -7.7424116    3632.2986          813 
  576000  0.019695639   -7.7424564    3632.8661          826 
  577000  0.019899886   -7.7424761     3632.994          819 
  578000  0.019816371   -7.7448049    3634.1938          825 
  579000  0.019950284   -7.7434224    3633.7138          822 
  580000  0.019701901   -7.7430863     3633.296          832 
  581000  0.019940881   -7.7431788    3633.3485          796 
  582000   0.02015803   -7.7425684    3632.4739          792 
  583000  0.020210507   -7.7423766    3632.2027          841 
  584000  0.019569013   -7.7401374    3630.8273          842 
  585000  0.019867358   -7.7416027    3631.8573          831 
  586000  0.019791284   -7.7419897    3632.4023          789 
  587000  0.019972884    -7.741517     3632.245          806 
  588000  0.019381508   -7.7423322    3632.8542          810 
  589000  0.019689874    -7.743214    3633.6584          805 
  590000  0.019856425    -7.743877    3632.8303          805 
  591000  0.019904097   -7.7445732    3634.3077          822 
  592000  0.019846618   -7.7426882    3632.8183          817 
  593000  0.020064352   -7.7423278    3632.9602          816 
  594000   0.01969712   -7.7416907    3632.5014          834 
  595000  0.020073316   -7.7422002    3632.5502          830 
  596000  0.020093647   -7.7405303    3631.6035          805 
  597000  0.020365862   -7.7417494    3632.5876          806 
  598000  0.019840321   -7.7407556    3631.8784          825 
  599000  0.019700773   -7.7430822    3632.3853          796 
  600000  0.019856457   -7.7427666    3633.1415          829 
  601000  0.019574533    -7.743326    3632.9088          808 
  602000  0.019869348   -7.7440828    3633.7814          818 
  603000   0.01961004   -7.7446713    3634.6972          813 
  604000   0.02012999   -7.7431916    3633.3022          821 
  605000  0.019748533   -7.7430763    3632.9677          839 
  606000  0.019998673   -7.7413618    3632.0782          821 
  607000  0.020228888   -7.7413701    3631.9317          818 
  608000  0.020248479   -7.7408886    3632.0366          832 
  609000  0.019905875   -7.7414719    3631.8248          835 
  610000  0.019810072   -7.7402871     3631.377          864 
  611000  0.020629467   -7.7415946     3632.396          816 
  612000  0.020134501   -7.7428606     3632.945          817 
  613000  0.020099015   -7.7440146    3633.0815          821 
  614000  0.019836198   -7.7454161    3634.0851          829 
  615000  0.020014034    -7.743831    3633.5543          824 
  616000  0.020344212   -7.7431062    3633.1806          806 
  617000  0.019387659   -7.7437248    3633.1525          837 
  618000  0.020096761   -7.7420475     3632.644          817 
  619000  0.020012451   -7.7408464    3632.0158          809 
  620000  0.019851604   -7.7420263    3632.1813          811 
  621000  0.020568554   -7.7419271    3631.9339          824 
  622000  0.019827223   -7.7414509    3632.2416          829 
  623000  0.020202903   -7.7425404    3632.4314          824 
  624000  0.019725049   -7.7430442    3632.8977          812 
  625000  0.019456225   -7.7429191     3633.319          835 
  626000  0.019693752   -7.7452716    3634.4268          821 
  627000  0.020161838   -7.7425854    3633.1197          847 
  628000  0.019833525   -7.7427215    3632.9945          812 
  629000   0.01995558   -7.7431395    3632.7888          810 
  630000  0.019793377   -7.7423065    3632.4977          845 
  631000  0.020044505   -7.7409985    3631.1195          820 
  632000  0.019841347   -7.7417859     3632.083          809 
  633000  0.020595135   -7.7415273    3631.9361          807 
  634000  0.020202797   -7.7415935    3631.9714          796 
  635000  0.020471177   -7.7420784    3632.5046          812 
  636000   0.01992973   -7.7425359     3632.989          814 
  637000   0.01965944   -7.7448909    3633.8122          794 
  638000  0.020041082   -7.7423178    3633.1902          830 
  639000  0.019951443   -7.7431262    3632.8538          812 
  640000  0.020091175   -7.7435195    3633.3162          814 
  641000   0.01998656   -7.7424153     3632.916          816 
  642000  0.020283951   -7.7411613    3632.2132          829 
  643000  0.020427092   -7.7405079    3631.4974          835 
  644000  0.020279089    -7.740954     3631.722          805 
  645000  0.019993138   -7.7415296    3631.8455          819 
  646000  0.020315748   -7.7408211     3631.348          824 
  647000  0.020116709     -7.74252    3632.5818          835 
  648000  0.020058051   -7.7433009    3633.2017          816 
  649000  0.019899412   -7.7430703    3632.9231          811 
  650000   0.01997437   -7.7447617    3634.3285          816 
  651000  0.020380494   -7.7427549    3633.1579          810 
  652000  0.020301962   -7.7437052    3633.4133          812 
  653000  0.019412367   -7.7426755    3632.6413          808 
  654000  0.020121098   -7.7425024    3632.1353          812 
  655000  0.020021861   -7.7414403    3632.1231          827 
  656000  0.019805288   -7.7407854    3630.8372          837 
  657000  0.020157394   -7.7423262    3632.4788          805 
  658000  0.019734578   -7.7424002    3632.6244          823 
  659000  0.019798244   -7.7423304    3632.6145          824 
  660000  0.020305402   -7.7430352    3632.8132          817 
  661000  0.019955322   -7.7442928    3634.2204          817 
  662000  0.020020212    -7.743313     3633.063          829 
  663000  0.019714826   -7.7442458     3633.917          813 
  664000  0.020153265   -7.7427316    3633.0216          813 
  665000  0.019813992   -7.7430894    3632.8348          815 
  666000  0.020180691   -7.7424113    3632.5433          828 
  667000  0.019815027   -7.7415744    3632.0059          817 
  668000  0.019790502   -7.7418099    3631.5018          804 
  669000   0.02005179   -7.7417699    3632.3493          806 
  670000  0.020186127   -7.7406848    3632.1392          821 
  671000  0.019930456   -7.7421633     3632.841          823 
  672000  0.020143413   -7.7433412    3633.3703          808 
  673000  0.019872106   -7.7432343    3632.7845          823 
  674000  0.020611691   -7.7445895    3634.1121          812 
  675000  0.020015208    -7.743372    3633.3721          817 
  676000   0.02029229   -7.7428529    3633.0305          814 
  677000  0.019862465   -7.7428536    3632.9165          807 
  678000  0.020113196   -7.7421241    3632.5093          839 
  679000  0.019786702   -7.7414067    3631.9585          814 
  680000  0.019823296   -7.7397089    3630.7639          824 
  681000  0.020085948   -7.7395483    3630.8724          806 
  682000  0.019899905   -7.7421995    3632.1471          829 
  683000  0.019844756   -7.7422061    3632.6759          837 
  684000  0.020610508   -7.7433756    3633.5529          836 
  685000  0.020089097   -7.7428706    3633.4395          834 
  686000  0.019841959   -7.7436299    3633.3548          835 
  687000  0.019972525   -7.7451737    3634.4245          831 
  688000  0.020152093   -7.7433733    3633.3736          815 
  689000  0.020223653    -7.742633    3632.8943          814 
  690000  0.019949527   -7.7416156    3631.6367          813 
  691000  0.020362266   -7.7413563    3631.5605          815 
  692000  0.020034019    -7.740813    3631.8975          834 
  693000  0.019696854   -7.7416777    3631.7849          830 
  694000  0.019948479   -7.7415886    3631.6415          811 
  695000  0.019800878   -7.7420609    3632.7342          791 
  696000  0.019666208   -7.7427607    3633.3291          837 
  697000   0.02005517   -7.7433049    3633.5424          830 
  698000  0.019925945   -7.7452152    3634.2668          813 
  699000  0.020000167   -7.7442729    3633.8906          825 
  700000    0.0202508    -7.743066    3633.2517          796 
  701000  0.020185065   -7.7426513    3632.7164          826 
  702000  0.020177646    -7.741952     3632.679          802 
  703000   0.02013194   -7.7405905    3631.4939          831 
  704000  0.020205885   -7.7410108     3631.523          830 
  705000  0.020100846   -7.7416634    3632.2965          848 
  706000  0.019983237   -7.7411501    3631.9468          815 
  707000   0.01993864   -7.7424128     3632.689          821 
  708000  0.019544222   -7.7429459    3633.0162          809 
  709000  0.020039138   -7.7445863    3634.2059          793 
  710000  0.020063761    -7.745245    3634.8228          830 
  711000  0.020022361   -7.7442603    3633.3559          824 
  712000  0.020411731   -7.7432363     3632.998          812 
  713000  0.020196659   -7.7424917    3632.8072          819 
  714000  0.020067941   -7.7422069    3632.1397          804 
  715000  0.020265555    -7.741594    3631.9119          820 
  716000  0.020117841   -7.7427635    3632.3918          815 
  717000  0.019886159   -7.7421796    3631.8117          839 
  718000  0.019872785   -7.7417883    3632.6773          807 
  719000    0.0199451   -7.7423493    3632.6385          851 
  720000  0.019687336   -7.7426293    3632.9111          802 
  721000  0.020186474    -7.744597    3634.2436          810 
  722000  0.019941854   -7.7431865    3633.1739          801 
  723000  0.020239646   -7.7436936     3633.636          828 
  724000  0.019806677   -7.7435167    3633.5611          836 
  725000  0.020052456   -7.7423353    3632.8342          827 
  726000  0.019855431   -7.7424071    3632.1556          788 
  727000  0.019840416   -7.7408472    3631.3288          837 
  728000  0.019802925    -7.739022    3630.0727          806 
  729000  0.019869089     -7.74139    3631.8426          796 
  730000  0.019840441   -7.7417733    3632.5773          817 
  731000  0.020432982   -7.7428361    3632.6419          811 
  732000    0.0203556   -7.7426832     3633.077          818 
  733000  0.019889556   -7.7436298    3633.6421          806 
  734000  0.020165213   -7.7459663    3635.1239          833 
  735000  0.019977708   -7.7438273    3633.7217          839 
  736000  0.019981159   -7.7433643    3633.0233          815 
  737000  0.019818245   -7.7426735    3632.6791          830 
  738000  0.019465417   -7.7403548    3631.5603          824 
  739000  0.020072984   -7.7408388    3631.9228          833 
  740000   0.02029345   -7.7415377    3632.0475          827 
  741000  0.019978495   -7.7415433    3632.2419          832 
  742000  0.020195431   -7.7414624    3631.7309          816 
  743000  0.019631098   -7.7426392    3632.5608          822 
  744000   0.01970076   -7.7430053    3632.9455          804 
  745000  0.019792205   -7.7441734    3633.9381          791 
  746000  0.019901254   -7.7435311    3633.4108          811 
  747000  0.020100047    -7.743983    3634.1386          809 
  748000  0.019904648    -7.742576     3632.966          843 
  749000  0.020370345   -7.7428995    3632.6673          829 
  750000  0.019923033   -7.7419481    3631.8209          804 
  751000  0.019802407    -7.741703    3632.0123          831 
  752000  0.020171056   -7.7412223    3631.4884          798 
  753000   0.01993614   -7.7395798    3630.4294          825 
  754000  0.020069979   -7.7412199    3632.1613          806 
  755000  0.019738993   -7.7420751    3632.8671          798 
  756000  0.020227252   -7.7439712    3633.4769          817 
  757000  0.020210585   -7.7435203    3633.8879          789 
  758000   0.02065194   -7.7436468    3633.3381          810 
  759000  0.019656276   -7.7436649    3633.0247          820 
  760000   0.01964715   -7.7434133    3633.4254          828 
  761000   0.01994933   -7.7433206    3632.6508          794 
  762000  0.019721068   -7.7419791    3632.2204          826 
  763000  0.020179797   -7.7422155     3632.507          819 
  764000  0.019907614   -7.7397338    3631.3997          829 
  765000  0.019822978   -7.7416086    3632.5171          823 
  766000  0.019988882   -7.7414975    3631.9869          835 
  767000  0.019800359   -7.7429508    3632.6753          824 
  768000  0.019751994   -7.7444161    3633.2569          817 
  769000  0.020024672    -7.743219    3633.0915          813 
  770000  0.020054418   -7.7446492    3634.0397          826 
  771000  0.020451838   -7.7426402    3633.4236          829 
  772000  0.020206341   -7.7434575    3633.5711          828 
  773000  0.020084592   -7.7426928     3632.759          801 
  774000   0.01964318   -7.7421981    3632.5232          779 
  775000  0.020218155   -7.7411758    3631.4232          828 
  776000  0.019801438   -7.7406516    3631.3216          819 
  777000  0.020137663   -7.7422202    3632.2835          812 
  778000  0.020184068   -7.7424537    3632.6244          829 
  779000  0.020042923   -7.7424975    3632.8214          839 
  780000  0.019706266   -7.7425325    3633.1336          844 
  781000  0.019764027   -7.7437544    3633.8431          812 
  782000  0.019613326   -7.7426063    3633.0552          802 
  783000  0.020079912   -7.7446613    3634.2386          817 
  784000  0.019964082   -7.7432591    3632.9442          824 
  785000  0.019852152   -7.7426693    3632.8435          837 
  786000  0.020718506   -7.7426748    3632.7559          805 
  787000  0.019914035   -7.7416869    3632.2325          796 
  788000  0.020107752    -7.742146    3632.3632          849 
  789000  0.019976783   -7.7408534    3631.4931          840 
  790000  0.019672705   -7.7424148    3632.7409          826 
  791000  0.020411708   -7.7422474    3632.7926          823 
  792000  0.019823295   -7.7432437    3632.7648          830 
  793000  0.020378596   -7.7441556    3634.0266          828 
  794000  0.020253245   -7.7436941    3633.1873          823 
  795000  0.020035572   -7.7438573     3634.357          799 
  796000   0.02044456   -7.7433838    3633.0908          822 
  797000    0.0198154   -7.7428796    3632.8685          822 
  798000  0.020207854   -7.7427931    3632.5184          848 
  799000  0.020349676   -7.7408834    3631.5024          834 
  800000  0.019456414   -7.7398928    3631.3205          813 
  801000   0.02042341   -7.7419432    3631.8385          809 
  802000  0.019914349   -7.7424874    3632.3467          814 
  803000   0.02014228   -7.7419182    3632.6389          785 
  804000  0.019677487   -7.7426353     3633.097          805 
  805000  0.020251256   -7.7446218     3634.064          796 
  806000  0.019928399   -7.7437273    3633.4442          808 
  807000  0.020486431    -7.742938    3633.1924          835 
  808000  0.019854552   -7.7438872    3633.4631          841 
  809000  0.019930152    -7.742975    3632.7843          833 
  810000  0.019601402   -7.7418178    3632.3675          850 
  811000  0.019750234   -7.7416371    3631.8583          803 
  812000  0.019613367   -7.7411939     3631.751          825 
  813000  0.019722628   -7.7411684    3631.6947          812 
  814000  0.020009119   -7.7420746    3632.4928          831 
  815000  0.020024838    -7.742086    3632.9345          812 
  816000  0.019997157    -7.744448    3633.6815          839 
  817000  0.019518531   -7.7439048    3633.5034          824 
  818000  0.020050254   -7.7436017    3633.5583          852 
  819000  0.019998559   -7.7439354    3633.3268          815 
  820000  0.019600802   -7.7440051      3633.92          848 
  821000  0.020163156   -7.7429361    3632.8319          820 
  822000  0.020132744   -7.7424627     3632.487          818 
  823000  0.020184388   -7.7409418    3631.7248          820 
  824000  0.020085201   -7.7405466    3631.0646          825 
  825000  0.020077811   -7.7415296    3632.2794          825 
  826000  0.019856059   -7.7410618    3631.9038          840 
  827000  0.020245775   -7.7427867     3632.428          821 
  828000  0.019665795   -7.7433008    3633.0339          836 
  829000  0.020306001   -7.7443169    3633.9533          846 
  830000  0.020325961   -7.7445085    3633.7584          856 
  831000  0.019834584    -7.742673    3633.2811          813 
  832000   0.01987748   -7.7442828     3633.444          816 
  833000  0.019801281   -7.7430394    3632.8884          841 
  834000  0.019909738    -7.741674    3632.3388          806 
  835000  0.019799452   -7.7421636     3632.591          826 
  836000  0.020243265   -7.7413997    3631.7439          808 
  837000  0.019844354   -7.7418697    3632.2045          829 
  838000  0.020007345    -7.741544    3631.5819          827 
  839000  0.020020382   -7.7422978    3632.8335          822 
  840000  0.019511279   -7.7428134    3632.9185          824 
  841000  0.020308779   -7.7440353    3633.8667          850 
  842000  0.020355705    -7.743071    3633.2066          811 
  843000  0.020332305    -7.744289    3633.4665          838 
  844000  0.019541289   -7.7441258    3633.5883          809 
  845000  0.020347758   -7.7427277    3632.8322          801 
  846000  0.019851641   -7.7417367     3632.415          810 
  847000  0.019716846   -7.7419562    3632.2532          816 
  848000  0.020269434   -7.7405667    3630.9421          840 
  849000   0.01980148   -7.7417475    3631.7271          813 
  850000  0.020261633   -7.7421679     3632.595          826 
  851000  0.019743307   -7.7425272    3632.4066          820 
  852000   0.01976619   -7.7431333     3633.211          822 
  853000  0.020245614   -7.7437556    3633.2796          832 
  854000  0.019620522   -7.7450107    3634.1751          833 
  855000  0.020264136     -7.74451    3634.4185          831 
  856000  0.020257023   -7.7433688    3633.1478          828 
  857000  0.020158815   -7.7429213    3633.0521          807 
  858000  0.019878874   -7.7422255    3632.5971          795 
  859000  0.019877355    -7.741362    3631.9048          819 
  860000  0.019881057   -7.7418598    3631.6801          836 
  861000  0.020067209   -7.7421045    3632.4841          802 
  862000  0.020262994    -7.741987    3632.1034          831 
  863000  0.020068788   -7.7429768    3632.4515          824 
  864000  0.019889703    -7.743243    3633.2685          827 
  865000  0.020426486    -7.743026    3633.1072          815 
  866000  0.019676464   -7.7426053    3633.2047          833 
  867000  0.020207545   -7.7451893    3634.3012          818 
  868000  0.019744164   -7.7436801     3632.899          799 
  869000  0.020286762   -7.7429033    3632.9707          812 
  870000  0.020202829   -7.7426355     3632.516          840 
  871000  0.020737957   -7.7407484    3631.6958          818 
  872000  0.019722951     -7.74183    3632.1237          832 
  873000  0.019850028   -7.7412398    3631.4663          846 
  874000  0.020358372   -7.7403526    3631.0873          827 
  875000  0.020382603   -7.7420344    3632.4957          799 
  876000  0.020354742   -7.7424474    3633.0238          815 
  877000  0.020032165   -7.7441602    3633.5076          798 
  878000  0.020280862   -7.7429445    3633.2042          840 
  879000  0.020238331   -7.7442115    3633.8653          807 
  880000  0.020030202   -7.7427089    3632.9462          813 
  881000  0.020301627   -7.7431941    3633.1105          821 
  882000  0.019876296   -7.7424626    3632.6919          814 
  883000  0.019898784   -7.7422368    3632.5338          822 
  884000  0.019806299   -7.7406982    3631.2654          813 
  885000  0.019864982   -7.7413041    3631.8736          833 
  886000  0.020113365   -7.7416073    3631.9216          838 
  887000  0.020363721    -7.742535    3632.5863          828 
  888000  0.019796104   -7.7427556    3633.0353          824 
  889000  0.020354672   -7.7450816    3634.2481          812 
  890000   0.01989874   -7.7442875    3633.7875          810 
  891000  0.020240328   -7.7439246    3633.5129          829 
  892000  0.019598736   -7.7446849    3634.0754          840 
  893000  0.019926189   -7.7432978    3632.9838          827 
  894000  0.020209098   -7.7421819    3632.6483          807 
  895000  0.020228646   -7.7412205    3631.7428          845 
  896000  0.019808434   -7.7417854     3632.271          813 
  897000  0.019748573   -7.7408367    3631.4942          821 
  898000  0.019834511   -7.7413308     3631.864          841 
  899000  0.019909434   -7.7421953    3632.3941          792 
  900000  0.020229408    -7.743339     3632.847          833 
  901000  0.019727739   -7.7434133    3633.3462          775 
  902000  0.020046279   -7.7442578    3634.1599          813 
  903000  0.020327961   -7.7455798    3634.8783          811 
  904000  0.020509638   -7.7433574    3633.7059          827 
  905000  0.020057039     -7.74268     3633.305          820 
  906000  0.019795142   -7.7425393     3632.316          810 
  907000  0.019803529   -7.7413026    3631.8185          823 
  908000  0.020073549   -7.7413418    3631.9779          831 
  909000  0.019716608   -7.7410774    3631.5286          842 
  910000  0.020121232   -7.7424049    3632.5879          835 
  911000  0.020070092   -7.7417028    3632.4471          827 
  912000  0.019687074   -7.7428251    3632.8432          822 
  913000  0.019991946   -7.7441101    3633.5948          822 
  914000  0.019657871   -7.7434014    3633.3204          848 
  915000  0.019682741   -7.7437628    3633.9026          810 
  916000  0.019957351   -7.7463229    3635.2428          826 
  917000  0.019700465   -7.7427957    3633.4205          819 
  918000  0.019733803   -7.7424422    3632.7642          827 
  919000  0.019779655   -7.7419826    3632.2093          801 
  920000  0.019945525   -7.7408832    3631.8915          831 
  921000  0.019844881   -7.7411675    3631.7491          832 
  922000   0.02022131   -7.7405406    3630.9647          813 
  923000  0.019639981   -7.7422365    3632.3914          827 
  924000  0.020255561   -7.7430413    3632.7434          812 
  925000  0.019920055   -7.7436319    3633.4808          824 
  926000  0.019637735   -7.7436682    3633.0418          819 
  927000  0.020603258    -7.744154    3634.0419          842 
  928000  0.020203602   -7.7430346    3633.2223          828 
  929000  0.019836365   -7.7441937    3633.3009          849 
  930000   0.02008606   -7.7429546    3632.6523          818 
  931000  0.019931563   -7.7412372    3632.0537          826 
  932000  0.020005944   -7.7422935    3632.4666          809 
  933000  0.019830072   -7.7410891     3631.426          823 
  934000  0.019548922   -7.7418176    3632.4516          820 
  935000  0.019585399   -7.7414454    3632.0558          821 
  936000   0.01998092   -7.7427331    3632.6734          790 
  937000  0.020368727   -7.7428801    3633.2681          857 
  938000  0.019394211   -7.7433632    3633.9182          820 
  939000  0.019940679   -7.7436637    3633.5639          811 
  940000  0.020106639   -7.7436106    3633.6633          824 
  941000  0.019868762    -7.744068    3633.6207          857 
  942000  0.019932539   -7.7429421    3632.7654          810 
  943000  0.019742399   -7.7413669    3631.8538          818 
  944000  0.020349659   -7.7401341    3630.9473          819 
  945000  0.019998221   -7.7412781     3631.776          818 
  946000  0.019702795   -7.7423772     3631.892          825 
  947000  0.020249366   -7.7420217     3632.072          817 
  948000   0.02013461   -7.7418923    3632.9139          806 
  949000  0.020373311   -7.7433889    3633.2496          833 
  950000  0.019386574   -7.7435881    3633.2326          830 
  951000  0.020399058   -7.7447761    3633.9316          816 
  952000  0.019739542   -7.7430738    3633.2658          835 
  953000  0.019444225   -7.7437775     3633.495          846 
  954000  0.019989061   -7.7427754    3633.0449          787 
  955000  0.019882131   -7.7419029    3632.3469          823 
  956000  0.020137309   -7.7418744     3632.272          823 
  957000    0.0201036   -7.7404484    3631.3649          805 
  958000  0.019842492   -7.7422418    3632.3325          833 
  959000  0.019828149   -7.7410983    3631.9686          833 
  960000  0.020193075   -7.7426777    3632.5888          803 
  961000  0.020029324   -7.7434721    3633.1228          810 
  962000  0.020534272   -7.7450369    3634.1714          832 
  963000  0.020353726   -7.7430863    3633.5896          832 
  964000  0.020251207   -7.7443389     3633.773          844 
  965000  0.020023447   -7.7435563    3633.4451          833 
  966000   0.01997769   -7.7434909    3632.5888          812 
  967000  0.020181823   -7.7420224    3632.1154          830 
  968000  0.019795562   -7.7418931    3631.9464          786 
  969000  0.020119944   -7.7419729    3632.1796          838 
  970000  0.019612989   -7.7406967    3631.0722          847 
  971000  0.020095017   -7.7422532    3632.5473          796 
  972000   0.02014837   -7.7430913    3632.6422          792 
  973000  0.019692411   -7.7434784    3633.2867          832 
  974000  0.020100147   -7.7436243    3633.6212          829 
  975000  0.019854051   -7.7441012    3633.5969          809 
  976000  0.019991619   -7.7456789    3634.4284          818 
  977000  0.019586701   -7.7435118    3633.3531          833 
  978000  0.019984275   -7.7433055    3632.7509          818 
  979000   0.01999701     -7.74181    3631.6933          829 
  980000  0.020228509   -7.7398516    3631.1555          809 
  981000  0.020376867   -7.7416233    3631.7797          843 
  982000  0.019903506   -7.7421436    3632.1764          833 
  983000  0.020251459   -7.7420816     3631.846          818 
  984000  0.019840249   -7.7423226    3632.6288          836 
  985000  0.020065826   -7.7434853    3633.3379          821 
  986000  0.020056059    -7.743889    3633.0082          824 
  987000  0.020226526   -7.7449785    3634.3564          821 
  988000  0.020721921   -7.7428334    3633.2637          831 
  989000  0.019989744   -7.7438897    3633.6226          804 
  990000  0.019883817   -7.7428623    3632.7312          810 
  991000   0.02025555   -7.7414587    3632.4369          818 
  992000  0.019977956   -7.7409393     3631.753          832 
  993000  0.020050655   -7.7416058    3631.8079          821 
  994000  0.020205296   -7.7405493    3631.8425          812 
  995000  0.020086353   -7.7411121    3631.7726          831 
  996000  0.019983378   -7.7426299     3632.655          840 
  997000  0.019827077   -7.7433301    3633.3404          817 
  998000  0.020251358    -7.744491    3634.1694          821 
  999000  0.020416852   -7.7435593    3633.2605          808 
 1000000  0.019857902   -7.7436131    3634.0646          814 
 1001000  0.019940479   -7.7443943    3633.9073          831 
 1002000  0.019986996   -7.7435984     3632.662          814 
 1003000  0.019899238   -7.7418986    3631.9909          841 
 1004000  0.020125943   -7.7407007    3631.0361          827 
Loop time of 2081.85 on 48 procs for 1000000 steps with 4000 atoms

Performance: 83003.253 tau/day, 480.343 timesteps/s
99.4% CPU use with 48 MPI tasks x no OpenMP threads

MPI task timing breakdown:
Section |  min time  |  avg time  |  max time  |%varavg| %total
---------------------------------------------------------------
Pair    | 132.25     | 146.1      | 157.97     |  33.3 |  7.02
Neigh   | 0.18091    | 0.19435    | 0.20785    |   1.0 |  0.01
Comm    | 83.653     | 95.838     | 109.31     |  43.5 |  4.60
Output  | 2.1167     | 2.1184     | 2.1386     |   0.2 |  0.10
Modify  | 1786.9     | 1797.6     | 1803.9     |   8.3 | 86.35
Other   |            | 39.96      |            |       |  1.92

Nlocal:        83.3333 ave          88 max          77 min
Histogram: 1 0 1 5 5 18 6 6 3 3
Nghost:        1748.35 ave        1766 max        1731 min
Histogram: 2 2 6 4 8 9 7 7 2 1
Neighs:        10645.5 ave       11206 max        9632 min
Histogram: 1 0 0 2 5 11 13 6 5 5
FullNghs:      21290.8 ave       22538 max       19671 min
Histogram: 1 0 1 5 5 18 7 6 4 1

Total # of neighbors = 1021958
Ave neighs/atom = 255.48950
Neighbor list builds = 771
Dangerous builds = 0

#clear
#
#next RN
#
#jump SELF
Total wall time: 0:34:43
