
units lj                  # Use reduced LJ style units
atom_style atomic         # Uncharged point particles
atom_modify map hash      # Needed for indexing of clusters etc
                          # Used to be able to find where atoms are in relation to each other.

lattice fcc 1.0 spacing 1 1 1
Lattice spacing in x,y,z = 1.5874011 1.5874011 1.5874011
region box block 0 10 0 10 0 10 units lattice
create_box 2 box
Created orthogonal box = (0.0000000 0.0000000 0.0000000) to (15.874011 15.874011 15.874011)
  3 by 4 by 4 MPI processor grid
create_atoms 1 box
Created 4000 atoms
  using lattice units in orthogonal box = (0.0000000 0.0000000 0.0000000) to (15.874011 15.874011 15.874011)
  create_atoms CPU = 0.002 seconds
set type 1 type/fraction 2 0.12 78393
Setting atom values ...
  508 settings made for type/fraction
mass 1 1.0
mass 2 1.0
pair_style lj/cut  3.5
pair_modify tail  yes
pair_coeff 1  1  1.0  1.0   # Intearaction between 1 and 1 set with epsilon = 1 and sigma = 1
pair_coeff 1  2  1.5  0.8
pair_coeff 2  2  0.5  0.88

write_data data.0
System init for write_data ...
Neighbor list info ...
  update every 1 steps, delay 10 steps, check yes
  max neighbors/atom: 2000, page size: 100000
  master list distance cutoff = 3.8
  ghost atom cutoff = 3.8
  binsize = 1.9, bins = 9 9 9
  1 neighbor lists, perpetual/occasional/extra = 1 0 0
  (1) pair lj/cut, perpetual
      attributes: half, newton on
      pair build: half/bin/atomonly/newton
      stencil: half/bin/3d
      bin: standard
WARNING: Not all mixed pair coeffs generated from mixing. Use write_data with 'pair ij' option to store all pair coeffs. (../write_data.cpp:312)


#############################
#   M E L T   S Y S T E M   #
#############################

velocity all create 2.4 6583654 mom yes dist gaussian # Assign velocities
                                                    # Temperature 2.4, random number seed, zero linear momentum
                                                                                # Gaussian distribution

timestep 0.002   # simulation timestep
thermo 1000       # output thermodynamic data every 1000 steps bf 100

# Define a fix  in this case with index 1 applied to all
# particles in the simulation. This fix is for simulations
# in the anisotropic NPT ensemble. Note that we use the MTK
# correction.
fix 1 all npt temp 2.4 2.4 0.1 iso 5.68 5.68 0.5 mtk yes tchain 5 pchain 5 # Use NPT ensemble
                                                                         # Set temperature and pressure and damping
                                                                         # Numbers of thermostats in chain and in barostat
run 10000          # run for 10000 steps
Per MPI rank memory allocation (min/avg/max) = 3.642 | 3.644 | 3.648 Mbytes
Step Temp E_pair E_mol TotEng Press Volume 
       0          2.4   -7.5560252            0   -3.9569252   -3.1663949         4000 
    1000    2.3930307   -4.7329319            0   -1.1442832    5.5909068    4729.1993 
    2000    2.3690151   -4.6046372            0    -1.052003    5.7740732    4781.8268 
    3000    2.4294428   -4.6918788            0   -1.0486256    5.8088604    4729.5544 
    4000    2.4569535   -4.7327692            0   -1.0482604    5.7564311    4713.5822 
    5000    2.3776858    -4.684917            0   -1.1192799    5.6277625    4757.5673 
    6000     2.457751   -4.6970251            0   -1.0113202    5.7081854    4741.6652 
    7000    2.3950926   -4.6501634            0   -1.0584227      5.82807    4745.9537 
    8000    2.3778987   -4.6847215            0   -1.1187651    5.7725043    4735.9445 
    9000    2.4028675   -4.7236852            0   -1.1202851    5.6318896    4722.8564 
   10000    2.3978408   -4.6805977            0   -1.0847356    5.4124705    4788.5467 
Loop time of 2.16352 on 48 procs for 10000 steps with 4000 atoms

Performance: 798699.790 tau/day, 4622.105 timesteps/s
99.6% CPU use with 48 MPI tasks x no OpenMP threads

MPI task timing breakdown:
Section |  min time  |  avg time  |  max time  |%varavg| %total
---------------------------------------------------------------
Pair    | 0.92462    | 0.974      | 1.0329     |   2.3 | 45.02
Neigh   | 0.19196    | 0.20008    | 0.20787    |   0.8 |  9.25
Comm    | 0.68261    | 0.7451     | 0.79767    |   3.0 | 34.44
Output  | 0.00024448 | 0.00024854 | 0.00031476 |   0.0 |  0.01
Modify  | 0.20342    | 0.22977    | 0.25339    |   2.8 | 10.62
Other   |            | 0.01431    |            |       |  0.66

Nlocal:        83.3333 ave          92 max          74 min
Histogram: 1 1 2 11 5 12 8 4 3 1
Nghost:        1459.10 ave        1481 max        1439 min
Histogram: 3 4 6 9 4 7 5 2 3 5
Neighs:        7950.35 ave        8949 max        6804 min
Histogram: 1 1 3 6 10 11 9 2 3 2

Total # of neighbors = 381617
Ave neighs/atom = 95.404250
Neighbor list builds = 911
Dangerous builds = 257

# Equilibrate just above the melting temperature to avoid step fn in T

fix 1 all npt temp 1.25 1.25 0.1 iso 5.68 5.68 0.5 mtk yes tchain 5 pchain 5
run 2000
Per MPI rank memory allocation (min/avg/max) = 3.642 | 3.644 | 3.648 Mbytes
Step Temp E_pair E_mol TotEng Press Volume 
   10000    2.3978408   -4.6805977            0   -1.0847356    5.4124705    4788.5467 
   11000    1.2318269   -6.2581722            0   -4.4108938    5.6445351    3918.3269 
   12000    1.2415433   -6.2846814            0   -4.4228321    5.9433259    3894.2383 
Loop time of 0.490432 on 48 procs for 2000 steps with 4000 atoms

Performance: 704685.548 tau/day, 4078.041 timesteps/s
99.6% CPU use with 48 MPI tasks x no OpenMP threads

MPI task timing breakdown:
Section |  min time  |  avg time  |  max time  |%varavg| %total
---------------------------------------------------------------
Pair    | 0.21513    | 0.23116    | 0.24774    |   1.6 | 47.13
Neigh   | 0.031675   | 0.033468   | 0.035456   |   0.5 |  6.82
Comm    | 0.15116    | 0.16905    | 0.18851    |   2.2 | 34.47
Output  | 5.3292e-05 | 5.4189e-05 | 6.691e-05  |   0.0 |  0.01
Modify  | 0.047094   | 0.052078   | 0.062104   |   1.6 | 10.62
Other   |            | 0.00462    |            |       |  0.94

Nlocal:        83.3333 ave          91 max          76 min
Histogram: 1 4 3 9 8 9 6 2 3 3
Nghost:        1671.06 ave        1692 max        1646 min
Histogram: 1 3 2 6 8 6 8 10 3 1
Neighs:        9799.85 ave       10984 max        8949 min
Histogram: 4 4 8 7 11 4 4 2 1 3

Total # of neighbors = 470393
Ave neighs/atom = 117.59825
Neighbor list builds = 141
Dangerous builds = 7

#############################
# L I N E A R  Q U E N C H  #
#############################

# Define solid atoms. This closely follows ten Wolde  Ruiz-Montero and Frenkel  Faraday Discuss  1996  104  93-110
# Compute components of the per-atom q6 vector
compute q6 all orientorder/atom degrees 1 6 components 6 nnn NULL cutoff 1.3 # compute the Q6 parameter.
                                                                             # Use all neighbours within 1.3 unit cell.

# get number of connections
compute coord_number all coord/atom orientorder q6 0.5

# An atom is solid if it has 8 or more connections (of a possible 14)
variable is_solid atom c_coord_number>=8
group solid dynamic all var is_solid    # Must be dynamic to update
dynamic group solid defined

# do clustering
compute cluster solid cluster/atom 1.3 # Create a cluster where all atoms within are solid and max 1.3 units from another member

# define chunks one chunk per cluster
compute clus_chunks solid chunk/atom c_cluster nchunk every compress yes  # Says which atoms are in which chunk

# count the size of each chunk
compute size_chunks solid property/chunk clus_chunks count


# Find the maximum entry in the vector of chunk sizes
variable max_n equal max(c_size_chunks)


# Thermo style which includes this variable
# thermo_style custom step temp pe vol v_max_n

thermo ${N}  # Print the thermo information every 100 steps
thermo 1000  

# Reset the npt fix at a lower temperature (below freezing)
fix 1  all npt temp  ${temp} ${temp}  0.1  iso  5.68  5.68  0.5  mtk yes tchain  5  pchain  5
fix 1  all npt temp  0.45 ${temp}  0.1  iso  5.68  5.68  0.5  mtk yes tchain  5  pchain  5
fix 1  all npt temp  0.45 0.45  0.1  iso  5.68  5.68  0.5  mtk yes tchain  5  pchain  5

dump dmp2 all dcd ${N} traj.dcd
dump dmp2 all dcd 1000 traj.dcd


compute msd all msd com yes
variable twopoint equal c_msd[4]/6/(step*dt+1.0e-6)
fix 9 all vector 10 c_msd[4]
variable fit equal slope(f_9)/6/(10*dt)
thermo_style custom step temp pe c_msd[4] v_twopoint v_fit v_max_n

fix 1 all npt temp 1.25 ${temp} 0.1 iso 5.68 5.68 0.5 mtk yes tchain 5 pchain 5
fix 1 all npt temp 1.25 0.45 0.1 iso 5.68 5.68 0.5 mtk yes tchain 5 pchain 5
run 2000000 # 5000000  # Run for this many steps
Neighbor list info ...
  update every 1 steps, delay 10 steps, check yes
  max neighbors/atom: 2000, page size: 100000
  master list distance cutoff = 3.8
  ghost atom cutoff = 3.8
  binsize = 1.9, bins = 9 9 9
  4 neighbor lists, perpetual/occasional/extra = 1 3 0
  (1) pair lj/cut, perpetual
      attributes: half, newton on
      pair build: half/bin/atomonly/newton
      stencil: half/bin/3d
      bin: standard
  (2) compute orientorder/atom, occasional
      attributes: full, newton on
      pair build: full/bin/atomonly
      stencil: full/bin/3d
      bin: standard
  (3) compute coord/atom, occasional
      attributes: full, newton on
      pair build: full/bin/atomonly
      stencil: full/bin/3d
      bin: standard
  (4) compute cluster/atom, occasional
      attributes: full, newton on
      pair build: full/bin/atomonly
      stencil: full/bin/3d
      bin: standard
Per MPI rank memory allocation (min/avg/max) = 9.756 | 9.762 | 9.769 Mbytes
Step Temp PotEng c_msd[4] v_twopoint v_fit v_max_n 
   12000    1.2415433   -6.2846814 1.9121988e-30 1.3279158e-32 8.3333333e+20            2 
   13000    1.2226804   -6.2380567   0.56248243 0.0036056565  0.046185591            2 
   14000    1.2335962   -6.2757811    1.0564565 0.0062884313  0.043631175            3 
   15000    1.2516106   -6.2440723    1.6418712 0.0091215062  0.044304635            1 
   16000     1.255718    -6.303209    2.1775308  0.011341306  0.045171869            1 
   17000    1.2795329   -6.2467762      2.70686  0.013268921  0.045159527            1 
   18000    1.2420538   -6.2865259    3.2560875  0.015074479  0.045076838            2 
   19000    1.2476986    -6.263079    3.9037212  0.017121584  0.045464878            1 
   20000    1.2541541   -6.2961488    4.4913172  0.018713821  0.046278128            5 
   21000    1.2405331   -6.2728958    4.9332047  0.019576209  0.046459274            2 
   22000    1.2693827   -6.2776467    5.5873262  0.021164114  0.046538194            1 
   23000    1.2504934   -6.3396259    6.1491041  0.022279362  0.046704526            2 
   24000    1.2504487   -6.2789389    6.6470844  0.023080154  0.046654052            2 
   25000    1.2418696   -6.2927889    7.1102746  0.023700915  0.046434004            2 
   26000    1.2214449   -6.2939823    7.6103452  0.024392132  0.046157078            3 
   27000    1.2215112   -6.2469665    8.0464245  0.024834643  0.045804358            3 
   28000    1.2329986   -6.2663326    8.5649605  0.025490953  0.045462843            4 
   29000    1.2413315   -6.2795656    9.0892612  0.026118566  0.045129707            2 
   30000    1.2365317   -6.2896282    9.5861788  0.026628274  0.044847443            2 
   31000    1.2605517   -6.3126396    9.9928322  0.026862452  0.044553662            2 
   32000    1.2379859   -6.3184877    10.549529  0.027472731  0.044286974            2 
   33000    1.2387654   -6.2690764    11.118549  0.028077143   0.04411569            2 
   34000    1.2570712   -6.3014017    11.604752  0.028443018  0.043967378            2 
   35000     1.257411    -6.271064    12.165727  0.028966016  0.043890068            2 
   36000    1.2710325    -6.345947    12.785065  0.029595059  0.043866626            2 
   37000     1.210971    -6.303221    13.361497  0.030093462  0.043891575            2 
   38000    1.2242393     -6.28282    13.781726  0.030223082  0.043896049            1 
   39000    1.2092151   -6.3116762    14.341371  0.030643954  0.043866653            5 
   40000    1.2465417   -6.3358898    14.808002  0.030850003  0.043856926            2 
   41000    1.2495326   -6.2966547    15.218332  0.030931568  0.043792198            4 
   42000      1.23297   -6.3180769    15.632901  0.031017661  0.043676409            1 
   43000    1.2621156   -6.3170761    16.064614  0.031132973   0.04353312            3 
   44000    1.2578368   -6.2606675    16.589312   0.03141915  0.043367019            3 
   45000    1.2567081   -6.3184955    16.951037  0.031390809  0.043227215            1 
   46000    1.2126051   -6.3316656    17.494721  0.031693335  0.043065395            3 
   47000    1.2338462    -6.306376    18.051683  0.032006529  0.042950812            2 
   48000    1.2142103   -6.3139919    18.494307  0.032108172  0.042862535            2 
   49000    1.2328999   -6.2924489    19.146021  0.032561259  0.042796129            3 
   50000    1.2440852   -6.3164293    19.618443  0.032697404  0.042734546            3 
   51000    1.2521765   -6.3489968    20.189704  0.032989712  0.042699563            1 
   52000    1.2181677   -6.3429439    20.723795  0.033211209  0.042682812            2 
   53000    1.2431227   -6.3259293    21.242634  0.033400368  0.042668883            2 
   54000    1.2257811   -6.3474503    21.720556  0.033519377   0.04264184            5 
   55000    1.2433397    -6.264616     22.12862  0.033528212  0.042604584            2 
   56000    1.2641147    -6.310972    22.561141  0.033573126  0.042545993            3 
   57000    1.2262554   -6.3245444    23.133596  0.033821046  0.042495581            2 
   58000     1.240429   -6.3213814     23.65199  0.033982744   0.04244868            8 
   59000    1.2609499    -6.316918    24.065361  0.033990622  0.042403372            2 
   60000     1.228018   -6.3149455    24.428407  0.033928343  0.042348391            2 
   61000    1.2382616     -6.31246       24.987  0.034135246  0.042287599            3 
   62000    1.2522355   -6.2784706     25.47766  0.034244166  0.042245822            3 
   63000    1.2283034    -6.302658    25.905884  0.034267042  0.042201144            4 
   64000    1.2214703   -6.3061567    26.440646  0.034427924  0.042146011            3 
   65000    1.1991653   -6.3159187    26.847623  0.034420029  0.042092676            2 
   66000    1.2708748   -6.3196251    27.386093  0.034578401  0.042037628            3 
   67000    1.2395447   -6.3261037    27.940409  0.034751752  0.041996688            4 
   68000    1.2143078   -6.3273528    28.748209  0.035230648  0.041974966            3 
   69000     1.240232   -6.3156546    29.339016  0.035433594  0.041980277            3 
   70000    1.2240936   -6.3311841     29.58039  0.035214749  0.041987645            3 
   71000    1.2725924   -6.3227691    30.120544  0.035352751  0.041986195            3 
   72000    1.2373303   -6.3223073    30.645536   0.03546937  0.041983273            2 
   73000    1.2416794   -6.3613437    31.118503  0.035523405  0.041977763            4 
   74000    1.2617013   -6.3190773    31.575853  0.035558392  0.041973711            4 
   75000    1.2166794   -6.3114675    32.193079  0.035770087   0.04196597            2 
   76000     1.211836   -6.3186501    32.524261  0.035662566  0.041961114            3 
   77000    1.2579929   -6.3330151      32.8802  0.035584632  0.041933146            4 
   78000    1.2300784   -6.3273862    33.305892  0.035583218  0.041891686            4 
   79000    1.2618168   -6.3513014    33.785489  0.035638701   0.04185152            2 
   80000    1.2478656    -6.290549    34.391413  0.035824388  0.041815453            3 
   81000    1.2138617    -6.332332    34.732324  0.035732844  0.041778008            5 
   82000    1.2313572   -6.3494165    35.058223  0.035628275  0.041736177            2 
   83000    1.2276483    -6.333618     35.37888  0.035520964  0.041686134            2 
   84000    1.2587695   -6.3336786    35.911046  0.035626038  0.041627393            3 
   85000    1.2440856   -6.3080606      36.4996  0.035783922  0.041576095            5 
   86000    1.2196065   -6.3221486    36.872563  0.035729227   0.04153414            4 
   87000    1.1991755    -6.349395    37.445438  0.035867278  0.041486514            2 
   88000    1.2153152   -6.3623958    37.742884  0.035741367  0.041441923            3 
   89000    1.2322934   -6.3214492      38.5387  0.036084924   0.04139984            2 
   90000    1.2030092   -6.3373156    38.910591  0.036028324  0.041366631            4 
   91000    1.2178578   -6.3560829    39.352251   0.03603686   0.04133759            4 
   92000    1.2032561   -6.3420526    39.917885  0.036157504  0.041305516            1 
   93000    1.2476084   -6.3427077    40.523792  0.036311641  0.041283596            2 
   94000    1.2108105   -6.3723499    41.049578  0.036391469   0.04126556            2 
   95000    1.2015512   -6.3558696    41.481839  0.036387578  0.041247865            4 
   96000    1.2162145    -6.322415    42.052541  0.036503942  0.041232911            3 
   97000    1.1926964   -6.3626319    42.589375   0.03658881  0.041221448            1 
   98000    1.2270384   -6.3701722    42.986597  0.036553229  0.041207669            3 
   99000    1.2364153    -6.353469    43.402699  0.036534258  0.041191195            2 
  100000    1.2045832   -6.3497448    43.859444  0.036549536   0.04117243            2 
  101000    1.2221528   -6.3868158    44.425653  0.036654829  0.041159859            3 
  102000    1.2229305   -6.3558237    44.875312  0.036662837   0.04114848            2 
  103000    1.2074572   -6.2926393    45.608633  0.036900188  0.041142866            4 
  104000    1.2119168   -6.3520842    45.821669  0.036716081  0.041132227            1 
  105000    1.2227829    -6.341756    46.368964  0.036800765  0.041116267            3 
  106000     1.200893    -6.343756    46.839819  0.036823757  0.041104988            5 
  107000    1.2014953   -6.3636303    47.167295  0.036734653  0.041090786            2 
  108000    1.2068041   -6.3285493    47.889523  0.036951792  0.041073613            2 
  109000    1.1763583   -6.3483767    48.290177  0.036919095  0.041063752            2 
  110000    1.2080229   -6.3556271    48.942462  0.037077623  0.041055677            2 
  111000    1.1958363     -6.39664    49.216342  0.036949206   0.04104255            2 
  112000    1.2169883   -6.3926474    49.482078  0.036817022  0.041029304            4 
  113000    1.1929331   -6.3980856    50.090331  0.036939772  0.041016894            2 
  114000    1.1922349   -6.3675957    50.532638  0.036939063   0.04100243            2 
  115000    1.1967535   -6.3540199    51.311781   0.03718245  0.040992296            3 
  116000    1.2141476   -6.3680654     51.66441  0.037115237   0.04098525            2 
  117000    1.2209397    -6.346985    52.455607  0.037361544  0.040980691            2 
  118000    1.2268442   -6.3280121    52.757821  0.037258348  0.040979043            3 
  119000    1.1944216   -6.3457082    53.225332  0.037272641  0.040971979            2 
  120000    1.1977827   -6.3405006    53.693464  0.037287128  0.040965781            3 
  121000    1.2185107   -6.3790889    54.098304  0.037257785  0.040957564            2 
  122000    1.2108673   -6.3744894    54.486444  0.037217516  0.040941709            3 
  123000    1.2073687   -6.3303606    55.213393  0.037407448  0.040930569            2 
  124000    1.2087825   -6.3973398    55.509234  0.037304593  0.040921706            1 
  125000    1.1971749   -6.3206614     56.11236   0.03740824  0.040915286            3 
  126000    1.2068106    -6.321697    56.611419  0.037441414   0.04090872            3 
  127000     1.204619   -6.3432137    57.300837  0.037598974  0.040902998            3 
  128000    1.2195994   -6.3714744    57.659435  0.037538694  0.040898488            2 
  129000    1.2126456   -6.3630969    58.343013  0.037689285  0.040896351            1 
  130000    1.1919483   -6.3854075    58.665772  0.037606264  0.040897216            5 
  131000    1.2069526   -6.3717831    58.937096  0.037491791  0.040894431            2 
  132000    1.2164035   -6.3678047    59.668961  0.037669798  0.040894393            5 
  133000     1.171884   -6.3969495     60.21143   0.03772646  0.040891886            2 
  134000    1.2128163   -6.3646431    60.649105  0.037717105  0.040895062            2 
  135000    1.1603683   -6.4045012    61.373418  0.037884826  0.040896836            2 
  136000    1.1849874   -6.3361804    61.678151  0.037792984  0.040894529            7 
  137000    1.2360031   -6.3048713     62.03836  0.037736228  0.040891271            2 
  138000    1.2339309   -6.3462912     62.47508  0.037726498  0.040888725            2 
  139000    1.1927889    -6.337079    63.015116  0.037778846   0.04088751            1 
  140000    1.2087013   -6.3874309    63.608256  0.037862057  0.040887874            3 
  141000    1.1949166   -6.3737011    64.230584  0.037961338  0.040887187            4 
  142000     1.187202   -6.3706039    64.639323  0.037933875  0.040890138            2 
  143000    1.1757876   -6.3880321    65.346795  0.038080882  0.040898087            3 
  144000    1.2077571   -6.3922386     65.88647  0.038128744  0.040905635            2 
  145000    1.2054628   -6.3295184    66.730665  0.038350957  0.040914578            3 
  146000    1.1989392    -6.391297    67.016505   0.03825143  0.040929836            3 
  147000    1.1599405   -6.3489906    67.955948   0.03852378  0.040949394            2 
  148000    1.1875951   -6.3690143     68.38368  0.038504324  0.040970648            4 
  149000    1.1863809   -6.3625511    69.068335  0.038628823  0.040990777            2 
  150000    1.1648677   -6.3593029    69.563506  0.038646392  0.041013836            3 
  151000    1.1940513   -6.3645427    69.870319  0.038559778  0.041034248            1 
  152000    1.1819936   -6.4070525    70.235825  0.038506483  0.041057859            5 
  153000    1.1959307   -6.3901341     70.86709  0.038598633  0.041076133            3 
  154000    1.2007478   -6.3704893    71.412381  0.038643063  0.041092841            1 
  155000    1.1766486   -6.3946529    72.059939  0.038741902   0.04110647            2 
  156000    1.2136555   -6.3578524    72.365234  0.038656642  0.041123843            1 
  157000    1.2006402   -6.3869855    73.065559  0.038782144  0.041144505            2 
  158000    1.1915994   -6.3616516    73.660829  0.038850648  0.041162464            3 
  159000    1.2075928   -6.4075838    73.766699  0.038661792  0.041179472            3 
  160000    1.1797344    -6.377951    74.150671  0.038620141  0.041191921            2 
  161000    1.2053592   -6.3673207     74.45336  0.038536936  0.041197258            4 
  162000    1.2281141   -6.4072168    74.866924  0.038511792  0.041200312            2 
  163000    1.1769203   -6.3933399    75.356782  0.038525962  0.041199602            2 
  164000    1.1982717   -6.3830974     75.74219  0.038486885  0.041197667            2 
  165000    1.1718612   -6.4090533     75.79302  0.038279303  0.041190064            2 
  166000    1.1712821   -6.3961521    76.200119  0.038253072  0.041182793            2 
  167000    1.1876775   -6.4139864    76.393475  0.038120496  0.041174891            2 
  168000    1.1850589   -6.3681095    77.609792   0.03849692  0.041168942            2 
  169000    1.2115444   -6.4187253    77.679001  0.038303255  0.041164761            6 
  170000    1.1879232   -6.4027702    78.597424  0.038528149  0.041161208            2 
  171000    1.2029957   -6.4011167    79.331609  0.038660628  0.041161312            3 
  172000    1.1772145   -6.3969988    79.457261  0.038496735  0.041160688            2 
  173000    1.1940594   -6.4056195    80.232717  0.038647744  0.041159705            2 
  174000    1.1884388   -6.4073061    80.679404  0.038639561  0.041157701            3 
  175000    1.2108064   -6.3531388      80.9518  0.038548476  0.041156697            2 
  176000    1.1843397   -6.4164472    81.604923  0.038638695  0.041153484            2 
  177000      1.17717   -6.4082524    81.891983  0.038555547  0.041150762            3 
  178000    1.1803996   -6.3817197    82.216907  0.038491061  0.041144613            2 
  179000    1.1736411   -6.3770712    82.555762  0.038433781   0.04113614            2 
  180000    1.1535359   -6.4177635    82.738373  0.038304802  0.041124681            4 
  181000    1.1704853   -6.3990722    83.686588  0.038529737  0.041114617            2 
  182000    1.1790157   -6.3592033    84.148427    0.0385295  0.041107776            3 
  183000    1.1743146   -6.3933797    84.786181  0.038609372  0.041100221            2 
  184000    1.1854592    -6.401461    84.922573   0.03846131  0.041092176            2 
  185000    1.2022315   -6.4142012    85.216054   0.03838561  0.041084192            3 
  186000    1.1898608   -6.3683856    85.926773  0.038497658  0.041076138            1 
  187000    1.1555574   -6.3941595    86.352936    0.0384817   0.04106712            3 
  188000    1.1538973   -6.4211566    86.910194  0.038524022  0.041058896            1 
  189000    1.1760336   -6.4030033    87.747983  0.038689587  0.041052535            3 
  190000    1.1907798   -6.4052845    88.189758  0.038679718  0.041047794            2 
  191000    1.1638523   -6.3914492    88.577439  0.038646352  0.041044921            3 
  192000    1.1906824   -6.4216292    88.985254  0.038622072  0.041040297            3 
  193000    1.1966338   -6.4294008    89.469228  0.038630927  0.041035811            3 
  194000    1.1931398   -6.4168051    90.016112  0.038666714  0.041029287            3 
  195000    1.1620791   -6.4298255    90.786028  0.038797448  0.041022769            2 
  196000    1.1966038   -6.4019885     90.72031   0.03857156  0.041018113            2 
  197000    1.1797091   -6.4212685    91.629356  0.038760303  0.041013026            2 
  198000    1.1682237   -6.4270478    91.989031  0.038715922  0.041011422            2 
  199000    1.1590475    -6.418034      92.3896  0.038689112  0.041005755            2 
  200000    1.1738941   -6.4069323    92.941113  0.038725464  0.040999663            5 
  201000    1.1450701   -6.4099803    93.713433  0.038852998   0.04099598            2 
  202000    1.1766127   -6.4057326    93.788219  0.038691509    0.0409924            6 
  203000    1.1787592   -6.4430788    95.015751  0.039004824  0.040990766            3 
  204000     1.177473    -6.406767    95.200764  0.038889201  0.040992873            3 
  205000    1.1687213   -6.4553999    95.520349   0.03882941  0.040990023            4 
  206000    1.1634778   -6.3709754     96.34364  0.038973964  0.040987827            2 
  207000    1.1807906   -6.4306497    96.478823  0.038840106  0.040985143            3 
  208000    1.1599821   -6.4228066    96.802509  0.038783057  0.040982957            2 
  209000    1.1682229   -6.4269391    97.327234  0.038806712  0.040981821            2 
  210000    1.1432906   -6.4324898    97.867697  0.038836388  0.040981723            2 
  211000    1.1700072   -6.4178286    98.807411  0.039023464  0.040982054            4 
  212000    1.1762974   -6.4437426    98.789844  0.038832486  0.040981577            3 
  213000    1.1651498   -6.4380573    99.102073  0.038772329  0.040976099            3 
  214000    1.1909994    -6.484592    99.594817  0.038783028  0.040969019            6 
  215000    1.1964683   -6.4290412    100.05666  0.038781652  0.040964618            2 
  216000    1.1757186   -6.4025499    100.17341  0.038647148   0.04095858            2 
  217000     1.148879   -6.4421993    100.63874   0.03864775  0.040948942            1 
  218000    1.1646342   -6.4280412    100.96462   0.03859504  0.040934994            4 
  219000    1.1817549   -6.4259652    100.96966  0.038420724  0.040918424            2 
  220000    1.1791535   -6.4398039    101.28211  0.038364435  0.040899771            2 
  221000    1.1672545   -6.3820517    102.24565  0.038554167  0.040882838            2 
  222000     1.150791   -6.4396513    101.99209  0.038285318  0.040864819            3 
  223000    1.1563437   -6.4425061    102.44239  0.038281908  0.040842355            5 
  224000     1.163281   -6.4798721    102.72357  0.038215613  0.040820933            2 
  225000    1.1715425   -6.4640494    102.91973  0.038118418  0.040798067            2 
  226000    1.1634777    -6.424285    103.47899  0.038155968  0.040772773            2 
  227000    1.1727654   -6.4044696    104.08165  0.038209121  0.040747688            2 
  228000     1.157662   -6.4208968    104.34655  0.038138359  0.040723728            2 
  229000    1.1716368   -6.4245018    104.72172  0.038108341  0.040697952            3 
  230000    1.1372791   -6.4254827    104.97891  0.038035836  0.040670931            2 
  231000    1.1524625   -6.4251771    105.26262  0.037973528  0.040645887            1 
  232000    1.1556396   -6.4282769    106.22679  0.038156175  0.040620716            3 
  233000    1.1428374   -6.4148835    106.13919  0.037961082  0.040596501            1 
  234000    1.1434042   -6.4508286    106.73572  0.038011298  0.040570439            2 
  235000    1.1372065   -6.4403192    107.03262   0.03795483  0.040541948            3 
  236000    1.1412125   -6.4053864    107.36302  0.037910672  0.040513947            3 
  237000    1.1514977   -6.4865919    107.41498  0.037768981  0.040485292            4 
  238000    1.1733439   -6.4239764    108.16127  0.037871594  0.040456381            2 
  239000    1.1761639   -6.4411387    107.99954  0.037656744  0.040427216            4 
  240000    1.1366276    -6.410389    109.11584  0.037887444  0.040399584            3 
  241000    1.1631374   -6.4068613     109.6325  0.037908886  0.040372994            4 
  242000    1.1565471   -6.4519996    109.80699  0.037812323  0.040346555            4 
  243000     1.162959   -6.4656048    110.56922  0.037918113   0.04032119            3 
  244000    1.1779286   -6.4789849    110.94286  0.037890321  0.040296509            2 
  245000    1.1442546   -6.4213947    111.51214  0.037929298  0.040274284            1 
  246000    1.1693497   -6.4300242    111.95607  0.037925496  0.040250849            4 
  247000    1.1568292   -6.4602962    112.41218  0.037925838  0.040226679            2 
  248000    1.1510944   -6.4863218    112.44703  0.037784619  0.040202188            2 
  249000    1.1429438   -6.4281617    113.19567  0.037883423  0.040178327            3 
  250000    1.1502535   -6.4810616    113.03994  0.037679978  0.040154846            2 
  251000    1.1550856   -6.4497055    113.99558  0.037847137  0.040129985            4 
  252000    1.1252771   -6.4349718    114.47873  0.037856724  0.040106208            3 
  253000    1.1960936   -6.4721006    114.73428  0.037791264   0.04008239           10 
  254000    1.1475197   -6.4369581    115.23946  0.037808221  0.040058707            3 
  255000     1.138562   -6.4568065    115.59572  0.037776379  0.040034969            2 
  256000    1.1366022   -6.4142125    116.12117  0.037799858  0.040010662            4 
  257000    1.1778224   -6.4941484    116.41999  0.037749674  0.039987494            2 
  258000    1.1717788   -6.4075219    117.06424  0.037811446  0.039966353            2 
  259000    1.1586335   -6.4505172    117.35284  0.037758314  0.039945967            2 
  260000    1.1500885   -6.4746209    118.09153   0.03784985   0.03992508            3 
  261000    1.1447234   -6.4582606    117.89937  0.037643478  0.039903277            2 
  262000    1.1493118   -6.4607239    119.10957  0.037884722  0.039881696            3 
  263000     1.164771   -6.4633484    119.78162  0.037953618  0.039861787            3 
  264000    1.1722229   -6.4640775    119.94807  0.037862395  0.039844086            1 
  265000    1.1786104    -6.489379    120.27287  0.037821657   0.03982546            2 
  266000    1.1478887   -6.4711904    120.90047  0.037876086  0.039807537            2 
  267000    1.1473746   -6.4747887    121.41801   0.03789576  0.039790696            3 
  268000    1.1560854   -6.4723065    121.91066  0.037907543  0.039775235            3 
  269000    1.1300261   -6.4778982    122.15441  0.037842134  0.039759362            8 
  270000    1.1624586   -6.4953262    122.40496  0.037779308  0.039741455            6 
  271000    1.1506749   -6.4783267    123.02917  0.037831849  0.039724707            5 
  272000    1.1536571   -6.4620427    123.85652  0.037946236  0.039707921            4 
  273000    1.1489456    -6.444834    124.39569  0.037971822  0.039692226            3 
  274000    1.1477144   -6.4838707    124.31912  0.037809953  0.039675528            1 
  275000    1.1374261    -6.455579    124.93786  0.037859957  0.039659609            2 
  276000     1.145831   -6.4887502    124.88731  0.037707522  0.039642051            2 
  277000    1.1345385    -6.490203    125.34995  0.037710576  0.039623013            3 
  278000    1.1319136    -6.495089    125.89231  0.037737503  0.039603956            3 
  279000     1.154999   -6.5065799    125.97037  0.037625559  0.039583346            2 
  280000    1.1588532   -6.5082438    126.18465  0.037554954  0.039561834            1 
  281000      1.13841   -6.4852528    126.26771  0.037445941  0.039541042            2 
  282000    1.1508292   -6.4605297    127.38626  0.037643694  0.039521016            2 
  283000    1.1461146   -6.4890749    127.79598  0.037631324  0.039500497            1 
  284000      1.14591   -6.4575846    128.14313  0.037600685   0.03948065            2 
  285000    1.1295083   -6.4699273    128.70875  0.037634138  0.039460777            1 
  286000    1.1587242   -6.4821096    129.06102  0.037605193  0.039441057            3 
  287000    1.1357883   -6.4654261    129.14736  0.037499234  0.039422002            3 
  288000    1.1372436    -6.499319    129.71174  0.037532332  0.039402894            3 
  289000    1.1550751   -6.5217927    129.85687  0.037444312  0.039382876            5 
  290000    1.1220364   -6.4973247    130.76387  0.037575826  0.039362343            3 
  291000    1.1319499   -6.5093347    130.56164  0.037388785  0.039342178            6 
  292000    1.1324439   -6.4795366    131.01104  0.037388996  0.039323065            2 
  293000    1.1433642   -6.5234379    131.31597  0.037348114  0.039302303            4 
  294000    1.1373316   -6.5137213    131.92318  0.037393191  0.039281221            4 
  295000    1.1448133   -6.4746998    132.49041  0.037426671  0.039260836            2 
  296000    1.1840761    -6.507555    132.90503  0.037416957  0.039239048            4 
  297000    1.1347142   -6.5024593    133.50568  0.037459506  0.039218455            1 
  298000    1.1586963   -6.5298187    133.53462  0.037341895  0.039197262            1 
  299000    1.1316463    -6.470716    133.63286  0.037244386  0.039174261            2 
  300000    1.1363316   -6.5218455    133.81109  0.037169747   0.03915169            3 
  301000    1.1038974   -6.4790366    134.84298  0.037331944  0.039128133            1 
  302000    1.1332476   -6.4922289    134.65896  0.037157549  0.039105359            3 
  303000    1.1346865   -6.4995457    135.08879  0.037153131  0.039081472            3 
  304000    1.1510987   -6.4886012    135.58641  0.037167328  0.039057863            3 
  305000    1.1202857   -6.4982704    136.05861  0.037174482  0.039033593            4 
  306000    1.1236943   -6.5107143    136.25642  0.037106869  0.039009598            6 
  307000    1.1536126   -6.4647042    137.05569  0.037202955  0.038986379            3 
  308000    1.1503509     -6.47992    137.39911  0.037175085  0.038963339            3 
  309000    1.1193304   -6.5198988    137.31302   0.03703156  0.038939928            2 
  310000    1.1087488   -6.5198285    137.63332  0.036998205  0.038917515            2 
  311000    1.1427144   -6.4994411    138.49164  0.037109229  0.038895332            3 
  312000    1.1261949   -6.4889753    138.89594  0.037098274   0.03887324            2 
  313000    1.1398419   -6.5191868    139.36803  0.037105439  0.038851084            3 
  314000     1.118007   -6.4789104     139.7653  0.037092702  0.038828921            4 
  315000    1.1211743   -6.5119722    139.83137  0.036992427  0.038806603            3 
  316000    1.1064401   -6.5043337    140.16645  0.036963726  0.038783076            5 
  317000    1.1063175   -6.4772993    141.04727  0.037078673  0.038760185            2 
  318000    1.1426339   -6.5232521    140.88592  0.036919791  0.038737509            2 
  319000    1.1359849   -6.5035418     141.6467  0.037002795  0.038715453            2 
  320000    1.1326649   -6.5332989    141.32778   0.03680411  0.038692953            4 
  321000     1.158101   -6.4955156    142.27359  0.036934993  0.038670805            2 
  322000    1.1309825   -6.4448283    143.39949   0.03711167   0.03865127            2 
  323000    1.1283326   -6.5131699    143.86563  0.037117035  0.038632355            3 
  324000    1.1196441   -6.4798247    144.43162  0.037148049  0.038613709            2 
  325000    1.1191871   -6.4583649    144.66845  0.037094474  0.038596346            6 
  326000    1.1314956   -6.5154229    145.31432  0.037145788  0.038579317            6 
  327000    1.1268366   -6.5140459    145.91355    0.0371849  0.038562162            5 
  328000    1.1228168   -6.5085005    146.13459  0.037127691  0.038545355            9 
  329000    1.1122131    -6.496829    146.54049  0.037117651  0.038527614            2 
  330000    1.1140872   -6.5301759    146.65125  0.037033144  0.038509399            3 
  331000    1.1181415   -6.4885093    146.98228  0.037004601  0.038490477            2 
  332000    1.1157619   -6.5315518    146.88002  0.036867474  0.038470973            2 
  333000    1.1280624   -6.4909706    147.84735  0.036998837  0.038451581            2 
  334000    1.1166983   -6.5248707    147.86166  0.036891633  0.038431614            2 
  335000    1.1437285   -6.4983947    147.96119  0.036806266  0.038411467            2 
  336000    1.1250678   -6.4913105     147.9215  0.036686881  0.038390584            2 
  337000    1.1231604   -6.5303782    148.75572  0.036784302  0.038370133            5 
  338000    1.1166643   -6.4829574    149.91777  0.036961975  0.038349384            2 
  339000    1.1082419   -6.5446722     149.7948  0.036822714  0.038329378            4 
  340000    1.1121655   -6.5681106    150.19018  0.036811319  0.038310066            3 
  341000    1.1135927   -6.5364014    150.79675    0.0368516   0.03829025            4 
  342000    1.1350019   -6.5223263    150.59789  0.036695392  0.038270576            3 
  343000    1.1055908   -6.5021603    151.10853   0.03671247  0.038250135            1 
  344000    1.1131116   -6.5345362    151.64999  0.036736916  0.038230046            4 
  345000    1.1001209   -6.5416128    151.81389  0.036670021  0.038208977            2 
  346000    1.1361833   -6.5366018    151.99561  0.036607805  0.038187363            2 
  347000    1.1011443    -6.523408      152.509  0.036625601  0.038165991            2 
  348000    1.1052173   -6.5416581    152.82965  0.036597138  0.038145127            1 
  349000    1.1359653   -6.5578289    153.39715  0.036627782  0.038123995            2 
  350000     1.089548   -6.5413459    153.22281  0.036481621  0.038103145            2 
  351000    1.1195096   -6.5195834    154.63174  0.036712189  0.038081843            3 
  352000    1.1199704   -6.5473839    154.75728  0.036637613  0.038062368            6 
  353000    1.1118678   -6.5058762    154.98233  0.036586952  0.038044082            5 
  354000    1.1134062   -6.5304732    155.11823  0.036515591  0.038024695            4 
  355000    1.1192236   -6.5590668    155.67204  0.036542733   0.03800536            3 
  356000    1.1418787   -6.5531265    156.14551  0.036550914   0.03798523            6 
  357000    1.1085403   -6.5231527    156.63506  0.036562806  0.037965586            2 
  358000    1.1160055   -6.4978372    157.43341  0.036646511  0.037946675            2 
  359000    1.1111513   -6.5379304    157.03301  0.036451489  0.037927283            2 
  360000     1.118452   -6.5425791    157.74681  0.036515465  0.037907444            5 
  361000      1.13171   -6.5177753    157.79422  0.036425257   0.03788913            2 
  362000    1.1005379   -6.5517164    158.49321  0.036485545  0.037869618            3 
  363000    1.1048988   -6.5322676    158.87521   0.03647273   0.03785038            3 
  364000    1.1140305   -6.5502229    159.15819  0.036437314  0.037830536            1 
  365000    1.1115778   -6.5367652    159.27196  0.036363461  0.037810708            3 
  366000     1.093353   -6.5647012    159.83317  0.036391887  0.037790886            5 
  367000    1.0895381   -6.5397126     160.6605  0.036480586  0.037771239            4 
  368000     1.115876   -6.5601263     160.9408  0.036444928   0.03775275            3 
  369000     1.103461    -6.512352    161.40178  0.036450266  0.037734373            3 
  370000    1.1000509   -6.5372573    161.63001  0.036403156  0.037717263            2 
  371000    1.0865187   -6.5118956    162.31126  0.036458054  0.037699794            3 
  372000    1.1113885    -6.536546    163.05267  0.036526135  0.037682768            3 
  373000     1.116503   -6.5444737    163.30155  0.036483813   0.03766612            4 
  374000    1.1021857   -6.5116891    163.28826  0.036383302  0.037648494            1 
  375000    1.1188454   -6.5435314    163.83325  0.036407388  0.037630456            6 
  376000    1.0958344   -6.5460104    164.11649  0.036373335  0.037612841            3 
  377000    1.0906579   -6.5684356     165.0035  0.036472921  0.037595607            1 
  378000    1.1060911   -6.5335571    165.17277   0.03641375  0.037579994            3 
  379000    1.0869995   -6.5464075    166.04001  0.036508358   0.03756329            2 
  380000    1.0806021   -6.5459517    165.39499  0.036270832  0.037545505            2 
  381000    1.1278668   -6.5710525    165.33609   0.03616275  0.037526583            2 
  382000    1.0887608   -6.5392335     166.5035  0.036322753  0.037508004            3 
  383000    1.1129186   -6.5422351    166.63616  0.036256779  0.037489911            2 
  384000    1.1151032   -6.5449481    166.64174  0.036163572  0.037470602            4 
  385000    1.1427213   -6.5627998    167.08736  0.036166095  0.037451817            3 
  386000    1.1122783   -6.5779673    167.47252  0.036155552  0.037433164            2 
  387000    1.1117193   -6.5690618     168.1101  0.036199419  0.037414609            2 
  388000    1.1081351   -6.5348542     168.4678  0.036182947  0.037395746            1 
  389000    1.1142482   -6.5444421     168.1299  0.036017545  0.037377042            2 
  390000    1.1092771   -6.5440451    169.25237  0.036165037  0.037358686            8 
  391000     1.104159   -6.5501146     169.8587  0.036201769  0.037340627            2 
  392000    1.1086447   -6.5832719    169.91784   0.03612199  0.037323247            4 
  393000    1.1232228   -6.5613761    170.19276  0.036088371  0.037305357            4 
  394000    1.1005267    -6.570718    170.34532  0.036029045   0.03728636            4 
  395000    1.1106333   -6.5711111    170.15778  0.035898266  0.037267141            3 
  396000    1.0782826   -6.5682207    170.63145  0.035907292  0.037247012            3 
  397000    1.0901671   -6.5699474    171.27051  0.035950989  0.037226458            6 
  398000    1.1013317   -6.5702264    171.51526  0.035911906  0.037206944            3 
  399000    1.0933264    -6.575718    172.12801  0.035949877  0.037187307            6 
  400000    1.0946134   -6.5828096    172.73096  0.035985616    0.0371693            1 
  401000    1.1050377   -6.5605502    173.54766  0.036065598  0.037151582            3 
  402000    1.0862224   -6.6110676    173.61434  0.035989705  0.037134232            4 
  403000    1.1263242   -6.5345944     174.3615  0.036054901  0.037117419            4 
  404000    1.0969559   -6.5671208    174.88983  0.036074635  0.037100638            4 
  405000    1.1025141   -6.5485942     175.0181  0.036011954  0.037083173            2 
  406000    1.1196255   -6.5956095     174.7305  0.035864223  0.037065189            4 
  407000    1.0927703   -6.5795462    174.64964   0.03575955  0.037046588            5 
  408000    1.0879819   -6.5494788    175.26701     0.035798  0.037027793            3 
  409000    1.0683054   -6.5956002    175.42145  0.035741942  0.037007765            3 
  410000    1.0976691    -6.578497    175.29684   0.03562944  0.036987447            2 
  411000    1.0995601   -6.5500909    175.94629   0.03567443   0.03696738            6 
  412000    1.0769138   -6.5842741    176.45861  0.035691466  0.036946773            3 
  413000      1.06713   -6.5834065    176.47418  0.035608189  0.036926681            2 
  414000    1.0619238    -6.538563    176.99003  0.035626012  0.036906387            2 
  415000    1.0723975   -6.5831611     176.8914  0.035520362  0.036885537            5 
  416000    1.1003727   -6.6070791    176.79132  0.035414928  0.036863864            3 
  417000    1.0938624   -6.5800909    177.44942  0.035461514  0.036841501            3 
  418000    1.0669374   -6.5766934    178.06805  0.035500009  0.036819899            4 
  419000    1.0843911   -6.5353979    178.90938  0.035582614  0.036799124            4 
  420000    1.0737668   -6.5643093    178.73851  0.035463991  0.036778081            2 
  421000    1.0712898   -6.5966575    178.87772  0.035407308  0.036756686            6 
  422000    1.0782785   -6.5631302    179.80655  0.035506822  0.036735634            2 
  423000     1.075283   -6.5866568     179.5915  0.035380517  0.036714208            6 
  424000    1.0876304   -6.5623952    180.31672  0.035439607  0.036693034            2 
  425000    1.0704963   -6.6126533     180.6883  0.035429079  0.036671745            3 
  426000    1.0938796   -6.6020203      180.993  0.035405516  0.036650501            2 
  427000    1.0628486    -6.580504     181.2979  0.035382104  0.036629141            4 
  428000    1.0943824   -6.5747932    181.00315  0.035242046  0.036607176            3 
  429000    1.0954784   -6.6066944    181.76954  0.035308769  0.036585086            3 
  430000    1.0579124   -6.5578825    181.89903   0.03525175   0.03656252            4 
  431000    1.0676273   -6.6172498      182.845  0.035352861  0.036540383            5 
  432000    1.0866691   -6.6046408    182.32461  0.035170642  0.036518623            5 
  433000    1.0679712    -6.597577    182.88571  0.035197403    0.0364967            4 
  434000    1.0636824   -6.5858867    182.27672   0.03499937  0.036473649            3 
  435000    1.0944079   -6.5635865    182.95135  0.035048152  0.036450706            6 
  436000    1.0892396   -6.5739582    182.90006  0.034957963  0.036427072            6 
  437000    1.0935623   -6.6078104     182.9695  0.034891209  0.036402465            2 
  438000    1.0756245   -6.5665093     184.3223  0.035068931  0.036377477            2 
  439000    1.0858554   -6.6175579    183.95974  0.034920224  0.036353394            4 
  440000    1.0849207   -6.6038199    184.15398  0.034877648   0.03632862            3 
  441000    1.0860951   -6.6355644    183.93567  0.034757308  0.036303234            3 
  442000    1.0840094   -6.5798691    184.95009  0.034869927  0.036278102            3 
  443000    1.0783312   -6.5923718    185.07748  0.034815177  0.036253095            4 
  444000    1.0985018   -6.5875668    185.26407  0.034771784   0.03622787            3 
  445000    1.0895176   -6.5985801    186.30004  0.034887648  0.036203871            4 
  446000    1.0711707   -6.6065604    186.96358  0.034933404  0.036179936            2 
  447000     1.083317   -6.5790852    187.29581   0.03491719  0.036157351            4 
  448000    1.0932637   -6.5829742    187.32469  0.034844622  0.036135148            2 
  449000     1.065911   -6.6209116    187.10082  0.034725467  0.036112299            7 
  450000    1.0863249   -6.6385023    187.53599  0.034728887  0.036089589            3 
  451000    1.0725345   -6.5935431    188.48434  0.034827114  0.036066719            2 
  452000    1.0697165   -6.5663129    189.10826  0.034865092  0.036043858            4 
  453000    1.0841968   -6.5884695    189.43669  0.034848545  0.036021895            3 
  454000    1.0770403   -6.6101893    189.50561  0.034784437   0.03599988            4 
  455000    1.0876148   -6.6083258    190.01944  0.034802095  0.035978438            2 
  456000    1.0845739   -6.6068442    190.35638   0.03478735  0.035956198            2 
  457000    1.0876606   -6.6111596    190.89902  0.034810178  0.035934177            4 
  458000    1.1005593   -6.5982441    191.13284  0.034776717  0.035912288            5 
  459000    1.0679693   -6.6063529     191.1565  0.034705246  0.035890874            3 
  460000    1.0736356    -6.585394    191.84187  0.034753961  0.035869878            4 
  461000    1.0510995   -6.5752859    192.05024  0.034716239  0.035849368            3 
  462000    1.0834139   -6.5742879    192.44748  0.034712749  0.035828465            3 
  463000     1.082972   -6.6236497    191.87506  0.034534747  0.035807317            5 
  464000    1.0746649   -6.6261501     192.7902  0.034624676  0.035786093            2 
  465000    1.0815121   -6.6217459     193.0813  0.034602383  0.035764395            2 
  466000    1.0549887   -6.6371712    193.15362  0.034541062  0.035743389            2 
  467000    1.0506067   -6.6227302    194.46956  0.034701919  0.035722332            3 
  468000    1.0870799   -6.6181307    194.11342  0.034564355   0.03570134            4 
  469000    1.0742031   -6.6192638    194.37021  0.034536285  0.035679914            3 
  470000     1.079499   -6.5944237    195.32307   0.03463175   0.03565918            2 
  471000    1.0831241   -6.6353859    194.32332  0.034381337  0.035638093            3 
  472000    1.0756584   -6.6406437    195.37336  0.034493884  0.035616577            2 
  473000    1.0486964   -6.5930217    195.89726   0.03451326  0.035595199            3 
  474000    1.0535506   -6.5996883    196.85239  0.034608366   0.03557394            3 
  475000    1.0832196   -6.6029813    196.29125  0.034437061  0.035553052            4 
  476000     1.065912   -6.6410541    197.05586  0.034498575  0.035532863            3 
  477000    1.0343597   -6.6057697    197.50488  0.034504696  0.035512816            1 
  478000    1.0844001   -6.6174973    198.12583  0.034540766  0.035492749            2 
  479000    1.0415775   -6.6642442     197.8877  0.034427227  0.035472331            3 
  480000    1.0521913   -6.6232447    198.99223  0.034547261  0.035451988            2 
  481000     1.071845   -6.6053018    198.33539   0.03436164   0.03543184            3 
  482000    1.0576667   -6.6063537    198.65486  0.034345585  0.035411368            4 
  483000    1.0543327    -6.610831     199.5477  0.034428519  0.035391385            2 
  484000     1.058507   -6.6346538    199.39475  0.034331052  0.035370862            4 
  485000    1.0616831   -6.6174552     199.7153  0.034315343  0.035350068            3 
  486000    1.0706673   -6.6405965    200.05131   0.03430235  0.035328859            2 
  487000    1.0799509   -6.6404791    199.93425  0.034211884   0.03530774            3 
  488000    1.0635412   -6.6309827    201.04534  0.034331513  0.035287062            4 
  489000    1.0454662   -6.6064873    201.03167  0.034258976  0.035265933            3 
  490000    1.0805217   -6.6601381    200.32234  0.034068425   0.03524464            4 
  491000    1.0472146   -6.6381766    201.60326   0.03421644  0.035223012            3 
  492000    1.0645277   -6.6099437     201.9032  0.034197697  0.035201955            3 
  493000    1.0459929    -6.646324    202.52221  0.034232964  0.035182017            2 
  494000    1.0600871   -6.6549735    202.06412   0.03408639  0.035161141            3 
  495000    1.0570209   -6.6261157     202.7283  0.034129344  0.035139929            2 
  496000    1.0640925   -6.6558491    203.50769  0.034191481  0.035119066            2 
  497000    1.0622148   -6.6431207    202.94389  0.034028151  0.035098247            4 
  498000    1.0663882   -6.6769466    203.10073  0.033986066  0.035077785            4 
  499000    1.0441784   -6.6515338    204.21696  0.034104368  0.035057539            4 
  500000    1.0553526   -6.6484827     204.4929  0.034082149  0.035036969            5 
  501000    1.0697212   -6.6101659    204.83049  0.034070274  0.035016262            2 
  502000    1.0462159   -6.6235283    205.28401   0.03407769  0.034995637            4 
  503000    1.0712054    -6.633504    205.50346    0.0340463  0.034975157            3 
  504000     1.047603   -6.6690419    205.55918   0.03398796  0.034954705            4 
  505000    1.0449072    -6.667176    206.01472  0.033995828  0.034934321            4 
  506000    1.0664476   -6.6655731    205.44215  0.033834346  0.034913177            2 
  507000    1.0386146   -6.6309053    206.48576  0.033939145  0.034892576            4 
  508000    1.0496498    -6.669562    206.40421  0.033858959  0.034872514            3 
  509000    1.0463809   -6.6419337    206.75893  0.033850512  0.034852119            3 
  510000    1.0429492   -6.6508418    207.11757  0.033842741  0.034831628            3 
  511000    1.0555034   -6.6542863    208.32454  0.033973343  0.034811313            2 
  512000    1.0507174   -6.6328164    208.58721  0.033949741  0.034791559            2 
  513000    1.0372817    -6.644044    208.22466  0.033824669   0.03477159            1 
  514000    1.0712085   -6.6539351    209.00573  0.033885495  0.034751843            5 
  515000    1.0435151   -6.6793714    208.98594  0.033816495  0.034732118            2 
  516000     1.058162   -6.6357467    210.15688  0.033940064   0.03471251            3 
  517000    1.0503913     -6.60794    210.88599  0.033991939  0.034693369            6 
  518000    1.0374326    -6.601969    210.61081  0.033882048  0.034674741            6 
  519000    1.0555667   -6.6647812    211.11939  0.033898425  0.034656134            3 
  520000     1.062779   -6.6574463    211.56667  0.033904916  0.034637798            2 
  521000    1.0368105   -6.6874849     211.3838  0.033810588  0.034619294            4 
  522000    1.0266866   -6.6567738    212.72807   0.03396042  0.034600853            2 
  523000    1.0225733   -6.6904689    211.90821  0.033764852  0.034582618            4 
  524000    1.0525139   -6.6810548    212.03896  0.033721208   0.03456382           10 
  525000    1.0517137   -6.6925331    211.89621  0.033634319  0.034544969            7 
  526000    1.0609475   -6.6519419    213.30663  0.033793826  0.034526077            2 
  527000     1.047567   -6.6800796    213.24112  0.033719343  0.034507476            3 
  528000    1.0463615   -6.6785457    213.96822  0.033770237  0.034488474            3 
  529000    1.0433618    -6.661048    213.76636  0.033674601   0.03446969            2 
  530000    1.0494032   -6.6552173    214.67441  0.033753838  0.034450311            4 
  531000    1.0298719   -6.6514533    214.31467  0.033633816  0.034430496            2 
  532000    1.0370612   -6.6999501    214.80138  0.033646832  0.034411104            5 
  533000    1.0114685   -6.6730508    214.71503  0.033570205  0.034391588            2 
  534000    1.0515912   -6.6743699    215.36231   0.03360835  0.034372359            3 
  535000    1.0412778   -6.6656517    216.56881  0.033733459  0.034353207            4 
  536000     1.046797   -6.6859449    215.96893  0.033577258   0.03433462            4 
  537000    1.0297495    -6.695838    216.58379  0.033610147  0.034316194            2 
  538000    1.0500553   -6.6859127    217.02626  0.033616212  0.034298091            2 
  539000    1.0538124   -6.6532584    216.90714  0.033535427  0.034279582           10 
  540000    1.0366645   -6.6787497     217.3002  0.033533982  0.034260906            4 
  541000    1.0247134   -6.6734361    217.13464  0.033446494  0.034242158            2 
  542000    1.0252885   -6.7009527    216.53952  0.033293284   0.03422246            2 
  543000    1.0565911    -6.639045    218.19594  0.033486179  0.034203067            3 
  544000    1.0468257   -6.6799323    217.76061  0.033357936  0.034183732            2 
  545000    1.0350977   -6.6668893    218.10779  0.033349815  0.034164013            3 
  546000    1.0466376   -6.6763691    218.83071  0.033399071  0.034144616            3 
  547000    1.0340378   -6.6733464    218.76692  0.033328293  0.034124771            2 
  548000     1.045682   -6.6738474    218.09018  0.033164566  0.034105215            2 
  549000      1.02881   -6.6910136    218.79692  0.033211433  0.034084493           11 
  550000    1.0428009   -6.6838181    219.20979  0.033213604    0.0340643            3 
  551000    1.0374276   -6.7046333    219.46074  0.033191279  0.034044138            4 
  552000    1.0334765   -6.6380647    219.88513   0.03319522  0.034023787            4 
  553000    1.0276603   -6.7013285    220.62238   0.03324629  0.034004034            5 
  554000    1.0427876   -6.6963039    220.88263  0.033225426  0.033984316            3 
  555000    1.0326011   -6.6898464     220.8813   0.03316536  0.033964389            3 
  556000    1.0243377   -6.6816126    221.45924  0.033192332  0.033944799            3 
  557000    1.0514538   -6.7066373    221.04606  0.033070924  0.033924806            6 
  558000    1.0338205   -6.6813275    221.33766  0.033055207   0.03390452            2 
  559000    1.0424965   -6.6939831    221.52748  0.033024371  0.033884315            2 
  560000    1.0220528   -6.6877286     222.7591  0.033148675  0.033864575            4 
  561000    1.0282217   -6.7145725    222.84916  0.033102965  0.033844761            4 
  562000    1.0425349   -6.6716471    222.67409  0.033018104  0.033824717            7 
  563000    1.0221643   -6.7041286    222.75015  0.032970715  0.033804809            3 
  564000    1.0178568   -6.6617814    223.31673  0.032995971  0.033785164            4 
  565000    1.0108599   -6.7022245    223.37898  0.032946753  0.033765454            3 
  566000    1.0244092   -6.7099599    224.13156  0.032999346  0.033745488            4 
  567000    1.0454203    -6.720092    223.76072  0.032886643  0.033725339            2 
  568000    1.0130362   -6.7142558    224.12479  0.032882158  0.033705233            3 
  569000    1.0360142   -6.6854824    224.84577   0.03292996  0.033685186            4 
  570000    1.0424676   -6.6943047    224.83327  0.032870361  0.033665291            3 
  571000    1.0200821   -6.7254201    225.33841  0.032886517  0.033645233            5 
  572000    1.0170619   -6.7129976    225.70837  0.032882921  0.033624871            3 
  573000    1.0136311    -6.695701    225.75523  0.032832348   0.03360491            3 
  574000    1.0224525   -6.6965331    226.25381  0.032847533  0.033584812            4 
  575000     1.030383   -6.7049445    226.80985  0.032870993  0.033564978            3 
  576000    1.0158304   -6.6545825    226.96805  0.032836813   0.03354548            4 
  577000    1.0213763   -6.7236873    226.80264  0.032756013  0.033525855            4 
  578000    1.0379637   -6.7272949    227.71875  0.032831422  0.033506502            3 
  579000    1.0326028   -6.7288435    227.44218  0.032734914  0.033486987            5 
  580000    1.0291217   -6.7216702    227.12966  0.032633572  0.033467162            8 
  581000    1.0315944   -6.7395461    227.26309  0.032596542  0.033447049            3 
  582000    1.0165113   -6.6792541    228.40509   0.03270405  0.033426826            3 
  583000    1.0380851   -6.7070938    227.97433  0.032586382  0.033406626            1 
  584000    1.0181731   -6.7105836    228.46218  0.032600197  0.033386233            7 
  585000    1.0281739   -6.7015068    228.80318  0.032593045  0.033366004            3 
  586000    1.0087443   -6.6517437     229.0631  0.032574388  0.033345764            3 
  587000    1.0180952   -6.6961692    229.55271  0.032588402  0.033325474            3 
  588000   0.99130838   -6.7215509    228.44431  0.032375894  0.033304742            7 
  589000    1.0294254    -6.693198    229.89804  0.032526604  0.033284001            2 
  590000    1.0010809   -6.7155535    228.98055  0.032341886   0.03326294            7 
  591000    1.0470155   -6.6936985    229.65275  0.032381944  0.033242014            3 
  592000    1.0297194   -6.7317988    229.63253  0.032324399  0.033220871            8 
  593000    1.0148334   -6.6688219    230.46891  0.032387424  0.033199834            3 
  594000    1.0284968   -6.7208426    230.80201  0.032379631  0.033178946            3 
  595000    1.0219347   -6.7095532    230.73853  0.032316321  0.033158373            2 
  596000    1.0034884   -6.7037677    231.09903  0.032312504  0.033137472            1 
  597000    1.0138013   -6.7300014    231.47804  0.032311285  0.033116838            5 
  598000    1.0182286   -6.7344469    231.46257  0.032255097  0.033095928            3 
  599000    1.0168728   -6.7682612     231.0931  0.032149847  0.033074645            4 
  600000    1.0334846   -6.6790051    232.23269   0.03225454  0.033053321            5 
  601000    1.0262282   -6.7062676     232.6289   0.03225581  0.033032266            1 
  602000    1.0077881    -6.738712    231.83453  0.032092266  0.033011036            2 
  603000   0.99593856   -6.6998959    232.10992  0.032077104  0.032989627            6 
  604000    1.0057809   -6.7245867    232.18851  0.032034838  0.032968364            4 
  605000    1.0176724   -6.7135305    232.62062  0.032041408     0.032947            7 
  606000    1.0101521   -6.7154739    232.46489  0.031967119  0.032925236            2 
  607000    1.0355943   -6.7104778    232.72785  0.031950556  0.032903421            4 
  608000    1.0142966   -6.7429748    233.32369  0.031979672  0.032881374            3 
  609000   0.99965922   -6.7017141    233.54726  0.031957754  0.032859575            3 
  610000    1.0192864   -6.7062354    234.66244   0.03205771  0.032838143            4 
  611000    1.0163041   -6.7482647    233.90953  0.031902554  0.032816365            8 
  612000     1.001325   -6.6801166    235.44698  0.032059773  0.032795045            2 
  613000    1.0057703   -6.7207927    235.00511  0.031947405  0.032773608            2 
  614000     0.998408   -6.6974614    235.19989  0.031921809  0.032752341            4 
  615000    1.0136651   -6.6772288    235.30012  0.031883485  0.032730853            3 
  616000     1.017513   -6.7359691    235.07261  0.031800948  0.032709644            6 
  617000    1.0379665   -6.7201162    236.15577  0.031895702  0.032688628            4 
  618000   0.99976591   -6.7513042     236.3841  0.031874879  0.032667334            7 
  619000    1.0325588   -6.7446917    236.27398  0.031808559  0.032646072            4 
  620000    1.0192638   -6.7122765    236.22845  0.031751136  0.032624967            2 
  621000    1.0239298   -6.7269224    236.73079  0.031767417  0.032603716            4 
  622000   0.99850435   -6.7200496    236.76328  0.031720696    0.0325825            3 
  623000    1.0033183   -6.7276377    236.80413  0.031675245  0.032560896            3 
  624000    1.0168558   -6.7649253    237.37659  0.031700933  0.032539069            3 
  625000    1.0151139   -6.7596052    236.95326  0.031593768  0.032517128            6 
  626000    1.0193064   -6.7691628     237.6612   0.03163754  0.032495519            4 
  627000   0.98727451   -6.7330573    238.25437  0.031665918  0.032473905            3 
  628000    1.0193123   -6.7386563    238.23019  0.031612287  0.032452161            4 
  629000   0.99871881   -6.7831345    239.11511  0.031679267  0.032430493            3 
  630000    1.0069952   -6.7540702    238.58183  0.031558443  0.032409137           11 
  631000   0.99710131   -6.7477905    239.37769  0.031613536  0.032388109            5 
  632000   0.97740903   -6.7824258    239.53828  0.031584689  0.032367148            5 
  633000   0.99757735   -6.7377956    239.94947  0.031588925   0.03234634            4 
  634000    1.0206318   -6.7673899    239.99208    0.0315447  0.032325461            5 
  635000    1.0162685   -6.7450918    240.70419  0.031588476   0.03230461            5 
  636000   0.99588845   -6.7349291     240.6284  0.031528879  0.032283776            2 
  637000   0.99364521   -6.7302624    240.75954  0.031496538   0.03226346            4 
  638000   0.99560913   -6.7544567    241.35336  0.031524733  0.032243134            4 
  639000   0.98492943   -6.7532474    241.63653  0.031512328  0.032222913            4 
  640000    1.0047621   -6.7850833    241.87052  0.031493557  0.032202108            3 
  641000    1.0139495   -6.7746213    242.25574  0.031494506  0.032181542            1 
  642000   0.99932081   -6.7533288    242.18296  0.031436002   0.03216093            3 
  643000   0.99165463   -6.7253869    242.16883  0.031385282  0.032140049            3 
  644000    1.0033992   -6.7389769    242.74785  0.031411472  0.032119848            3 
  645000   0.99387639    -6.758327    243.47592  0.031456837  0.032099628            4 
  646000   0.98758762   -6.7815341    244.51374   0.03154202  0.032079605            2 
  647000    0.9971635   -6.7415785    244.62334  0.031507386  0.032059846            3 
  648000   0.98719096   -6.7743337    244.19102  0.031403166  0.032040446            2 
  649000    1.0024945   -6.7632431    244.55499  0.031401514   0.03202092            4 
  650000    1.0184326   -6.7656097    245.02362  0.031413284  0.032001442            4 
  651000   0.99602605   -6.7738759    244.88096  0.031346769  0.031982056            3 
  652000    1.0061814   -6.7944508    245.45207  0.031371686  0.031962812            4 
  653000   0.99079804   -6.7433831    245.42298  0.031319931  0.031943005            5 
  654000    0.9929636    -6.753868    246.21184  0.031372559  0.031923674            5 
  655000   0.98315522   -6.7682588    245.77164  0.031268657  0.031903478            4 
  656000   0.99641147   -6.7398376    245.93041   0.03124116  0.031883638            6 
  657000    1.0047673   -6.7431223    246.45637  0.031260321  0.031863867            4 
  658000   0.97149473    -6.729946    246.66024  0.031238633  0.031844004            3 
  659000   0.99821695   -6.7459652    246.88134  0.031219188  0.031824264            5 
  660000   0.97296842   -6.7306973    247.14655  0.031205373  0.031804334            3 
  661000   0.97489237   -6.7962666     246.4929  0.031075756  0.031784273            1 
  662000    1.0037125   -6.7737401    247.04171  0.031097898   0.03176408            7 
  663000   0.98326719   -6.7682099    247.57242    0.0311177  0.031743994            8 
  664000   0.99592345   -6.7643694     247.6103  0.031075589  0.031723781            3 
  665000   0.99074633   -6.7820662    248.29956  0.031115234  0.031704025            3 
  666000   0.98890732   -6.8109816    247.83819  0.031010785  0.031684404            4 
  667000    0.9867763   -6.7497195    248.63528  0.031063878  0.031664798            5 
  668000   0.98879839   -6.7317782    249.46051  0.031120323  0.031645454            4 
  669000   0.97813891   -6.7566613    248.79268  0.030990618  0.031625572            5 
  670000   0.99638144   -6.7776541    249.63982  0.031049729  0.031606108            5 
  671000    1.0124496   -6.8055328    249.01306  0.030925617  0.031586409            5 
  672000   0.98836492   -6.7867359    249.38173  0.030925314  0.031566688            6 
  673000    0.9783688   -6.7686062    250.35372  0.030999717  0.031547143            4 
  674000   0.98254256   -6.7833222    250.34328  0.030952434  0.031527722            9 
  675000   0.98764176   -6.8041033    250.52607  0.030929144  0.031508249            4 
  676000   0.97589226   -6.7904003    250.52379   0.03088311  0.031488784            6 
  677000   0.97359529   -6.7737988    251.60116  0.030970108  0.031469767            3 
  678000   0.97427473   -6.7473239    251.95394   0.03096779  0.031450784            5 
  679000   0.97007541    -6.783313    251.57879   0.03087614  0.031431582            3 
  680000   0.99217617   -6.7725279    251.82136  0.030860461  0.031412139            3 
  681000   0.96804366   -6.7878489    252.28653  0.030872067  0.031393067            5 
  682000   0.97671875   -6.7624373    253.22424  0.030941379  0.031373948            4 
  683000   0.97465912   -6.8130549    252.35555  0.030790086  0.031354663            6 
  684000   0.99050006   -6.7675174    251.96851  0.030697918  0.031334914            5 
  685000   0.97770832   -6.7628803     252.2195  0.030683638  0.031315084            5 
  686000   0.97475727   -6.8241429    252.20453  0.030637091  0.031295274           10 
  687000   0.97569685   -6.7766052    253.21875   0.03071552  0.031275389            2 
  688000   0.95771896   -6.8105368    253.13302  0.030660492   0.03125513            6 
  689000   0.97773153   -6.7794751    252.67049  0.030560049   0.03123499            9 
  690000   0.96373018   -6.7816709    253.66906   0.03063636  0.031215173            6 
  691000    1.0048403   -6.8092885    253.36099  0.030554871  0.031195093            6 
  692000   0.96345834   -6.8157422     253.3403  0.030508225  0.031174858            3 
  693000   0.95962199   -6.7544766    253.68451  0.030505593  0.031154481            4 
  694000   0.96912276     -6.81238     253.8036  0.030475936  0.031133844            4 
  695000   0.98932463   -6.8006539    253.75702  0.030426502  0.031113139            2 
  696000   0.98580411   -6.8455858     254.3208  0.030450287  0.031092634            3 
  697000    0.9759589   -6.8162013    254.05008  0.030374232  0.031072048            3 
  698000   0.98919106   -6.7887182    255.61737  0.030517833  0.031051843            5 
  699000   0.96552273   -6.8198753    254.62716  0.030356123  0.031031692            5 
  700000   0.97292667    -6.795348    255.41243  0.030406241  0.031011717            2 
  701000   0.96607133   -6.7896688    256.49549  0.030491618  0.030991875            3 
  702000   0.96254935   -6.7948345    255.92383  0.030380321  0.030972096            6 
  703000   0.97656829   -6.8108909    256.60691  0.030418078  0.030952303            5 
  704000   0.97507195   -6.8263916    256.57237  0.030370782  0.030932651            3 
  705000   0.96810615   -6.7959511    256.54058  0.030323945  0.030912982            2 
  706000   0.98343277    -6.829291    257.38552  0.030380727  0.030893207            3 
  707000   0.98057593   -6.8230621    257.66803  0.030371055  0.030873799            3 
  708000   0.98003661   -6.7871926    257.85306  0.030349936  0.030854589            4 
  709000   0.97358344   -6.8128445    257.90519  0.030313257  0.030835563            6 
  710000   0.94594402   -6.8192792    258.19903   0.03030505  0.030816474            3 
  711000   0.96684524   -6.8266934    258.38457  0.030284173  0.030797538            7 
  712000   0.96220038   -6.7922727    259.21163   0.03033844  0.030778586            6 
  713000   0.98327836   -6.7913085    258.63722  0.030228754  0.030759742            8 
  714000   0.94430616   -6.8254669     259.4295  0.030278887  0.030740753            6 
  715000   0.98312271   -6.8105142    259.36797  0.030229367  0.030721817            7 
  716000   0.95953844   -6.7955747    260.54621   0.03032428  0.030702651            3 
  717000   0.97167899   -6.8600782    259.48682  0.030158859  0.030683453            5 
  718000   0.98033676   -6.8036251    259.46543  0.030114372   0.03066408            7 
  719000   0.99072394    -6.793093    260.36699  0.030176981  0.030644858            3 
  720000   0.96024545   -6.8132642     259.8512   0.03007537  0.030625684            6 
  721000   0.96673715   -6.8101282    260.46965  0.030105137   0.03060632            3 
  722000   0.96984165   -6.8229043     260.5066  0.030067705   0.03058701            2 
  723000   0.97640942   -6.8147457    261.11783  0.030096569   0.03056794            7 
  724000    0.9683914    -6.789175    260.78094  0.030016223  0.030548664            3 
  725000   0.94715591   -6.8394672    260.84632  0.029982336   0.03052906            7 
  726000   0.95253017   -6.8376395     261.5694  0.030024035  0.030509758            3 
  727000   0.97501333   -6.8229374     261.3392   0.02995635  0.030490631            2 
  728000   0.98033317    -6.832245    261.55717  0.029940152  0.030471186            4 
  729000   0.95056809   -6.8417889    262.67989  0.030027422  0.030451638            3 
  730000   0.95855867   -6.8054047    262.96384  0.030018703  0.030432453            3 
  731000   0.95357994   -6.8160726    262.86287  0.029966128  0.030413292            4 
  732000   0.95086936   -6.8525893      262.528  0.029887068  0.030394089            4 
  733000   0.97001658   -6.8560013    263.31794    0.0299361  0.030374786            8 
  734000   0.95113282   -6.8565686    262.80403   0.02983697  0.030355581            3 
  735000   0.96235818   -6.8108644     263.5841  0.029884818  0.030336184            4 
  736000   0.92750521   -6.8201328    263.53739  0.029838926  0.030316722            6 
  737000    0.9499796   -6.8466053    263.94635   0.02984468  0.030297364            3 
  738000   0.95733378   -6.8425241     263.9269  0.029802044  0.030277782            8 
  739000   0.97476272   -6.8204799    264.17361  0.029789536  0.030258403            2 
  740000    0.9393139   -6.8181383    264.37133  0.029771546   0.03023915            7 
  741000   0.95823926   -6.8156788    266.10494  0.029926332  0.030220005            5 
  742000   0.93504082   -6.8066178    265.72209  0.029843001  0.030201096            4 
  743000   0.93116958   -6.8329926    264.48679  0.029664288  0.030182118            8 
  744000   0.92687895   -6.8371439    265.07328  0.029690108  0.030163216            4 
  745000   0.94841289   -6.8531531    265.25887  0.029671014  0.030144265            6 
  746000   0.97028266   -6.8511783      265.443   0.02965181  0.030125366            3 
  747000   0.96426206    -6.853862    266.25848  0.029703087  0.030106412            3 
  748000   0.95661745   -6.8483931     266.4193  0.029681295  0.030087635            3 
  749000   0.96250785   -6.8703772    266.15333  0.029612075  0.030068691            4 
  750000   0.93421723   -6.8263938    266.06742  0.029563046  0.030049464            5 
  751000   0.95201775   -6.8533959    266.87244   0.02961301  0.030030426            5 
  752000   0.95485918   -6.8126546    266.72209  0.029556969  0.030011419            3 
  753000   0.94907586    -6.816888    267.17538  0.029567881  0.029992433            3 
  754000   0.94098719    -6.816074    267.14759  0.029525596  0.029973342            6 
  755000   0.92901504   -6.8709848    266.62713  0.029429043  0.029954004            3 
  756000   0.93604361   -6.8360562    266.81715  0.029411062  0.029934533            6 
  757000   0.95419501   -6.8270199    267.57722  0.029455881   0.02991511            5 
  758000    0.9722397   -6.8519134    267.62194  0.029421937  0.029895843            3 
  759000   0.94195303   -6.8403952    267.19667  0.029336482  0.029876795            4 
  760000   0.93447285   -6.8372229    268.39184   0.02942893  0.029857503            7 
  761000   0.93643934    -6.835014    267.78253  0.029323536  0.029838227            5 
  762000   0.96016261   -6.8230874    268.49951  0.029363464   0.02981887            4 
  763000    0.9766048   -6.8359899    269.28879  0.029411183  0.029799369            4 
  764000    0.9336747   -6.8542744    269.17402  0.029360168  0.029779934           12 
  765000   0.93035928   -6.8231288      268.968  0.029299346  0.029760615            4 
  766000   0.94262544    -6.835553    269.70805  0.029341606   0.02974145            6 
  767000   0.93143869   -6.8500153     269.4071  0.029270654  0.029722011            9 
  768000   0.93770549   -6.8442017     268.8876  0.029176172  0.029702048            7 
  769000    0.9591153   -6.8554068    269.48819  0.029203315  0.029682108            7 
  770000    0.9578641   -6.8612365    268.51911   0.02906051  0.029662276            3 
  771000   0.94508795   -6.8441646    269.11155  0.029086852  0.029642367            5 
  772000   0.95425329   -6.8502921    269.69627  0.029112292  0.029622611            5 
  773000   0.94736712   -6.8486405    269.88841  0.029095344  0.029603164            2 
  774000   0.93475796   -6.8349445    270.28886  0.029100868  0.029583552            8 
  775000   0.93306061   -6.8698376    270.00142  0.029032411  0.029563981            4 
  776000    0.9435635   -6.8752357    271.23218  0.029127167  0.029544034            6 
  777000    0.9548154   -6.8377628    270.13574  0.028972087  0.029524203            2 
  778000   0.94214186   -6.8338729    270.21643  0.028943491  0.029504075            6 
  779000   0.93979126   -6.8361803    271.81807  0.029077671  0.029484242            7 
  780000   0.94647598   -6.8518215    271.36926  0.028992443  0.029464578            9 
  781000   0.95663419    -6.870556    270.32716  0.028844127  0.029444603            5 
  782000   0.95574273   -6.8559193    271.18307  0.028898452   0.02942451            6 
  783000   0.91699488   -6.9011041    270.93404   0.02883504  0.029404349            4 
  784000   0.95153978   -6.8614941    271.01829  0.028807216  0.029384342            2 
  785000   0.94683975   -6.8586079    272.24764  0.028901023  0.029364241            8 
  786000   0.92401356   -6.8713149    271.60261  0.028795866   0.02934424            6 
  787000   0.93807453   -6.8656329    271.85211  0.028785696  0.029324524            3 
  788000   0.94891572   -6.8708505    271.83877  0.028747755  0.029304447            6 
  789000   0.93376176   -6.8771253    272.95992  0.028829734  0.029284479            6 
  790000   0.94615006   -6.8458246    273.10489  0.028808533  0.029264546            2 
  791000   0.92825004   -6.8870775     273.0053  0.028761621  0.029244798            5 
  792000   0.91995244   -6.8477259    274.08269  0.028838667   0.02922499            5 
  793000    0.9218314   -6.8821821    272.33555    0.0286187  0.029204939            3 
  794000   0.96260989   -6.9251167    273.65454  0.028721089  0.029185102           12 
  795000   0.95888595   -6.8795689    273.70902  0.028690673  0.029165389            2 
  796000   0.92893071   -6.8781818    273.53844  0.028636771  0.029145754            4 
  797000   0.93498286    -6.857678    274.00344   0.02864946  0.029126309            7 
  798000   0.93535889   -6.8679011    274.03314   0.02861666  0.029106173            9 
  799000    0.9260263   -6.8618883    273.63418  0.028539234  0.029086073            5 
  800000    0.9444901   -6.8469263    274.49528  0.028593258  0.029065955           10 
  801000   0.91775062   -6.9057458    274.17109  0.028523834  0.029045736            6 
  802000   0.94414492   -6.9184573    273.48484  0.028416962  0.029025329            2 
  803000   0.94853318   -6.9019181    273.24215  0.028356387  0.029004575            3 
  804000   0.92728356   -6.8959772    274.31437  0.028432253  0.028983985            3 
  805000   0.91655807   -6.8491105    273.69643  0.028332964  0.028963553            2 
  806000    0.9348255   -6.8670706     274.7753  0.028409357  0.028943367            4 
  807000   0.94493129   -6.8998106    274.93466   0.02839061  0.028923011            5 
  808000   0.91285006   -6.8964618    275.13202  0.028375827  0.028902658            3 
[...]
 1800000   0.54601067   -7.7306641    327.97141  0.015183862  0.013904378           32 
 1801000   0.52814776   -7.7177839    327.78846  0.015166966  0.013893428           48 
 1802000   0.53280693   -7.7282401    327.46554  0.015143616  0.013882504           25 
 1803000   0.54494233   -7.7202353    328.05401  0.015162415  0.013871576           25 
 1804000   0.53471338   -7.7204033    328.08874  0.015155614  0.013860661           32 
 1805000   0.53570513   -7.7384079    327.91284  0.015139097  0.013849759           39 
 1806000   0.52847062    -7.734561    328.08157    0.0151385  0.013838856           42 
 1807000   0.53349679   -7.7249551    327.63166  0.015109374  0.013827958           50 
 1808000   0.53689981   -7.7186747    327.52992  0.015096327  0.013817074           53 
 1809000   0.52473159    -7.728594    328.08812  0.015113696   0.01380618           46 
 1810000   0.53285438   -7.7445455    327.41533   0.01507437  0.013795317           51 
 1811000   0.54898855   -7.7405653    327.37165  0.015064037   0.01378447           41 
 1812000   0.51740258   -7.7402424    327.27444  0.015051253  0.013773632           65 
 1813000    0.5334726   -7.7404297    327.80682  0.015067421  0.013762788           48 
 1814000   0.53129124   -7.7363707    327.17613  0.015030142  0.013751962           55 
 1815000   0.51700503   -7.7387973    327.75459   0.01504842  0.013741142           38 
 1816000   0.54326844   -7.7323336    327.55428  0.015030941  0.013730334           77 
 1817000   0.53420861   -7.7371662     327.4924  0.015019831  0.013719533           54 
 1818000   0.53579441   -7.7199857    328.10424  0.015039615  0.013708763           24 
 1819000   0.51934389   -7.7446815    327.67282  0.015011582  0.013697989           77 
 1820000   0.53390312   -7.7649921    327.08458    0.0149764   0.01368722           45 
 1821000   0.52876677   -7.7429643    326.81043   0.01495563  0.013676451           52 
 1822000   0.52947892    -7.766362     327.5285  0.014980265  0.013665689           64 
 1823000   0.52476415   -7.7423056     327.8147   0.01498513  0.013654941           47 
 1824000   0.52629827   -7.7642549    327.62042  0.014968038  0.013644193           55 
 1825000   0.52224496   -7.7429631    327.37595  0.014948674  0.013633457           77 
 1826000   0.53278753    -7.730956    327.24943  0.014934713  0.013622741           92 
 1827000   0.52704204   -7.7411394    327.77354  0.014950444  0.013612026           35 
 1828000   0.51642867   -7.7442277    327.56629  0.014932818  0.013601308           49 
 1829000   0.53326599   -7.7371668    327.01883   0.01489971  0.013590611           59 
 1830000   0.51437988   -7.7441141    326.83573   0.01488323  0.013579908           61 
 1831000   0.52049385   -7.7729389    327.15795  0.014889766  0.013569206           66 
 1832000   0.51817674   -7.7519517    327.15203   0.01488137  0.013558534           59 
 1833000   0.52995833   -7.7654439    326.95696  0.014864383   0.01354788           59 
 1834000   0.52178272   -7.7719502    327.06283  0.014861088   0.01353723           49 
 1835000   0.52280106   -7.7425831    326.87532  0.014844474  0.013526601           48 
 1836000   0.51874834   -7.7672539    327.50264  0.014864862  0.013515983           46 
 1837000   0.51639116   -7.7494523    327.06231  0.014836795  0.013505359           57 
 1838000   0.51175109   -7.7664987    327.65067  0.014855399  0.013494755           21 
 1839000   0.52604492   -7.7552907    326.92208  0.014814305  0.013484143           47 
 1840000   0.52482629   -7.7609778    327.39554  0.014827697  0.013473555           39 
 1841000   0.50905596   -7.7639892    326.90936  0.014797635  0.013462978           61 
 1842000   0.51905735   -7.7392305    327.36688    0.0148103  0.013452403           46 
 1843000   0.51598362    -7.763614    326.65912  0.014770262  0.013441848           55 
 1844000   0.51164919    -7.761487    326.97765  0.014776647  0.013431302           75 
 1845000   0.51809226   -7.7625304    326.99425  0.014769388  0.013420752           30 
 1846000   0.51167571    -7.758001    327.53737  0.014785905  0.013410214           91 
 1847000   0.51978634   -7.7866162    327.25227  0.014765037  0.013399684           37 
 1848000   0.50236127   -7.7530118    327.08815  0.014749646   0.01338916           67 
 1849000   0.50989965   -7.7635158    326.76138  0.014726942  0.013378636           42 
 1850000   0.53237503   -7.7635601    326.88227  0.014724427  0.013368126           61 
 1851000   0.50721778   -7.7725207    326.75544  0.014710762  0.013357629           43 
 1852000   0.52565654   -7.7529788    326.29913  0.014682286  0.013347143           53 
 1853000   0.51135175   -7.7510275    327.36512  0.014722303  0.013336658           45 
 1854000   0.51416931   -7.7509533    326.68007   0.01468357  0.013326185           97 
 1855000    0.5119526   -7.7782574    327.09132  0.014694129  0.013315724           56 
 1856000   0.51164247   -7.7692213    326.93765  0.014679313  0.013305263           49 
 1857000    0.5062804   -7.7750575    327.07262  0.014677465  0.013294822           45 
 1858000   0.52328938    -7.746332    327.01634  0.014667041  0.013284395           47 
 1859000   0.50493279   -7.7805291    327.25963  0.014670057  0.013273981           81 
 1860000   0.51864506   -7.7552055    327.15216  0.014657355  0.013263569           60 
 1861000   0.49527419   -7.7744592    327.96761  0.014685994  0.013253172           45 
 1862000   0.50365705   -7.7879487    327.25161  0.014646062  0.013242782           50 
 1863000   0.50477488   -7.7780143    326.78122   0.01461716  0.013232394           54 
 1864000   0.50599632   -7.7601642    327.16217  0.014626349  0.013222016           82 
 1865000   0.50226744   -7.7716104    326.74245  0.014599752  0.013211651           48 
 1866000   0.51307706   -7.7698275    327.42474  0.014622398  0.013201277          102 
 1867000   0.50921082   -7.7656454    327.28504  0.014608331  0.013190921           45 
 1868000    0.5082702   -7.7886601    327.31738  0.014601953  0.013180581           54 
 1869000   0.51003156   -7.7695469    327.24385  0.014590862   0.01317024           27 
 1870000    0.5008215    -7.768031     326.7224  0.014559822   0.01315993           55 
 1871000   0.49838452    -7.775692    326.99488  0.014564176  0.013149619           45 
 1872000   0.49325917   -7.7761559    327.07108  0.014559788  0.013139313           47 
 1873000    0.5074585   -7.7754161    326.86457  0.014542827  0.013129015           43 
 1874000    0.5014563   -7.7703027    327.12345  0.014546578  0.013118715           54 
 1875000   0.50203449   -7.7775197    326.89858  0.014528826  0.013108436           64 
 1876000    0.5042108   -7.7773652    326.95682  0.014523668  0.013098149           35 
 1877000   0.50335773    -7.777306     326.8249  0.014510074  0.013087876           46 
 1878000   0.50913656   -7.7762968    327.00213  0.014510212  0.013077618           48 
 1879000   0.50624228    -7.770227    327.08407  0.014506123  0.013067375           47 
 1880000   0.50867876    -7.788925    327.20031   0.01450356   0.01305712           66 
 1881000   0.48608895   -7.7820058    326.12567   0.01444824  0.013046879           63 
 1882000   0.50045165    -7.776415    326.79055  0.014470003  0.013036646           43 
 1883000   0.50360115   -7.7734609    326.49642  0.014449301  0.013026424           34 
 1884000   0.49599617   -7.7943496    326.78233  0.014454278   0.01301622           37 
 1885000   0.51030361   -7.7789984    326.94377  0.014453747  0.013006018           62 
 1886000   0.49044775   -7.7730783    326.29545  0.014417438  0.012995818           34 
 1887000   0.49767664   -7.7895859    326.38227  0.014413632  0.012985625           68 
 1888000   0.49598008   -7.7761998    327.01882  0.014434093  0.012975454           37 
 1889000    0.5072213   -7.7893141    326.43922  0.014400883  0.012965292           58 
 1890000   0.50163137   -7.7968229    326.17553  0.014381637  0.012955135           64 
 1891000   0.49244982   -7.7952394    326.21284  0.014375676  0.012944991          136 
 1892000   0.50078983   -7.7881303    326.56111  0.014383417  0.012934855           46 
 1893000   0.49294693   -7.7983787    326.36554   0.01436721  0.012924738           51 
 1894000   0.48704444   -7.8036319    326.61574  0.014370633  0.012914621           46 
 1895000   0.48669987   -7.7910641    326.73942  0.014368488  0.012904513           57 
 1896000   0.50564362   -7.8023924    327.25718  0.014383666  0.012894419           46 
 1897000    0.5025436   -7.8001817    326.25696  0.014332146  0.012884332           35 
 1898000   0.50239852   -7.7854106    327.24809  0.014368111   0.01287426           44 
 1899000   0.48115337   -7.7892591    326.15705  0.014312667  0.012864188           53 
 1900000   0.49122423   -7.8000978    326.35139  0.014313657  0.012854133           44 
 1901000   0.49348251   -7.7944961    326.70763  0.014321744  0.012844091           29 
 1902000   0.48914879    -7.806506    326.52081  0.014306029  0.012834047           39 
 1903000   0.49892958    -7.791442    326.55252    0.0142999  0.012824006           41 
 1904000   0.48904778   -7.7936018    326.49238  0.014289758  0.012813988           57 
 1905000   0.49692694   -7.7922966    326.79827  0.014295637  0.012803971          109 
 1906000    0.4965676   -7.7854847    326.71524  0.014284507  0.012793965           58 
 1907000   0.49189183   -7.8106645    326.72032  0.014277238  0.012783966           72 
 1908000   0.48424361   -7.7887096    326.31884   0.01425222  0.012773973           48 
 1909000   0.49579981   -7.7837493    327.12529  0.014279959  0.012763996           59 
 1910000   0.49306963   -7.8040949    326.27798  0.014235514   0.01275403           75 
 1911000   0.48929478   -7.7914747    326.34667   0.01423106  0.012744071           57 
 1912000     0.482018   -7.7922293    326.24589  0.014219225  0.012734115           44 
 1913000   0.48031612   -7.8092949    326.43579  0.014220064   0.01272417           37 
 1914000   0.48467783   -7.8088246    326.43182  0.014212462  0.012714237           64 
 1915000   0.48933016   -7.8176582    326.73689  0.014218316  0.012704321           51 
 1916000   0.47284126    -7.818069    326.57568  0.014203883  0.012694399           44 
 1917000   0.48838938   -7.8076854    326.32575  0.014185609  0.012684484           54 
 1918000   0.49097037   -7.7989109    326.49269  0.014185466  0.012674583           32 
 1919000   0.48367826    -7.801294    326.52102  0.014179304  0.012664686           40 
 1920000   0.47801674    -7.807836     326.1778  0.014157023  0.012654797           90 
 1921000   0.48060763   -7.8075632     326.5765  0.014166948   0.01264491           47 
 1922000   0.48590582   -7.8022109    326.33583  0.014149143  0.012635041           49 
 1923000   0.47874482   -7.8154429    326.14368  0.014133458   0.01262518           37 
 1924000   0.48112902    -7.799994    326.58743  0.014145332  0.012615326           49 
 1925000   0.49079022   -7.8126021    326.32426  0.014126592  0.012605482           42 
 1926000   0.47897261   -7.8072395    326.29669  0.014118064  0.012595644           74 
 1927000   0.48967678   -7.8017706    326.49667  0.014119385  0.012585817           29 
 1928000   0.48624397   -7.8075007    326.42032  0.014108762  0.012575996           80 
 1929000   0.48108739   -7.8129967    326.27894   0.01409534   0.01256619           49 
 1930000   0.47045843   -7.7962086    325.90218   0.01407177  0.012556391           64 
 1931000   0.48476523   -7.8108723    326.41201  0.014086484  0.012546596           48 
 1932000    0.4885336   -7.8084093    326.54477  0.014084919  0.012536812           56 
 1933000   0.47934495   -7.7892212    325.94913  0.014051954  0.012527035           46 
 1934000   0.48042321   -7.8154192    326.09732  0.014051074  0.012517264           50 
 1935000   0.48144395    -7.792592    326.27801  0.014051594  0.012507517           82 
 1936000   0.49152501   -7.8155319    326.22456  0.014042035  0.012497775           74 
 1937000   0.48710369   -7.8179511     326.5846  0.014050275  0.012488036           41 
 1938000   0.47336678   -7.8150175    325.95681  0.014016031  0.012478305          135 
 1939000   0.48578356   -7.8180663    325.99928  0.014010628  0.012468597           82 
 1940000   0.48825772   -7.7950353    326.74055  0.014035247  0.012458901           72 
 1941000    0.4854266   -7.8165365    326.15675  0.014002952    0.0124492           75 
 1942000   0.47465701   -7.8207065    325.41755  0.013964021  0.012439504           33 
 1943000   0.48348934   -7.8214407    326.24706  0.013992411  0.012429817           41 
 1944000   0.48804631    -7.806748    326.15404  0.013981226  0.012420141           85 
 1945000   0.48167964   -7.8234911    325.78504  0.013958228   0.01241046           58 
 1946000   0.47783232   -7.8032313    325.63644  0.013944692  0.012400792           70 
 1947000   0.48002367   -7.8234978    326.22607  0.013962766  0.012391132           55 
 1948000   0.47452947   -7.8022922    325.75308  0.013935364  0.012381481           56 
 1949000   0.46224526   -7.8320655      325.802  0.013930306  0.012371837           67 
 1950000   0.46707845    -7.823888    326.21262   0.01394071  0.012362194           56 
 1951000   0.46635882   -7.8308945    326.14887  0.013930842  0.012352565          107 
 1952000   0.47605993   -7.8372197    325.82327  0.013909805  0.012342947           55 
 1953000   0.47809023   -7.8311251    325.96001  0.013908517  0.012333339           74 
 1954000   0.47791803   -7.8231612    325.96147  0.013901462  0.012323749          103 
 1955000   0.48373413   -7.8321059     325.8074  0.013887783  0.012314161           59 
 1956000   0.48613603    -7.831938    325.84777  0.013882403  0.012304576           55 
 1957000   0.47372261   -7.8220418    326.19876  0.013890255  0.012295007           67 
 1958000   0.47166352   -7.8153941    325.69359  0.013861661  0.012285442           33 
 1959000   0.47139061   -7.8293534    326.34546  0.013882315  0.012275889           36 
 1960000   0.46341055   -7.8182309    325.72161  0.013848708  0.012266344           72 
 1961000   0.46401947    -7.833677    325.84764  0.013847002  0.012256806           72 
 1962000   0.46922441   -7.8506585     325.5719  0.013828232  0.012247274           46 
 1963000   0.46366651   -7.8174532    325.79275  0.013830564  0.012237753           43 
 1964000   0.46033128   -7.8480917    325.62354  0.013816342  0.012228235          117 
 1965000   0.46972169   -7.8173859    325.94196  0.013822814  0.012218727           48 
 1966000   0.46698994   -7.8305552     325.5123  0.013797571  0.012209231           50 
 1967000    0.4566271   -7.8174634    326.05346  0.013813483  0.012199744          108 
 1968000   0.46901736   -7.8433089     325.3496   0.01377666  0.012190262           56 
 1969000    0.4647245   -7.8337721    326.16741  0.013804275  0.012180794           73 
 1970000   0.46731817   -7.8358505    325.69861  0.013777437  0.012171331           50 
 1971000   0.46318631    -7.847022    325.46403  0.013760529  0.012161884           80 
 1972000   0.46947204   -7.8389077     325.6062  0.013759559  0.012152445           53 
 1973000    0.4606674   -7.8208625     325.7836  0.013760078  0.012143017           49 
 1974000   0.47300694   -7.8376114    325.85567   0.01375615  0.012133596           53 
 1975000   0.47072627    -7.833065    326.04456  0.013757154  0.012124194           57 
 1976000   0.46782281   -7.8296095    326.09183  0.013752186  0.012114807          108 
 1977000    0.4695377   -7.8398656    325.74998   0.01373082  0.012105421           68 
 1978000    0.4601107   -7.8464011    325.71524  0.013722415  0.012096038           73 
 1979000   0.47125246   -7.8405207    325.97418  0.013726385  0.012086669           51 
 1980000   0.46685941   -7.8376114    326.10607  0.013725003  0.012077302           55 
 1981000   0.44858331   -7.8424468    326.08237  0.013717078  0.012067943           49 
 1982000   0.44739955   -7.8353129    325.85803  0.013700725  0.012058605           98 
 1983000   0.46674122    -7.850785    326.10468  0.013704181  0.012049274           56 
 1984000   0.46560973   -7.8609751     325.8005  0.013684497  0.012039944           60 
 1985000   0.46521453    -7.845477    325.42982  0.013662041  0.012030625           55 
 1986000   0.46212101   -7.8368724    325.49455  0.013657878  0.012021314           63 
 1987000   0.47230414   -7.8389307    325.65542  0.013657751   0.01201201           65 
 1988000   0.46287005   -7.8384899    325.67786  0.013651822  0.012002717           75 
 1989000   0.44770613   -7.8437581    325.99673  0.013658318  0.011993432           57 
 1990000    0.4628493   -7.8626434    325.45709  0.013628856  0.011984154           65 
 1991000   0.46125321   -7.8515782    325.76062  0.013634715   0.01197489           41 
 1992000    0.4505435   -7.8384568    325.54294  0.013618764  0.011965632           54 
 1993000   0.45488368     -7.86508    325.85509  0.013624983  0.011956378           72 
 1994000   0.45454673   -7.8479619    325.82504  0.013616894  0.011947133           82 
 1995000   0.45581149   -7.8377665    325.41298  0.013592856  0.011937892           46 
 1996000   0.45989012   -7.8347372    325.56536  0.013592408  0.011928664           70 
 1997000   0.45966091   -7.8557284    325.27915  0.013573658  0.011919439           62 
 1998000   0.45668822   -7.8584287    325.64758  0.013582232  0.011910226           87 
 1999000   0.45001601   -7.8520421    325.59634  0.013573301  0.011901019           38 
 2000000   0.45884416   -7.8413388    325.52286  0.013563453  0.011891824           66 
 2001000   0.46120098   -7.8587608    325.66017  0.013562393  0.011882637           45 
 2002000   0.45600689   -7.8524711    325.55955   0.01355143  0.011873451          101 
 2003000    0.4536074   -7.8476379    325.70719  0.013550807  0.011864284           42 
 2004000   0.45246455   -7.8828125     325.4216  0.013532169  0.011855114           48 
 2005000   0.45392003   -7.8579519    325.79465  0.013540925  0.011845957           64 
 2006000    0.4479817   -7.8523149    325.46185  0.013520349  0.011836806           48 
 2007000   0.44869821   -7.8464494    325.57301  0.013518228  0.011827675           86 
 2008000   0.45434452   -7.8489431    325.20451  0.013496203  0.011818549           65 
 2009000   0.44905385   -7.8428993    325.29087  0.013493067  0.011809426           89 
 2010000   0.44879383   -7.8680474    325.34106  0.013488435  0.011800318          113 
 2011000   0.45426613   -7.8484323    325.71492   0.01349722  0.011791208           50 
 2012000   0.45171111   -7.8729432    325.31837  0.013474088  0.011782112           61 
Loop time of 4612.85 on 48 procs for 2000000 steps with 4000 atoms

Performance: 74921.174 tau/day, 433.572 timesteps/s
99.4% CPU use with 48 MPI tasks x no OpenMP threads

MPI task timing breakdown:
Section |  min time  |  avg time  |  max time  |%varavg| %total
---------------------------------------------------------------
Pair    | 275.53     | 289.16     | 304.09     |  39.4 |  6.27
Neigh   | 27.013     | 27.712     | 28.759     |   8.0 |  0.60
Comm    | 253.06     | 278        | 300.53     |  77.0 |  6.03
Output  | 4.0786     | 4.0804     | 4.1189     |   0.3 |  0.09
Modify  | 3930.5     | 3957.5     | 4000.1     |  32.7 | 85.79
Other   |            | 56.39      |            |       |  1.22

Nlocal:        83.3333 ave          91 max          77 min
Histogram: 8 3 7 3 3 8 3 9 2 2
Nghost:        1835.33 ave        1857 max        1808 min
Histogram: 1 1 7 4 5 10 6 8 4 2
Neighs:        11371.5 ave       12766 max        9970 min
Histogram: 1 5 5 7 5 9 3 8 3 2
FullNghs:      22742.3 ave       25002 max       20885 min
Histogram: 8 4 5 5 4 4 9 4 2 3

Total # of neighbors = 1091629
Ave neighs/atom = 272.90725
Neighbor list builds = 107708
Dangerous builds = 0

#clear
#
#next RN
#
#jump SELF
Total wall time: 1:16:55
