
units lj                  # Use reduced LJ style units
atom_style atomic         # Uncharged point particles
atom_modify map hash      # Needed for indexing of clusters etc
                          # Used to be able to find where atoms are in relation to each other.

# Define a lattice with which to populate the simulation cell. With units
# set to 'lj' the second argument to the lattice command is the reduced
# density rho* and the spacings are multiples of that required to acheive
# that density. Also define a simulation cell called 'box' in lattice units
# and fill it with atoms. Here we're creating a box which is ten lattice
# constants in each direction.
lattice fcc 1.0 spacing 1 1 1                 # All equal sizes - gives the right reduced density.
Lattice spacing in x,y,z = 1.5874011 1.5874011 1.5874011

region box block 0 10 0 10 0 10 units lattice # Defines a region, "box", in lattice units
create_box 1 box                              # Creates a simulation box as specified above,
Created orthogonal box = (0.0000000 0.0000000 0.0000000) to (15.874011 15.874011 15.874011)
  2 by 4 by 4 MPI processor grid
                                              # with one type of atom
create_atoms 1 box                            # Creates particles on lattice points
Created 4000 atoms
  using lattice units in orthogonal box = (0.0000000 0.0000000 0.0000000) to (15.874011 15.874011 15.874011)
  create_atoms CPU = 0.002 seconds


# Set the mass of the first (and only) atom type.
mass 1 1.0

# Lennard-Jones interactions between particles, 3.5 sigma cut-off. Apply
# long range tail corrections to energy and pressure and set all coefficients
# to unity since we work in reduced units here. Note that this doesn't shift
# the potential such that it goes to zero at the cutoff. That would require
# pair_modify('shift', 'yes').
pair_style lj/cut  3.5      # non-GPU version
pair_modify tail  yes
pair_coeff 1  1  1.0  1.0   # Intearaction between 1 and 1 set with epsilon = 1 and sigma = 1

write_data data.*
System init for write_data ...
Neighbor list info ...
  update every 1 steps, delay 10 steps, check yes
  max neighbors/atom: 2000, page size: 100000
  master list distance cutoff = 3.8
  ghost atom cutoff = 3.8
  binsize = 1.9, bins = 9 9 9
  1 neighbor lists, perpetual/occasional/extra = 1 0 0
  (1) pair lj/cut, perpetual
      attributes: half, newton on
      pair build: half/bin/atomonly/newton
      stencil: half/bin/3d
      bin: standard

#############################
#   M E L T   S Y S T E M   #
#############################

velocity all create 2.4 2750902 mom yes dist gaussian # Assign velocities
                                                    # Temperature 2.4, random number seed, zero linear momentum
						                                                        # Gaussian distribution

timestep 0.002   # simulation timestep
thermo 100       # output thermodynamic data every 100 steps

# Define a fix  in this case with index 1 applied to all
# particles in the simulation. This fix is for simulations
# in the anisotropic NPT ensemble. Note that we use the MTK
# correction.
fix 1 all npt temp 2.4 2.4 0.1 iso 5.68 5.68 0.5 mtk yes tchain 5 pchain 5 # Use NPT ensemble
                                                                         # Set temperature and pressure and damping
                                                                         # Numbers of thermostats in chain and in barostat
run 1000         # run for 10000 steps
Per MPI rank memory allocation (min/avg/max) = 3.660 | 3.660 | 3.660 Mbytes
Step Temp E_pair E_mol TotEng Press Volume 
       0          2.4   -8.3859253            0   -4.7868253   -2.2405722         4000 
     100    1.2608475   -6.5235855            0   -4.6327871    5.4038563    4091.0951 
     200    1.4674745   -6.2960149            0   -4.0953535    6.0843453    4138.9956 
     300    1.5811347   -6.0195196            0   -3.6484105    5.8230308      4272.98 
     400    1.6903552   -5.7119813            0   -3.1770823    5.9377022    4398.4635 
     500    1.7989246   -5.4338299            0   -2.7361176    5.7946904    4546.9323 
     600    1.9022797   -5.1497661            0   -2.2970598    5.8333119    4691.4311 
     700    2.0414959   -4.9561197            0   -1.8946415    5.6184351    4842.6632 
     800    2.1308362   -4.7068196            0   -1.5113644    5.7371792    4975.4569 
     900    2.2803533   -4.5781415            0   -1.1584666    5.7093427    5072.7544 
    1000    2.3672823   -4.4702836            0  -0.92024792    5.6050301    5163.6463 
Loop time of 0.261009 on 32 procs for 1000 steps with 4000 atoms

Performance: 662045.691 tau/day, 3831.283 timesteps/s
99.4% CPU use with 32 MPI tasks x no OpenMP threads

MPI task timing breakdown:
Section |  min time  |  avg time  |  max time  |%varavg| %total
---------------------------------------------------------------
Pair    | 0.13317    | 0.13963    | 0.1484     |   1.1 | 53.50
Neigh   | 0.025988   | 0.027364   | 0.028546   |   0.4 | 10.48
Comm    | 0.062524   | 0.071288   | 0.077967   |   1.7 | 27.31
Output  | 0.00019528 | 0.00019886 | 0.0002496  |   0.0 |  0.08
Modify  | 0.01768    | 0.020654   | 0.023745   |   1.2 |  7.91
Other   |            | 0.001871   |            |       |  0.72

Nlocal:        125.000 ave         135 max         113 min
Histogram: 1 0 2 4 3 13 2 2 3 2
Nghost:        1662.72 ave        1680 max        1643 min
Histogram: 2 1 2 2 6 6 7 2 3 1
Neighs:        11066.0 ave       11928 max       10173 min
Histogram: 2 2 2 5 6 5 4 0 1 5

Total # of neighbors = 354112
Ave neighs/atom = 88.528000
Neighbor list builds = 89
Dangerous builds = 32

# Equilibrate just above the melting temperature to avoid step fn in T

fix 1 all npt temp 1.25 1.25 0.1 iso 5.68 5.68 0.5 mtk yes tchain 5 pchain 5
run 1000
Per MPI rank memory allocation (min/avg/max) = 3.661 | 3.661 | 3.661 Mbytes
Step Temp E_pair E_mol TotEng Press Volume 
    1000    2.3672823   -4.4702836            0  -0.92024792    5.6050301    5163.6463 
    1100    1.9569734    -4.706111            0   -1.7713848    5.4657034    5011.4174 
    1200    1.7262382   -4.9667701            0   -2.3780602    5.5966981    4817.3008 
    1300     1.587552    -5.220701            0   -2.8399684    5.6758355    4663.7229 
    1400    1.4738799   -5.4342144            0   -3.2239472    5.4755949    4569.2977 
    1500    1.3534378   -5.5295528            0   -3.4999037    5.6215529    4496.5144 
    1600    1.2908728   -5.6315259            0   -3.6957007    5.7257345     4433.469 
    1700    1.2788408   -5.7494795            0   -3.8316978    5.6735232     4386.563 
    1800     1.254965   -5.8228809            0   -3.9409041    5.4759615    4370.1173 
    1900     1.226926   -5.8280252            0   -3.9880963    5.6657418    4349.5824 
    2000    1.2829323   -5.8566878            0   -3.9327705    5.6371083    4341.9677 
Loop time of 0.250506 on 32 procs for 1000 steps with 4000 atoms

Performance: 689804.073 tau/day, 3991.922 timesteps/s
99.7% CPU use with 32 MPI tasks x no OpenMP threads

MPI task timing breakdown:
Section |  min time  |  avg time  |  max time  |%varavg| %total
---------------------------------------------------------------
Pair    | 0.1311     | 0.13805    | 0.1466     |   0.8 | 55.11
Neigh   | 0.022322   | 0.023155   | 0.023949   |   0.2 |  9.24
Comm    | 0.057354   | 0.067172   | 0.075345   |   1.3 | 26.81
Output  | 0.00018949 | 0.00019449 | 0.00023807 |   0.0 |  0.08
Modify  | 0.01691    | 0.019695   | 0.023057   |   1.1 |  7.86
Other   |            | 0.002241   |            |       |  0.89

Nlocal:        125.000 ave         131 max         119 min
Histogram: 2 3 5 2 4 4 3 2 3 4
Nghost:        1848.94 ave        1863 max        1828 min
Histogram: 1 0 1 1 3 11 7 3 2 3
Neighs:        13168.5 ave       13949 max       12671 min
Histogram: 5 6 5 1 3 2 3 4 1 2

Total # of neighbors = 421393
Ave neighs/atom = 105.34825
Neighbor list builds = 75
Dangerous builds = 6


# Small amount of linear quench

fix 1 all npt temp 1.25 ${temp} 0.1 iso 5.68 5.68 0.5 mtk yes tchain 5 pchain 5
fix 1 all npt temp 1.25 2.19 0.1 iso 5.68 5.68 0.5 mtk yes tchain 5 pchain 5
run 2000
Per MPI rank memory allocation (min/avg/max) = 3.661 | 3.662 | 3.662 Mbytes
Step Temp E_pair E_mol TotEng Press Volume 
    2000    1.2829323   -5.8566878            0   -3.9327705    5.6371083    4341.9677 
    2100    1.2550923   -5.8410016            0   -3.9588337    5.7000733    4342.8958 
    2200    1.3033423   -5.8140026            0   -3.8594778    5.5046711    4374.8782 
    2300    1.3587682   -5.7615997            0   -3.7239569     5.722123     4381.472 
    2400    1.3729684   -5.6795377            0   -3.6205999    5.6954036    4419.6501 
    2500    1.4410919   -5.6108203            0   -3.4497229     5.916884    4434.6597 
    2600    1.4488338   -5.5156747            0   -3.3429673    5.7591332    4496.1818 
    2700    1.5089157   -5.4769221            0   -3.2141145     5.484484    4542.3162 
    2800    1.5418993   -5.3896307            0     -3.07736    5.5570078    4579.8147 
    2900    1.6397027   -5.3723928            0   -2.9134536    5.4967854    4603.8693 
    3000    1.6455142   -5.2433503            0    -2.775696    5.7495069    4641.8031 
    3100    1.7307135    -5.195812            0   -2.6003908    5.7562423    4671.5291 
    3200    1.7473102   -5.1123481            0    -2.492038    5.6587403    4730.9557 
    3300    1.8119896   -5.0680811            0   -2.3507761    5.6503936    4758.1108 
    3400    1.8780022   -5.0068064            0   -2.1905074     5.798788    4778.8402 
    3500    1.8956228   -4.9241308            0   -2.0814075    5.6815602    4832.5336 
    3600    1.9679859   -4.9136475            0   -1.9624067    5.6012335    4858.2785 
    3700    1.9966462   -4.8265541            0   -1.8323335     5.668453    4900.7018 
    3800    2.0321274   -4.7668051            0    -1.719376    5.7643036    4932.5011 
    3900    2.0961391   -4.6924175            0   -1.5489949    5.8813326    4960.3549 
    4000    2.1511431   -4.6868971            0   -1.4609891    5.5477712    5021.1403 
Loop time of 0.501579 on 32 procs for 2000 steps with 4000 atoms

Performance: 689023.921 tau/day, 3987.407 timesteps/s
99.7% CPU use with 32 MPI tasks x no OpenMP threads

MPI task timing breakdown:
Section |  min time  |  avg time  |  max time  |%varavg| %total
---------------------------------------------------------------
Pair    | 0.26216    | 0.27165    | 0.28482    |   1.0 | 54.16
Neigh   | 0.046035   | 0.047362   | 0.048489   |   0.3 |  9.44
Comm    | 0.12624    | 0.13758    | 0.15342    |   1.6 | 27.43
Output  | 0.00038491 | 0.00039308 | 0.00048367 |   0.0 |  0.08
Modify  | 0.033588   | 0.040169   | 0.045092   |   1.8 |  8.01
Other   |            | 0.004424   |            |       |  0.88

Nlocal:        125.000 ave         133 max         117 min
Histogram: 2 2 1 6 3 7 6 1 2 2
Nghost:        1693.38 ave        1713 max        1671 min
Histogram: 1 1 4 5 4 6 2 4 2 3
Neighs:        11384.9 ave       12806 max       10312 min
Histogram: 2 1 1 12 7 3 2 2 1 1

Total # of neighbors = 364316
Ave neighs/atom = 91.079000
Neighbor list builds = 153
Dangerous builds = 1

#############################
# F R E E Z E  S Y S T E M  #
#############################

# Define solid atoms. This closely follows ten Wolde  Ruiz-Montero and Frenkel  Faraday Discuss  1996  104  93-110
# Compute components of the per-atom q6 vector
compute q6 all orientorder/atom degrees 1 6 components 6 nnn NULL cutoff 1.3 # compute the Q6 parameter.
                                                                             # Use all neighbours within 1.3 unit cell.

# get number of connections
compute coord_number all coord/atom orientorder q6 0.5

# An atom is solid if it has 8 or more connections (of a possible 14)
variable is_solid atom c_coord_number>=8
group solid dynamic all var is_solid    # Must be dynamic to update
dynamic group solid defined

# do clustering
compute cluster solid cluster/atom 1.3 # Create a cluster where all atoms within are solid and max 1.3 units from another member

# define chunks one chunk per cluster
compute clus_chunks solid chunk/atom c_cluster nchunk every compress yes  # Says which atoms are in which chunk

# count the size of each chunk
compute size_chunks solid property/chunk clus_chunks count


# Find the maximum entry in the vector of chunk sizes
variable max_n equal max(c_size_chunks)


# Thermo style which includes this variable
thermo_style custom step temp pe vol v_max_n

thermo ${N}  # Print the thermo information every 100 steps
thermo 100  

# Reset the npt fix at a lower temperature (below freezing)
fix 1  all npt temp  ${temp} ${temp}  0.1  iso  5.68  5.68  0.5  mtk yes tchain  5  pchain  5
fix 1  all npt temp  2.19 ${temp}  0.1  iso  5.68  5.68  0.5  mtk yes tchain  5  pchain  5
fix 1  all npt temp  2.19 2.19  0.1  iso  5.68  5.68  0.5  mtk yes tchain  5  pchain  5

dump dmp2 all dcd ${N} traj_${rand}.dcd
dump dmp2 all dcd 100 traj_${rand}.dcd
dump dmp2 all dcd 100 traj_462431.dcd


# fix rnuntil all halt ${N} v_max_n >= 3980 error soft message no   # Stop when solidified


run 100000 # 5000000  # Run for this many steps
Neighbor list info ...
  update every 1 steps, delay 10 steps, check yes
  max neighbors/atom: 2000, page size: 100000
  master list distance cutoff = 3.8
  ghost atom cutoff = 3.8
  binsize = 1.9, bins = 10 10 10
  4 neighbor lists, perpetual/occasional/extra = 1 3 0
  (1) pair lj/cut, perpetual
      attributes: half, newton on
      pair build: half/bin/atomonly/newton
      stencil: half/bin/3d
      bin: standard
  (2) compute orientorder/atom, occasional
      attributes: full, newton on
      pair build: full/bin/atomonly
      stencil: full/bin/3d
      bin: standard
  (3) compute coord/atom, occasional
      attributes: full, newton on
      pair build: full/bin/atomonly
      stencil: full/bin/3d
      bin: standard
  (4) compute cluster/atom, occasional
      attributes: full, newton on
      pair build: full/bin/atomonly
      stencil: full/bin/3d
      bin: standard
Per MPI rank memory allocation (min/avg/max) = 9.386 | 9.392 | 9.398 Mbytes
Step Temp PotEng Volume v_max_n 
    4000    2.1511431   -4.6868971    5021.1403            1 
    4100    2.1998934   -4.6631944    5054.5503            1 
    4200    2.2034954   -4.5642246     5052.558       -1e+20 
    4300    2.1839951   -4.5759033    5094.7755            1 
    4400    2.2348979    -4.558804    5110.5606            1 
    4500    2.2120901   -4.5786867    5070.2606       -1e+20 
    4600    2.1627388   -4.5823402    5056.7361            1 
    4700    2.2038039     -4.60706    5075.2627            1 
    4800     2.189178   -4.5981741    5061.6043            1 
    4900    2.1991535    -4.597009    5040.2479       -1e+20 
    5000    2.1927636   -4.5791957    5094.8698            1 
    5100    2.2099264   -4.5600738    5061.3741       -1e+20 
    5200    2.1721314   -4.6002251    5057.3164       -1e+20 
    5300    2.1949115    -4.539395    5087.3138            1 
    5400     2.184088    -4.537575    5067.8966            2 
    5500    2.1548461     -4.57218    5057.4683            1 
    5600    2.2016936   -4.5403494    5097.3712            1 
    5700    2.2144062   -4.5421244    5088.1102       -1e+20 
    5800    2.1787241   -4.5919415    5035.0598            1 
    5900    2.1868757   -4.5957794    5073.1361            1 
    6000    2.2216485   -4.6045723    5072.4071            1 
    6100    2.1883494   -4.6140217     5055.171            1 
    6200    2.1472814   -4.6326014    5051.3972            2 
    6300    2.2054227   -4.6012333    5060.9726            1 
    6400    2.1993674   -4.5650641    5074.1969            1 
    6500    2.1383746   -4.5071005    5094.4256            1 
    6600    2.2621669   -4.5174962     5089.578       -1e+20 
    6700    2.1645442   -4.5107966    5117.6127            1 
    6800    2.1621591   -4.5235649    5067.3674            1 
    6900    2.2090639   -4.5727364    5062.9976            1 
    7000    2.1226035   -4.5774418    5098.1207       -1e+20 
    7100     2.249267   -4.6154842    5035.7499            1 
    7200     2.178864   -4.6236032    5083.1328            1 
    7300    2.1883393   -4.5749176    5056.2361       -1e+20 
    7400      2.25232    -4.562614    5050.1653            1 
    7500    2.1142401   -4.5256934     5105.843            1 
    7600    2.2194864   -4.5506445    5068.2184            1 
    7700    2.1622647   -4.5762433    5057.3161            2 
    7800    2.1962295   -4.5959294    5073.1282            1 
    7900    2.1798185   -4.5733111    5058.5488            1 
    8000    2.1683361   -4.5750967    5044.2082            1 
    8100    2.1922299   -4.5692508    5075.3065            1 
    8200    2.2602069   -4.5885536    5088.2346            1 
    8300    2.1853271   -4.5965897    5073.1549            1 
    8400    2.2046529    -4.620455    5045.9582            1 
    8500    2.1588367   -4.5866016    5049.5833       -1e+20 
    8600    2.1875107   -4.6013811    5097.5702            1 
    8700    2.2401218   -4.5455941    5079.3221       -1e+20 
    8800    2.1746304    -4.536262    5115.3451       -1e+20 
    8900    2.1921498   -4.6048125     5047.408            1 
    9000    2.1420257   -4.5530752    5055.7418       -1e+20 
    9100    2.1834509   -4.5552177    5072.0652            1 
    9200    2.2116176   -4.5859472    5044.8879            1 
    9300    2.1660483   -4.6473498    5059.5676       -1e+20 
    9400    2.2145945   -4.6311163    5038.3026            1 
    9500    2.2059777   -4.6044559    5065.5567            1 
    9600    2.1556634   -4.5830021    5070.4472            1 
    9700    2.1805227   -4.5645396     5057.034            1 
    9800    2.1886744   -4.5756489    5074.9296       -1e+20 
    9900    2.2075119   -4.5772439     5065.907            2 
   10000    2.1821681    -4.602322    5033.8652       -1e+20 
   10100    2.1618223   -4.5367422     5092.431       -1e+20 
   10200    2.2134807   -4.5633701    5094.5013            1 
   10300    2.1860511   -4.5821305     5033.783            1 
   10400    2.1630109   -4.6102018    5046.7313            1 
   10500    2.2156819   -4.6071307    5066.6308            1 
   10600    2.1686123   -4.5874624    5070.3955            1 
   10700    2.2067054    -4.573035    5074.5359       -1e+20 
   10800    2.2109129   -4.5650638    5086.7116            1 
   10900    2.1732103    -4.606011    5076.8357            1 
   11000    2.1896846   -4.5742396    5067.4663            1 
   11100    2.1935613   -4.6056851    5028.0298            1 
   11200    2.1098318   -4.6087691    5030.7097       -1e+20 
   11300    2.1804742   -4.6022401    5038.0887            1 
   11400    2.2230071   -4.6255153    5069.9291       -1e+20 
   11500    2.2480395   -4.5373696    5092.8139            1 
   11600    2.1818818   -4.5384107    5099.9698            1 
   11700    2.1949637   -4.5850238    5097.2564            1 
   11800    2.1735475   -4.5690213    5039.8636            1 
   11900    2.1728656   -4.6030943    5041.7338       -1e+20 
   12000    2.2037046   -4.5951281    5065.2236            1 
   12100    2.1896831    -4.607814    5072.4776            1 
   12200    2.2276927   -4.5435591    5100.8389       -1e+20 
   12300    2.2037042    -4.500128    5105.9007            1 
   12400    2.1960484   -4.6188861    5063.4393       -1e+20 
   12500    2.1801439   -4.5781775    5052.1518            1 
   12600    2.2268468   -4.5741895    5111.3332            2 
   12700    2.1956285   -4.5591048    5086.0971            1 
   12800    2.1683231   -4.6025885    5062.8478       -1e+20 
   12900    2.1980226    -4.629198    5035.9634            1 
   13000    2.1444662   -4.6165608    5047.4013       -1e+20 
   13100    2.2234287   -4.6186952    5072.7961       -1e+20 
   13200    2.1597265   -4.5922041     5052.426            1 
   13300    2.1815339   -4.6207887    5029.6157       -1e+20 
   13400    2.2048989   -4.6122811    5107.7033            1 
   13500    2.2572866   -4.6199212    5072.0281            1 
   13600    2.1797982   -4.6017204    5064.2831            1 
   13700    2.1692312   -4.6029625    5017.1134            1 
   13800    2.1770284   -4.6119173    5050.9734            1 
   13900    2.2113204   -4.6093972    5095.8196       -1e+20 
   14000    2.2238713   -4.5690036    5072.7529            2 
   14100    2.1969086   -4.6147101    5049.9368            1 
   14200    2.2018965   -4.5797609    5090.7719       -1e+20 
   14300     2.201078    -4.515074    5111.1681       -1e+20 
   14400    2.2182694   -4.5716925    5064.0467            1 
   14500    2.1536796   -4.5871911     5056.085            1 
   14600    2.2171135   -4.5989309     5072.478       -1e+20 
   14700    2.1499429   -4.5266174    5088.7611            1 
   14800    2.1996754   -4.5271619     5083.213            1 
   14900     2.175815   -4.5827681    5079.8777       -1e+20 
   15000     2.204159   -4.6256456    5053.0442            1 
   15100    2.1993175    -4.612472    5056.7459       -1e+20 
   15200    2.1500032   -4.5547934    5083.1501            1 
   15300    2.2350464   -4.5332403    5054.1688            1 
   15400    2.1756529   -4.5785504    5084.8262            1 
   15500     2.163929    -4.581014    5064.9126       -1e+20 
   15600    2.2340375   -4.5597623      5055.84            1 
   15700    2.1522194   -4.5635832    5101.7668            1 
   15800     2.200504   -4.5701917    5037.9454            1 
   15900    2.1673847   -4.5793144    5057.1301            1 
   16000    2.2101954   -4.6202335    5058.8422       -1e+20 
   16100    2.1711445   -4.6349697    5050.8703            1 
   16200    2.1504127   -4.5524141    5071.6145            1 
   16300    2.2065553   -4.5393055     5062.987       -1e+20 
   16400    2.1577913   -4.6040498    5061.4098       -1e+20 
   16500    2.1783325   -4.5796027    5059.6822            1 
   16600     2.237899   -4.5898278    5079.8569            1 
   16700    2.1844351   -4.5301763    5120.9589            2 
   16800     2.154602   -4.5582968    5064.5278            1 
   16900    2.1947588   -4.5730368    5064.8945            1 
   17000    2.2224777   -4.5293501    5077.6845       -1e+20 
   17100    2.1782744   -4.5904041    5074.1072       -1e+20 
   17200     2.168839    -4.572953    5051.2619       -1e+20 
   17300    2.2088155   -4.6083908    5054.7223       -1e+20 
   17400    2.1871584   -4.6228304    5083.0788       -1e+20 
   17500    2.1661082   -4.6254323    5003.3337            1 
   17600    2.1664616   -4.6302324     5040.223            1 
   17700     2.175131   -4.5678917    5066.0785            1 
   17800    2.2039045   -4.5635415    5081.7175       -1e+20 
   17900    2.1657248   -4.6043051    5067.1091            1 
   18000    2.1927091   -4.5300769    5058.0398            1 
   18100    2.1973052   -4.5463961    5112.2454       -1e+20 
   18200    2.1892748    -4.579328    5056.0741       -1e+20 
   18300     2.176071   -4.5865374    5089.7554            1 
   18400     2.231262   -4.5870821    5074.1841       -1e+20 
   18500    2.1561467   -4.5778477    5088.1155       -1e+20 
   18600    2.2288256   -4.5629954    5091.5697       -1e+20 
   18700    2.1763849   -4.5401211    5074.8994            2 
   18800    2.1693122   -4.5420531    5083.5954            1 
   18900    2.2043959   -4.6356606    5041.7187            1 
   19000    2.1947113    -4.596488    5077.5346            1 
   19100    2.2146981   -4.5518951    5094.0455            1 
   19200    2.1400018   -4.5488507    5084.9732            1 
   19300    2.2176014   -4.6038896    5074.2368       -1e+20 
   19400    2.1813975   -4.5423245    5060.0787       -1e+20 
   19500    2.1890334   -4.5722317    5099.9366            1 
   19600    2.1878143   -4.6182426    5037.5529       -1e+20 
   19700    2.1177288   -4.6036095    5047.8702       -1e+20 
   19800    2.1919415   -4.5751909    5063.8527            1 
   19900    2.1742795   -4.5300207    5057.4901            1 
   20000    2.1826571   -4.6377418    5062.2775            1 
   20100    2.2531194   -4.6117276    5076.9642       -1e+20 
   20200    2.1604106    -4.580546    5062.8924            1 
   20300    2.2004155   -4.5760717    5092.7651            1 
   20400    2.1977506   -4.5524918    5082.2427            1 
   20500    2.1502988   -4.5743769    5049.7297            1 
   20600    2.1894076   -4.5940689    5061.0267            1 
   20700    2.2228079   -4.5707395    5092.9786            1 
   20800    2.1646914   -4.5623389    5080.8309            1 
   20900    2.1537568    -4.614821    5022.3521            1 
   21000    2.2006828   -4.5779462    5067.5823            1 
   21100    2.1774294    -4.588627    5082.2029            1 
   21200    2.2404517   -4.5570202    5078.3816            1 
   21300    2.1733805    -4.563772    5039.3132       -1e+20 
   21400    2.1919828   -4.6509279    5051.7133       -1e+20 
   21500    2.2305613   -4.5831981    5045.6166            1 
   21600    2.1925213   -4.5951393     5077.871       -1e+20 
   21700    2.1697819   -4.6147332    5071.8085       -1e+20 
   21800    2.2283387   -4.6161026    5002.3995            1 
   21900    2.1208214   -4.5931638    5074.4233            1 
   22000    2.2067673   -4.6120586    5083.0534            1 
   22100    2.1747554   -4.5897573    5051.8579       -1e+20 
   22200    2.1666527   -4.5692552    5053.0937            1 
   22300     2.181883   -4.5869192    5079.7059            1 
   22400    2.1690146   -4.5895045    5039.7353            1 
   22500    2.1675379   -4.6460039    5029.8258            1 
   22600    2.1641726   -4.5664113    5069.4067       -1e+20 
   22700    2.2364197   -4.5882388    5096.4576       -1e+20 
   22800    2.1876402    -4.538579     5083.926       -1e+20 
   22900    2.1904617   -4.5651531    5066.9752            2 
   23000    2.1663866   -4.5736175     5066.199            1 
   23100    2.2382093   -4.5917051    5067.3635            1 
   23200    2.1380671   -4.5987392    5076.8012            1 
   23300    2.1905527   -4.5774267    5057.6486            1 
   23400    2.1612015   -4.5814545    5064.5805            2 
   23500    2.2489315   -4.6047192    5060.2632            1 
   23600    2.1740119   -4.5934442    5085.9568       -1e+20 
   23700    2.2275254   -4.5963626    5065.1101            2 
   23800    2.1822302   -4.6048819     5073.339       -1e+20 
   23900    2.2243678   -4.5831264    5079.7219       -1e+20 
   24000    2.1675255   -4.5717532    5042.9414            1 
   24100    2.1737617    -4.609498    5066.3978            1 
   24200    2.1861986   -4.5846678    5056.1648            1 
   24300    2.2046041   -4.5798673    5091.4873       -1e+20 
   24400    2.1901787   -4.5562678    5087.4998       -1e+20 
   24500    2.1874577   -4.5716067    5058.5625            1 
   24600     2.132961   -4.5418001    5110.5422            2 
   24700    2.2175962   -4.5120376    5077.5957            1 
   24800    2.1839627   -4.5767225    5085.6246            2 
   24900    2.1579805   -4.5932514    5051.2647            1 
   25000    2.1823785    -4.577501    5063.1013            1 
   25100    2.1719708   -4.5699191    5085.2939       -1e+20 
   25200    2.2514303   -4.5525426    5063.5228       -1e+20 
   25300    2.1300734   -4.5056771    5086.3164            1 
   25400    2.2084995   -4.5452482    5096.1758       -1e+20 
   25500    2.1808909    -4.554943    5109.5969            2 
   25600    2.1936822   -4.6008834    5051.8526            1 
   25700    2.1989872   -4.6239196    5023.1559            1 
   25800    2.1775542   -4.6284242    5050.7229       -1e+20 
   25900     2.203302   -4.6002883    5068.3106       -1e+20 
   26000    2.2017957   -4.5065932    5088.2914       -1e+20 
   26100    2.1660684   -4.5488848    5079.6813            1 
   26200    2.1664804   -4.5498372    5043.1558       -1e+20 
   26300    2.1709999   -4.6153808     5065.029       -1e+20 
   26400    2.1890659   -4.6188183    5072.2309       -1e+20 
   26500    2.1943326   -4.5834485    5023.0727       -1e+20 
   26600    2.1857663    -4.609644    5071.9769            1 
   26700    2.2268185   -4.5703038     5067.793       -1e+20 
   26800    2.2134436   -4.6151166    5046.4442            1 
   26900    2.1502756   -4.6397179    5053.7743            1 
   27000    2.1969533   -4.6081802    5033.7415            1 
   27100    2.1884092   -4.5724193    5080.1153            1 
   27200    2.1827478   -4.5641104    5081.4604            1 
   27300    2.2244139   -4.6268455    5030.3715            1 
   27400    2.1383814   -4.6143468      5065.53            1 
   27500    2.1768492   -4.5442597    5037.5029            1 
   27600    2.1505317    -4.525304    5062.7514       -1e+20 
   27700    2.1902859   -4.5759414    5070.7642            1 
   27800    2.1621593   -4.6025031    5056.2016            1 
   27900    2.1896894   -4.5627127    5076.0621            2 
   28000    2.1787783   -4.5778479    5073.3742            1 
   28100    2.1498644   -4.5811862    5034.3571       -1e+20 
   28200    2.1809762   -4.5716312    5100.8916       -1e+20 
   28300    2.2329373      -4.5355    5096.8753            1 
   28400    2.1725354   -4.5723363    5080.8149            1 
   28500    2.1800351   -4.6030512    5076.9532       -1e+20 
   28600    2.1875949   -4.6208821     5042.462       -1e+20 
   28700    2.2038234   -4.6013882    5084.7305       -1e+20 
   28800      2.25246   -4.5780062    5087.1544            1 
   28900    2.2072175   -4.6121939    5068.9687            1 
   29000    2.2300409   -4.6623485    5052.0512            1 
   29100    2.1547722   -4.5865663    5059.4997       -1e+20 
   29200    2.2088905   -4.5601723     5072.763            1 
   29300    2.1729291   -4.5837887    5089.9944       -1e+20 
   29400    2.2367709   -4.5933614    5070.9559       -1e+20 
   29500    2.1600102   -4.5760066    5059.4351            1 
   29600    2.1620588   -4.5891274    5042.1312       -1e+20 
   29700    2.2268725   -4.5994622    5101.6692       -1e+20 
   29800    2.1993452   -4.5397806    5083.2875       -1e+20 
   29900    2.1924413   -4.6112029    5088.8796            1 
   30000    2.1982973    -4.583174    5067.2057            1 
   30100    2.2048719    -4.581731    5030.3386            1 
   30200    2.1337241   -4.5835998    5081.7436            1 
   30300    2.2296544   -4.5820649    5084.3184            1 
   30400    2.1584021   -4.5673966    5065.4919       -1e+20 
   30500    2.1777175   -4.5700066     5082.311            1 
   30600    2.2399499   -4.5932665    5083.7772            1 
   30700     2.166129   -4.5834208    5089.2874            1 
   30800    2.2146822   -4.5739507    5055.1709            1 
   30900    2.1745075   -4.5777583    5061.5045            1 
   31000    2.1700431   -4.6700498    5043.9525            1 
   31100    2.1960092   -4.6287975    5040.1559            1 
   31200    2.1956618   -4.5804386    5086.9279            1 
   31300    2.1700494   -4.5791807      5075.18            1 
   31400    2.2379666    -4.557453    5048.8297            1 
   31500    2.1855566   -4.6017085    5101.4529            1 
   31600     2.196662   -4.6502832    5026.7497            1 
   31700    2.1810989   -4.6047911    5019.6135            1 
   31800    2.1987757   -4.5919454    5081.7758       -1e+20 
   31900    2.1811666   -4.6232515    5052.5385            1 
   32000    2.1869941   -4.6127694    5023.2718       -1e+20 
   32100    2.1615269   -4.5784523    5054.2549            1 
   32200     2.207801   -4.5873782    5053.5217            1 
   32300    2.1785613   -4.5877961    5066.9487            1 
   32400    2.1967548    -4.571094    5102.9763       -1e+20 
   32500    2.1869592   -4.5374702    5059.4587            1 
   32600    2.1511454    -4.587657    5055.7787            1 
   32700    2.2118292   -4.5973006    5079.5349            1 
   32800    2.1422522   -4.5665698    5038.0017            1 
   32900    2.1644599   -4.6123289    5041.4347       -1e+20 
   33000    2.1836635   -4.5570382    5074.5864       -1e+20 
   33100    2.2390793   -4.6084851    5082.4125            1 
   33200    2.1586268   -4.5777832    5096.2586            1 
   33300    2.2108242   -4.5414882    5027.6936            1 
   33400    2.1559397   -4.5930244    5069.4437            1 
   33500    2.1747765   -4.5741537    5067.6642            1 
   33600    2.1769745   -4.4847954     5077.795       -1e+20 
   33700    2.1898719   -4.5103275    5106.6151            2 
   33800    2.1713224   -4.6162605    5084.3253            1 
   33900    2.1979599   -4.5888329    5077.2287            1 
   34000     2.202187   -4.5266053    5087.7931            1 
   34100    2.1752553   -4.5489085    5055.1471            1 
   34200    2.1840787   -4.6128111    5064.1296       -1e+20 
   34300    2.2193417   -4.6069388    5072.9653       -1e+20 
   34400    2.1880711   -4.5893222    5044.9284            1 
   34500    2.2008776    -4.639223     5061.074       -1e+20 
   34600    2.1644483   -4.5969226    5046.4334       -1e+20 
   34700    2.1808164    -4.600592    5044.0996            1 
   34800    2.1904381   -4.5895626    5075.1196            1 
   34900    2.2146513   -4.5202615    5097.7408            1 
   35000    2.1720141   -4.5674862    5094.9068            2 
   35100    2.2071835   -4.6640872    5035.3958            2 
   35200    2.1852304   -4.5996494    5060.6746            2 
   35300    2.2008379   -4.5750119    5082.2735            1 
   35400     2.181668   -4.5943587    5060.1562            1 
   35500    2.1866834    -4.607334    5037.5141            2 
   35600    2.1616208   -4.5652104    5072.3259       -1e+20 
   35700    2.1775146   -4.5691482     5071.196            1 
   35800    2.2686331   -4.5960491    5098.1357            1 
   35900    2.1955485   -4.5745262    5069.9599       -1e+20 
   36000     2.202145   -4.5996249    5060.9523            1 
   36100     2.124536   -4.5895877    5050.7654            1 
   36200    2.2003149   -4.5753394    5051.0621            1 
   36300     2.181401   -4.5409994    5074.0237       -1e+20 
   36400    2.1699598   -4.5553627    5091.3245            1 
   36500    2.2192829   -4.5759641    5041.5714       -1e+20 
   36600    2.1308601   -4.5912933    5082.3916            1 
   36700    2.1922231   -4.5611395    5052.9275            2 
   36800    2.1849523   -4.5214305    5071.1478            1 
   36900    2.1598804   -4.5598309    5100.1458       -1e+20 
   37000    2.2302704   -4.5823949    5049.8978            1 
   37100    2.1657628   -4.6151271    5050.8351            1 
   37200    2.1589973    -4.558581    5071.4489            2 
   37300    2.2509207   -4.5819258    5072.3472            1 
   37400    2.1887214   -4.5981112    5080.4625            1 
   37500    2.1736918   -4.6211925    5060.0601            1 
   37600    2.2296417   -4.5613099    5053.5765            2 
   37700    2.1589469   -4.5292488    5093.2733       -1e+20 
   37800    2.2228713   -4.5515254    5097.7799       -1e+20 
   37900    2.2032769   -4.5795733    5099.6798            1 
   38000    2.1840173   -4.6035552    5058.7861            1 
   38100    2.2291878   -4.6634145    5040.3853            1 
   38200    2.1828668    -4.665754    5040.2925            1 
   38300    2.1886201   -4.5772552    5067.6626            2 
   38400    2.2095791    -4.549211    5082.8957            1 
   38500    2.1769653    -4.612463    5086.9142            1 
   38600    2.1823694   -4.5642733    5017.2624            1 
   38700    2.1571804   -4.5852485    5040.7203            1 
   38800    2.1740993   -4.6121604    5068.6222            1 
   38900    2.2170384    -4.570945    5068.3693       -1e+20 
   39000    2.1733509   -4.5971069    5086.3899            1 
   39100    2.1822375   -4.6286728    5020.9518       -1e+20 
   39200    2.1942882   -4.6434143    5057.1332            1 
   39300    2.1921637   -4.5832395    5076.0055            1 
   39400    2.1978602   -4.5393379    5082.5045            1 
   39500    2.1839924   -4.5457382     5068.739            1 
   39600    2.1798896   -4.5912471    5050.6855            1 
   39700    2.1834625   -4.5704972    5067.3263            1 
   39800    2.2056024   -4.5571314    5085.7788            2 
   39900    2.1596055       -4.597    5041.0502       -1e+20 
   40000    2.1673255   -4.6075037    5066.3571            1 
   40100    2.1935551   -4.5779307    5057.5981            1 
   40200    2.1492138   -4.5199319    5077.4996       -1e+20 
   40300    2.2151111   -4.5528729    5062.0611            1 
   40400    2.1532371   -4.5581905    5073.7034            1 
   40500      2.21353   -4.5919568    5055.2506       -1e+20 
   40600    2.1763807   -4.5606886     5105.163            1 
   40700     2.190456    -4.531848    5097.4119            1 
   40800    2.2097611   -4.5578206    5073.7713       -1e+20 
   40900    2.1835107   -4.6010232     5095.204            1 
   41000    2.2141669   -4.6012458    5057.5517       -1e+20 
   41100    2.2001805   -4.5845051    5060.3427            1 
   41200    2.1648771   -4.6125521    5065.3221            1 
   41300    2.2296236   -4.5951862     5041.774            1 
   41400    2.1737624   -4.6082507    5103.7783       -1e+20 
   41500    2.2114513   -4.5334715    5087.3491            1 
   41600    2.1693045    -4.532336    5098.2431            1 
   41700    2.2195656   -4.5956879      5062.32            1 
   41800    2.1751206   -4.5902703     5077.712            1 
   41900    2.1941838   -4.5694575    5062.6541            1 
   42000     2.197965   -4.6124503    5058.2049            2 
   42100    2.1806343   -4.5937966     5091.023            1 
   42200    2.2093935    -4.584612     5040.596            1 
   42300    2.1600196    -4.633605    5072.5079            1 
   42400    2.2451552   -4.6070162    5035.6695            1 
   42500    2.1670727   -4.6040255    5057.9078            2 
   42600    2.1725527   -4.5394901    5073.3869            1 
   42700    2.2588595   -4.5263588    5095.5146            1 
   42800    2.1919991   -4.5193147    5078.2787       -1e+20 
   42900    2.1771646   -4.5662395    5115.8376            1 
   43000    2.2162246   -4.5338463    5079.7182            1 
   43100    2.2194048   -4.5934876    5053.5758            1 
   43200    2.1933009   -4.6525335    5033.2226       -1e+20 
   43300    2.1879326    -4.621638    5057.5279            1 
   43400    2.1983255    -4.581622    5040.1408       -1e+20 
   43500    2.1616728   -4.6078423    5030.2066            1 
   43600    2.1786496   -4.5834565    5099.9608            1 
   43700    2.2082259   -4.5438507    5058.1452            2 
   43800    2.1521813   -4.5406661    5088.3691            1 
   43900    2.2108256   -4.5912092    5103.5793       -1e+20 
   44000    2.2486288   -4.5499943    5054.9209            1 
   44100    2.1716258   -4.6245375     5094.148       -1e+20 
   44200    2.2145785   -4.5812345    5047.2061            1 
   44300     2.192957   -4.6042605    5064.1257       -1e+20 
   44400    2.1510693   -4.5819244    5084.6519            1 
   44500    2.2794715   -4.5743511    5052.1555            1 
   44600    2.1679708   -4.5765568    5075.8767            1 
   44700    2.1668903    -4.591911    5039.5871       -1e+20 
   44800    2.2074812   -4.6074116     5033.397            2 
   44900    2.1649817   -4.5668427    5114.8232            1 
   45000    2.2122279   -4.5136635    5096.3547       -1e+20 
   45100    2.2195128   -4.5985153     5061.148            1 
   45200    2.1619986   -4.5730299    5073.5761            1 
   45300    2.1779972   -4.5184862    5115.6797            1 
   45400    2.2010668   -4.4981418    5097.9389            1 
   45500    2.1754986   -4.5727207    5054.9594            1 
   45600    2.1434753    -4.594349    5059.3443       -1e+20 
   45700     2.218966   -4.5733243    5068.0826            1 
   45800    2.1744609   -4.5793165    5059.7671       -1e+20 
   45900    2.1992077    -4.629015    5057.8458            1 
   46000    2.2051569   -4.6000601    5075.1788            1 
   46100    2.1918348   -4.5751852    5075.0488            1 
   46200    2.1526504   -4.5950273    5048.2083            1 
   46300     2.194039   -4.6724951    5019.5706            2 
   46400    2.2057671   -4.6124369    5056.5205            1 
   46500    2.1947002    -4.580652    5092.1997            1 
   46600    2.1983591   -4.5863948    5080.5294       -1e+20 
   46700    2.2069746   -4.6145377    5037.2129            1 
   46800     2.165445   -4.5806807    5061.6862       -1e+20 
   46900    2.2514586   -4.5681732     5080.922            1 
   47000    2.1579571    -4.539131    5060.7706       -1e+20 
   47100    2.1589876   -4.5609019    5083.3322       -1e+20 
   47200    2.2209291   -4.5148929    5090.0307            1 
   47300     2.185023   -4.5177451    5094.5898            1 
   47400    2.1970401   -4.5596465    5104.2239            1 
   47500    2.2246689   -4.6179409    5064.9956       -1e+20 
   47600    2.1766007   -4.5694052    5099.6588            1 
   47700    2.2385931   -4.5786951    5067.8473            1 
   47800     2.137736   -4.5483939    5074.4311            1 
   47900    2.1942112   -4.5756004    5046.3899            1 
   48000    2.1688879   -4.5926222    5061.0156            1 
   48100    2.2039477   -4.6361345    5072.4594       -1e+20 
   48200    2.1982675   -4.5790183    5057.6874            1 
   48300    2.1968787   -4.5303366    5102.9502            1 
   48400    2.1947744   -4.5171389    5119.3087            1 
   48500    2.2169604   -4.5640162     5054.033       -1e+20 
   48600    2.1435207   -4.5826799    5089.8313       -1e+20 
   48700    2.2281491   -4.5766668    5060.8295            1 
   48800    2.1904684   -4.5983479    5074.3801       -1e+20 
   48900    2.1976428   -4.6128003    5091.4889            1 
   49000    2.1859128   -4.5662519    5056.1594            1 
   49100    2.2083322   -4.5915532     5043.215            1 
   49200    2.1681713   -4.5884604    5119.1083            2 
   49300    2.2375435   -4.5294514    5091.4184       -1e+20 
   49400    2.1967311   -4.5765939     5086.822            1 
   49500    2.1824914   -4.5931884     5073.452            1 
   49600    2.1555611   -4.6284846    5027.2831            1 
   49700     2.162814   -4.6730013    5026.2003            1 
   49800    2.2160708   -4.6404211     5059.501       -1e+20 
   49900    2.1712394    -4.544059    5058.7685       -1e+20 
   50000    2.2240222   -4.5784965    5105.1294       -1e+20 
   50100    2.1781894   -4.5853531    5067.4999            1 
   50200    2.2049787    -4.560924     5063.485            1 
   50300    2.1832314   -4.6184941     5077.078            1 
   50400    2.1914507   -4.5914765    5024.8165       -1e+20 
   50500    2.1510225   -4.5842416    5055.1571            1 
   50600    2.1990745    -4.617433    5070.9458            1 
   50700    2.1514647   -4.5725917    5034.5659       -1e+20 
   50800    2.2369253   -4.5924375    5076.3094            1 
   50900    2.1454455   -4.5671875    5090.5678            1 
   51000    2.2622924   -4.5747059    5034.2451            1 
   51100    2.1400235   -4.5731976     5096.339            1 
   51200    2.2273633   -4.6158569    5053.4063            1 
   51300    2.1750168   -4.5839818    5043.3145       -1e+20 
   51400    2.1952457   -4.5885967     5099.838       -1e+20 
   51500     2.196108   -4.5814479    5066.2573            1 
   51600    2.2093559   -4.5872972     5064.586            1 
   51700    2.1736529    -4.612148    5081.4835            1 
   51800    2.1948047   -4.6021317    5015.3858            1 
   51900    2.1471156   -4.5742669     5093.481            1 
   52000     2.225091   -4.5708826    5058.5672            1 
   52100     2.174053   -4.6059673     5051.658            1 
   52200    2.1853101   -4.6080355    5075.5278            1 
   52300    2.2186583   -4.5867613    5067.2307            1 
   52400    2.1489644   -4.5678394    5084.2251            1 
   52500    2.2142214   -4.5665883    5043.0035       -1e+20 
   52600    2.1834994   -4.6308008    5060.0256       -1e+20 
   52700    2.2142772   -4.5969016    5063.1526       -1e+20 
   52800    2.2419682   -4.5993719    5070.8238            1 
   52900    2.1440014   -4.5664754    5080.0317       -1e+20 
   53000     2.201954   -4.5386695    5078.1549            1 
   53100    2.2028778    -4.564946     5086.861            1 
   53200    2.1789866   -4.6185589    5054.9273       -1e+20 
   53300    2.2098964   -4.6021753    5060.7887            1 
   53400     2.199388   -4.5205943    5109.0637       -1e+20 
   53500    2.2091776   -4.5983661    5069.4789            1 
   53600    2.1707387   -4.5896343    5054.5879            1 
   53700    2.1876271   -4.6046672    5054.7824            1 
   53800    2.2283285   -4.5873802     5084.109            1 
   53900    2.1956077   -4.5555193    5099.4199            1 
   54000     2.185076   -4.5917927    5038.0381       -1e+20 
   54100    2.1426664   -4.5651313    5052.7217            1 
   54200    2.1975449   -4.5853833    5072.9713            1 
   54300    2.2286433   -4.6010271    5075.8724            1 
   54400     2.161578   -4.5754845    5053.6186            1 
   54500    2.1664943   -4.5090535    5076.6639            1 
   54600    2.1843414   -4.5746563    5071.3371            1 
   54700    2.1601652   -4.5590343    5040.4899       -1e+20 
   54800    2.2004378   -4.5603679    5107.5188            1 
   54900    2.1836794   -4.5098333    5069.7417            1 
   55000    2.1712768   -4.5601879    5068.6471       -1e+20 
   55100    2.1719354   -4.5636811    5066.5793            1 
   55200    2.1621942   -4.6082179    5033.7709            1 
   55300    2.1848636   -4.5676096    5090.8648            1 
   55400    2.2129575   -4.5186131    5090.8042            1 
   55500    2.0950885   -4.5362481    5114.4014            1 
   55600    2.1844397   -4.5213348    5028.8058       -1e+20 
   55700    2.1716154   -4.5580029    5103.8591            1 
   55800    2.1857556    -4.575123    5068.1658            1 
   55900    2.2128598   -4.6063052    5053.6595            1 
   56000    2.1590563   -4.6197067    5058.6977       -1e+20 
   56100    2.1955814   -4.5915205    5040.4787       -1e+20 
   56200    2.1830712   -4.5772549    5065.0136       -1e+20 
   56300    2.1713663   -4.5642668    5081.8701       -1e+20 
   56400    2.2110389   -4.5166276    5075.1089       -1e+20 
   56500    2.1795227   -4.5659035    5076.3677            1 
   56600    2.1797949   -4.6397511    5047.4254       -1e+20 
   56700    2.2147628   -4.5853869    5055.8028       -1e+20 
   56800    2.1921946    -4.581584    5090.6072            1 
   56900    2.1399339   -4.5891722    5055.8558            1 
   57000    2.2275757   -4.6201378    5048.7267            1 
   57100    2.2246545   -4.6477492    5078.9818            1 
   57200    2.2148788   -4.5945581    5086.8663       -1e+20 
   57300    2.1877092   -4.5328326    5088.1395            1 
   57400    2.2067764   -4.5788541    5056.4493            1 
   57500    2.1809556   -4.6263611    5079.8242            1 
   57600    2.1974371    -4.652467    5039.1691       -1e+20 
   57700     2.183169   -4.5645757     5063.559            1 
   57800    2.2015997   -4.6108211    5075.7905       -1e+20 
   57900    2.1377305   -4.5403145    5059.4899            3 
   58000    2.2109993   -4.5567305    5072.0127            1 
   58100    2.1888907   -4.6129268    5058.0076            1 
   58200    2.1871253   -4.6218894    5041.9448            1 
   58300    2.1968999   -4.5957562    5055.2945       -1e+20 
   58400    2.1734194   -4.5559623    5108.9698            1 
   58500    2.2435617   -4.5898273     5050.701            1 
   58600    2.1657227   -4.6078441    5099.7735            1 
   58700    2.2385222   -4.5954175    5053.0932            1 
   58800    2.1720486   -4.5980946    5038.8751            1 
   58900    2.2180812   -4.5961224    5069.9329       -1e+20 
   59000    2.1815457   -4.5289926    5106.9454       -1e+20 
   59100    2.1970798   -4.5364358    5055.4887            1 
   59200    2.1728695   -4.5962359    5055.9486       -1e+20 
   59300    2.1840699   -4.5796595    5045.0588            1 
   59400    2.1823082   -4.6484806    5050.3492            1 
   59500    2.1549318   -4.5584908     5056.154            1 
   59600    2.2020971   -4.5210111    5067.4876            1 
   59700     2.190844    -4.577127    5078.8003            1 
   59800    2.1613068   -4.5912921    5039.4094            1 
   59900    2.2157555   -4.6123765     5058.282            1 
   60000    2.1569922   -4.6214101    5074.5032            2 
   60100    2.1917216   -4.5541532    5067.0127            1 
   60200    2.1907517   -4.5871709    5076.9059       -1e+20 
   60300    2.1188915   -4.5510028    5059.5452            1 
   60400    2.2005951   -4.5501989     5073.424            1 
   60500    2.2259728   -4.6155662    5100.0737            1 
   60600    2.1378548   -4.5367046    5081.1725       -1e+20 
   60700    2.2227388   -4.5872648    5019.4706            1 
   60800    2.1655237   -4.5976917    5101.5689            1 
   60900     2.210515   -4.5855498    5076.4898            1 
   61000    2.1891262   -4.5680608    5081.3113       -1e+20 
   61100    2.1848799   -4.5569849    5088.3572            1 
   61200    2.2003503   -4.5715505    5062.7655            1 
   61300    2.1591748   -4.6076962    5059.5083            1 
   61400    2.2187021   -4.5930336     5080.967            1 
   61500    2.1548743   -4.5294757    5080.4252            1 
   61600    2.2192102    -4.605975     5070.828            1 
   61700    2.1518275   -4.5846163    5050.6355       -1e+20 
   61800    2.2061205   -4.5396453     5063.069       -1e+20 
   61900    2.1887853   -4.5348646     5089.358            1 
   62000    2.1781059   -4.5936933    5055.6566       -1e+20 
   62100    2.2183617   -4.5857888    5066.8645       -1e+20 
   62200    2.2272504   -4.5856741    5095.9889            1 
   62300    2.1758409    -4.568865    5067.6524            1 
   62400     2.206588    -4.583503    5078.1587            1 
   62500    2.1982612   -4.6137209    5058.5703       -1e+20 
   62600    2.2008435   -4.6162471    5040.5262       -1e+20 
   62700    2.1413285   -4.6139095    5073.3235            1 
   62800    2.2019212   -4.5576107    5062.5319            1 
   62900    2.1876316   -4.5210445     5108.349       -1e+20 
   63000    2.2289177   -4.5961688      5089.66       -1e+20 
   63100    2.1904497   -4.6028069    5040.5948            1 
   63200     2.160896   -4.5975602    5023.9536            1 
   63300    2.1827539    -4.548819    5082.4515            1 
   63400     2.224673   -4.5707728     5092.146            1 
   63500    2.1672483   -4.6129357    5073.5504            1 
   63600    2.1925438    -4.584725    5061.7932            2 
   63700    2.1861454   -4.5704352    5055.6273       -1e+20 
   63800     2.172644   -4.5271484    5100.1675            1 
   63900    2.2112036   -4.5731523    5085.9887            1 
   64000    2.1929471   -4.5865874    5038.5205            1 
   64100    2.2240106   -4.5864233    5103.3424       -1e+20 
   64200     2.191725   -4.5251645    5105.1688            1 
   64300    2.2318274   -4.6050547     5046.767            1 
   64400    2.1570883    -4.614605    5066.0176            1 
   64500     2.212508   -4.5798898    5048.9294            2 
   64600    2.2425281   -4.5586038    5104.6306       -1e+20 
   64700    2.2001097   -4.5877827    5109.1523            1 
   64800    2.2223384   -4.5863593    5045.3496            1 
   64900    2.1583254   -4.5956516    5064.4549       -1e+20 
   65000    2.2148446   -4.6028532    5066.9821            1 
   65100    2.1912588   -4.6139494    5066.0225       -1e+20 
   65200    2.2026744   -4.6055477    5065.0983            1 
   65300    2.1921175   -4.6007988    5082.5843            1 
   65400    2.2099388   -4.6377163    5052.5179            1 
   65500    2.1600146   -4.5845451     5042.858            1 
   65600    2.1877274   -4.5531706    5068.8085            1 
   65700    2.1980537   -4.5724493    5110.0283       -1e+20 
   65800    2.1759985   -4.6069218    5061.0607            3 
   65900     2.186413   -4.5783038     5017.469            1 
   66000    2.1606921   -4.5955606    5069.4363            1 
   66100    2.2144339   -4.5937092    5082.9669            1 
   66200    2.1633875   -4.5562224     5058.191            1 
   66300    2.2081814   -4.5521725    5090.4266       -1e+20 
   66400    2.2012344   -4.6073481    5066.8403            1 
   66500    2.1743847   -4.5975052    5056.4338            1 
   66600    2.2081809   -4.6029624    5049.4832            1 
   66700    2.1629322   -4.5382141    5085.0387       -1e+20 
   66800    2.2120988    -4.584333    5059.5317       -1e+20 
   66900    2.1502968    -4.606263    5056.2353            1 
   67000    2.1930724   -4.6069107    5035.2396            1 
   67100    2.1419185    -4.560814    5048.9845            1 
   67200    2.2038559   -4.6213189    5071.4536            1 
   67300    2.1741028   -4.5883473    5024.5797            1 
   67400    2.1574279    -4.633659    5029.5212            1 
   67500    2.1752226   -4.6265863    5056.3499            1 
   67600    2.2016523   -4.5644035    5090.0526            1 
   67700    2.2096124   -4.5331861    5099.8738            1 
   67800    2.1617841   -4.5662921    5077.0801            1 
   67900    2.2179321   -4.5905499    5071.9057            1 
   68000    2.1672085   -4.5323814    5074.5812            1 
   68100    2.2147634   -4.6109694    5099.2843       -1e+20 
   68200    2.1796093   -4.5663022    5040.8188            1 
   68300    2.2155113   -4.6265358    5075.0405       -1e+20 
   68400    2.1803938   -4.6013874    5076.0723            1 
   68500    2.1841059   -4.5685683    5028.4302            2 
   68600    2.1532096   -4.6221323    5060.1043            1 
   68700    2.1816695   -4.5989592    5067.6854            2 
   68800    2.2209423   -4.5609796    5056.3873            1 
   68900    2.1443742   -4.5843037    5081.5429       -1e+20 
   69000    2.1800379   -4.6204503    5030.6369       -1e+20 
   69100    2.2146603   -4.6002505    5048.1575            1 
   69200    2.1765685   -4.5605835    5111.7826            2 
   69300    2.2668355    -4.570725    5093.5069       -1e+20 
   69400    2.1875554   -4.5603362    5107.8558       -1e+20 
   69500    2.1738395   -4.5838339    5064.4606       -1e+20 
   69600     2.211078   -4.5948788    5040.8046       -1e+20 
   69700    2.1875624    -4.671386    5080.0143            1 
   69800    2.2014123   -4.6180733    5022.4013            2 
   69900    2.1808873   -4.5454455    5078.0514            1 
   70000    2.2098105   -4.5739814     5082.625            1 
   70100    2.2011527    -4.606394    5054.0756            2 
   70200    2.2189462   -4.5987056     5081.886            2 
   70300    2.1795478   -4.5963935     5095.702       -1e+20 
   70400    2.2278578   -4.6103405    5020.9194            1 
   70500    2.1633396   -4.6348622    5077.6666            1 
   70600    2.1718005   -4.5313506    5074.4368            1 
   70700    2.2147315   -4.5237229     5105.661       -1e+20 
   70800    2.2068846   -4.5346529    5115.5349            1 
   70900    2.2062438   -4.5723479     5076.064            1 
   71000    2.1965159    -4.583379    5052.2429            1 
   71100    2.1801046   -4.5904413    5049.3146            1 
   71200    2.1919911   -4.6202323    5066.2647            1 
   71300    2.2449883   -4.5713256    5076.2204       -1e+20 
   71400    2.1762495   -4.5697059    5084.7285       -1e+20 
   71500    2.1297806   -4.6219827    5051.6637            1 
   71600    2.1960254   -4.6052551    5053.6305       -1e+20 
   71700    2.2077165   -4.5443583    5081.2399            1 
   71800    2.1402181   -4.5778141    5086.1607            1 
   71900    2.1813729   -4.5611622    5055.8332            1 
   72000    2.2142576   -4.5481712    5084.0294       -1e+20 
   72100    2.2245332    -4.594746    5089.6712            1 
   72200    2.1879882   -4.6036486     5053.695            3 
   72300    2.2026376   -4.5868343    5079.2048            1 
   72400    2.1905515   -4.5695764    5069.4288       -1e+20 
   72500    2.1742484   -4.5553937    5056.9911       -1e+20 
   72600    2.1871754   -4.5333989    5118.7929            1 
   72700    2.1947443   -4.5209519    5059.9475            1 
   72800    2.1788698   -4.5753291    5064.8527            1 
   72900    2.1554087   -4.5843779    5061.9019            1 
   73000    2.1877971   -4.5609933    5041.0699            2 
   73100    2.2006551   -4.5689254    5094.7119            2 
   73200    2.2282239    -4.567224    5101.1975       -1e+20 
   73300    2.1737096   -4.5517583    5050.5574       -1e+20 
   73400    2.1691903   -4.5707876    5086.0494            1 
   73500    2.2211753   -4.5801398    5091.8857            1 
   73600    2.1784252   -4.5501041    5050.8147       -1e+20 
   73700    2.1636888   -4.5953984    5062.1558            1 
   73800    2.2180337   -4.5635403    5061.2259       -1e+20 
   73900    2.1795054   -4.6001574    5077.8705       -1e+20 
   74000    2.1640885   -4.5838617    5039.4728            2 
   74100    2.1834647   -4.5808441    5034.5154            1 
   74200    2.1993697   -4.5956659    5111.2033       -1e+20 
   74300    2.2090273   -4.5436588    5102.5536            1 
   74400    2.1806377   -4.5570066    5066.0457       -1e+20 
   74500    2.1913603   -4.5650258    5089.5123            1 
   74600    2.1758339   -4.5685685    5089.1113            1 
   74700    2.2054038   -4.5974252    5045.6139            1 
   74800    2.1772413   -4.6143743    5069.7094            1 
   74900    2.2065481   -4.5728941    5065.8953            1 
   75000    2.1941981   -4.6164565    5050.2965            1 
   75100    2.1359261   -4.5813028    5051.0454            1 
   75200    2.2041908   -4.5739041    5081.8475            1 
   75300    2.1624406   -4.5564851    5075.9192            1 
   75400     2.228447   -4.6581253    5063.0605            1 
   75500    2.2335822   -4.6300855    5087.9392            1 
   75600    2.1930173   -4.6213492      5046.45            1 
   75700    2.1747352   -4.6004194    5041.9056            1 
   75800    2.2129108   -4.5995747    5063.6099            1 
   75900    2.2058232   -4.5760492    5085.8905       -1e+20 
   76000    2.2079078   -4.5600284    5110.6689            1 
   76100    2.1860194   -4.5741097    5047.8964            1 
   76200     2.138692   -4.5823517    5077.7299       -1e+20 
   76300    2.2023356   -4.5407136    5089.6432            1 
   76400     2.152479   -4.5206136    5075.8528       -1e+20 
   76500    2.1692806   -4.5925335    5044.4085       -1e+20 
   76600    2.1932355   -4.5303742    5073.6658            1 
   76700    2.1394691   -4.5782987    5062.5358       -1e+20 
   76800    2.1597499   -4.5727055    5054.5306            1 
   76900    2.1969777   -4.5771763    5077.2367            1 
   77000    2.1905056   -4.5244635    5082.6916            1 
   77100    2.1569078   -4.5828596    5087.5325            1 
   77200    2.2112788   -4.5820222    5083.9948            1 
   77300    2.1738822   -4.5297655    5066.5104            1 
   77400     2.174639   -4.5682165    5135.8187            1 
   77500    2.1824266   -4.5543116    5034.2378            1 
   77600    2.1650762   -4.5902084    5055.7746       -1e+20 
   77700    2.2027647   -4.5984786    5055.0421            1 
   77800    2.1579977   -4.5782922    5031.9047            1 
   77900    2.1982627    -4.589623    5067.1484            1 
   78000    2.1682793   -4.5261967    5089.7666       -1e+20 
   78100    2.1926812   -4.5763157    5038.3511            1 
   78200    2.1725406   -4.5893503    5059.3099            1 
   78300    2.2205357   -4.6081682    5067.3944       -1e+20 
   78400    2.1684269   -4.5204438     5064.143            1 
   78500    2.1276356    -4.551883     5114.013            1 
   78600    2.2761965   -4.5662242    5024.8913            1 
   78700    2.1568064    -4.580072    5092.6979       -1e+20 
   78800    2.2308045    -4.627673    5078.2728            1 
   78900     2.174252   -4.5699826    5041.1696            1 
   79000    2.1616465   -4.5630709    5060.6326       -1e+20 
   79100     2.221608    -4.580307    5068.6618            1 
   79200    2.2381639   -4.5733445    5119.4167            1 
   79300    2.1850546   -4.5526826    5083.1923            2 
   79400    2.2137801   -4.5668119    5077.9394            1 
   79500    2.1378065   -4.5916117    5094.7934            1 
   79600    2.2113199   -4.5709207    5036.3471            1 
   79700    2.1380707   -4.5677492    5064.5183       -1e+20 
   79800    2.2139998   -4.5698088    5060.1262       -1e+20 
   79900    2.1561761   -4.5609719    5047.4178       -1e+20 
   80000    2.1977173   -4.6153101    5077.2346            1 
   80100    2.1908348   -4.5378842    5089.3075            1 
   80200    2.2204856   -4.5362414    5101.8588       -1e+20 
   80300    2.1598597    -4.556148    5097.0459            1 
   80400    2.2083747   -4.5673287    5064.9212            2 
   80500    2.1776328   -4.5712952    5074.6696            1 
   80600    2.1634192   -4.6332355    5048.2563       -1e+20 
   80700     2.208131   -4.5877434    5024.2353       -1e+20 
   80800    2.1824112   -4.5815835    5099.2753       -1e+20 
   80900    2.2578177    -4.584683    5090.0047       -1e+20 
   81000    2.1653052   -4.5835006    5108.9092            1 
   81100    2.1736992   -4.5817407    5067.7208       -1e+20 
   81200    2.2053448   -4.5988669    5033.4582            1 
   81300    2.0906796   -4.6152046    5085.1052            1 
   81400    2.2344681   -4.6089656    4999.2761            2 
   81500    2.1574315   -4.6182084     5085.605            1 
   81600    2.1698205   -4.5457341    5064.9591            1 
   81700    2.2372714   -4.5547783    5077.8825            1 
   81800    2.1686505   -4.5917145    5104.5247       -1e+20 
   81900     2.206361   -4.5494492    5053.7044       -1e+20 
   82000    2.1839678   -4.5842993    5089.4819            1 
   82100     2.160954   -4.5534219    5038.6779            1 
   82200    2.1980035   -4.5833804    5087.4098            1 
   82300    2.1789526   -4.5869793    5064.6388       -1e+20 
   82400    2.1791435   -4.5853664    5045.4892            1 
   82500    2.2303752   -4.5750821    5090.4646       -1e+20 
   82600    2.1623749   -4.5766509    5071.0063            1 
   82700    2.1867747   -4.5686189    5063.4339            1 
   82800    2.2343942   -4.5264074    5101.0633            2 
   82900    2.1820593   -4.5363246    5108.5171            1 
   83000    2.1976328   -4.5394314    5074.2071       -1e+20 
   83100    2.1567462   -4.5476242     5090.888            1 
   83200    2.2160425   -4.5400777      5103.52            1 
   83300    2.2063201   -4.5570602    5051.9584            1 
   83400    2.1510705   -4.6000236    5071.7078            1 
   83500    2.1954957   -4.5584698    5039.4796            1 
   83600    2.1490912   -4.6240009    5066.9041       -1e+20 
   83700    2.2176492   -4.6021792    5056.8799       -1e+20 
   83800     2.215543   -4.5770988    5059.2723            1 
   83900    2.1466389   -4.5904525    5084.0713            1 
   84000     2.233379   -4.5748242    5068.2268            1 
   84100    2.1871429   -4.6169701    5057.0509       -1e+20 
   84200    2.2169672   -4.5824721    5063.4133            1 
   84300    2.1965451   -4.5813686    5082.0434            1 
   84400    2.1857526     -4.59801    5035.3093            1 
   84500     2.199482   -4.6262278    5043.3184            1 
   84600    2.1932026   -4.5969228    5065.0178            1 
   84700    2.2103063   -4.5316861    5100.0167            1 
   84800    2.1970933   -4.5685054    5077.5246            1 
   84900    2.1823744   -4.5963042    5076.0014            1 
   85000    2.2070706    -4.569109    5082.3328            2 
   85100    2.1758442   -4.5394061     5095.334            1 
   85200    2.1692832   -4.5666882    5037.3248            2 
   85300    2.1896786   -4.6261299    5054.4282            1 
   85400    2.2315642   -4.5792637     5091.316            1 
   85500    2.1961384   -4.5956783    5079.8875            1 
   85600    2.1575161   -4.5738977    5055.4828            1 
   85700    2.1849267   -4.5383077     5091.339            2 
   85800    2.1865947   -4.5475444    5103.2984            1 
   85900    2.2379736   -4.5377015    5087.6301       -1e+20 
   86000    2.1519708   -4.5496992     5089.807            1 
   86100    2.1721375   -4.6101756    5038.7951            1 
   86200    2.1824839    -4.591228    5037.0842            2 
   86300    2.2027141   -4.6238984    5092.4487            1 
   86400    2.2128884   -4.5537878    5093.8937       -1e+20 
   86500    2.2223162    -4.566105    5078.5489            1 
   86600     2.161635   -4.6041006    5059.1585       -1e+20 
   86700     2.195608   -4.5424353    5067.2595            2 
   86800    2.2003376   -4.5531287     5074.943            1 
   86900    2.1879694   -4.5836024    5073.5819            1 
   87000    2.1695858   -4.5859909    5038.0675            1 
   87100    2.1994506   -4.6297833    5064.8932            1 
   87200    2.1900169   -4.5757479    5087.9562       -1e+20 
   87300    2.1897524   -4.5458165    5050.7578            2 
   87400    2.1625303   -4.5940941    5081.7269       -1e+20 
   87500    2.2172594    -4.590802    5081.8421            2 
   87600    2.2021219   -4.5379396    5067.0187       -1e+20 
   87700    2.1566674   -4.5650172    5086.7146            1 
   87800    2.2030818   -4.5776078    5038.9854            1 
   87900    2.1779882   -4.5243081    5112.1444            1 
   88000    2.2012061   -4.5588683    5093.0644            1 
   88100    2.1740481   -4.5670025    5060.1373       -1e+20 
   88200    2.2124629   -4.5784908     5084.488       -1e+20 
   88300    2.2019014   -4.5584841     5077.509       -1e+20 
   88400    2.1789277    -4.590976    5033.7678            1 
   88500    2.1691855   -4.5864785     5062.507            1 
   88600    2.2027441   -4.5654765    5097.8522            1 
   88700    2.1610774    -4.578486    5058.0615            1 
   88800    2.1632679   -4.5852917    5052.4442            1 
   88900    2.1996628   -4.5513739    5053.9497            1 
   89000    2.1326697   -4.5892188    5078.3898            1 
   89100    2.2271041   -4.6049337    5028.8999            1 
   89200     2.109663   -4.5575735    5097.0549            1 
   89300    2.2345937    -4.569082    5081.8015       -1e+20 
   89400    2.1883511   -4.5963641    5061.0808            1 
   89500    2.2089361   -4.5950407    5060.9254            1 
   89600    2.1677633   -4.5634198    5098.4203       -1e+20 
   89700    2.2334593   -4.5347678    5054.3669            1 
   89800    2.1740967   -4.6002099     5064.119            1 
   89900    2.2063814   -4.5779872    5066.4478            2 
   90000    2.1719814   -4.5395925    5053.7536       -1e+20 
   90100    2.1846167   -4.5947738    5066.6286       -1e+20 
   90200    2.2195415    -4.598016    5108.7149       -1e+20 
   90300    2.1942341   -4.5449789    5046.5799            1 
   90400    2.1668069   -4.5836252    5065.6997       -1e+20 
   90500    2.2255074   -4.6017684    5106.6202            1 
   90600     2.188733   -4.5402305    5070.4606            1 
   90700    2.2061391   -4.5829722    5077.7876       -1e+20 
   90800    2.1728354   -4.6219641    5049.6814            1 
   90900    2.2027485   -4.5940826    5055.4865       -1e+20 
   91000    2.2184002   -4.5801584    5091.7658            1 
   91100    2.1839134   -4.5939265    5078.6763       -1e+20 
   91200    2.1987685   -4.5686692    5040.2094       -1e+20 
   91300    2.2377859   -4.5666851    5118.1707       -1e+20 
   91400    2.2010199   -4.6011716    5081.9701       -1e+20 
   91500    2.1871356    -4.562074    5053.8789       -1e+20 
   91600     2.245847   -4.5271826     5094.327       -1e+20 
   91700    2.2002438    -4.573156    5111.6298            1 
   91800    2.1981483   -4.5725314    5068.9695            1 
   91900    2.2051733   -4.5765289    5077.1639       -1e+20 
   92000    2.1772631   -4.5616464    5094.3703            1 
   92100    2.1755713   -4.5416904    5069.7422            1 
   92200    2.2497944   -4.5650818    5058.7159            1 
   92300    2.1411058   -4.5748202    5083.0062            1 
   92400    2.1942897    -4.545854    5060.6496            1 
   92500    2.1800794   -4.6179134    5053.6319            1 
   92600    2.1737344   -4.6385953    5035.9552            1 
   92700    2.2160488   -4.6001038    5044.6267            1 
   92800    2.2019243   -4.5843284    5114.4495            1 
   92900    2.2095681   -4.5787091    5073.1687       -1e+20 
   93000    2.2135634   -4.5724866    5091.8532       -1e+20 
   93100    2.2064788   -4.5899516     5076.497            2 
   93200     2.163316   -4.5518346    5063.8708            1 
   93300    2.1817634   -4.5527798    5043.2772            1 
   93400    2.1831443   -4.5896229    5081.1941       -1e+20 
   93500    2.2127792   -4.5642267    5089.8053            1 
   93600    2.1837774   -4.5974571    5079.2763            1 
   93700    2.1570129   -4.5834098    5094.9106            1 
   93800    2.2592485   -4.5625772    5045.8652            1 
   93900    2.1585622   -4.5464576    5115.8912       -1e+20 
   94000    2.1987638   -4.5860799    5059.8807            1 
   94100    2.2085367   -4.6247539    5036.9128       -1e+20 
   94200    2.2110133   -4.6211449    5074.4717       -1e+20 
   94300    2.1628811   -4.5716347    5063.0151            2 
   94400     2.218799   -4.6099163     5027.919       -1e+20 
   94500    2.1091551   -4.6045169    5069.3313            1 
   94600    2.2194118   -4.5877698    5039.2172            1 
   94700    2.1808077   -4.5939549    5052.4062            1 
   94800    2.1860072   -4.6474666    5061.7958            1 
   94900    2.1884372   -4.5435061     5052.331            1 
   95000    2.1830724   -4.5594843    5077.9403            1 
   95100     2.196144   -4.5677081    5085.2542       -1e+20 
   95200    2.1734691   -4.4997154    5112.0232            1 
   95300    2.2440879    -4.498586    5100.9875            1 
   95400    2.1995632   -4.5782264    5074.6838       -1e+20 
   95500    2.1550217   -4.5650991    5073.8469       -1e+20 
   95600    2.1978655   -4.5500701    5042.3435            1 
   95700    2.1748354   -4.6122908    5051.8075            1 
   95800    2.1402443   -4.5696905    5065.6934            1 
   95900    2.2426084   -4.5669526     5069.664            1 
   96000    2.1610853    -4.580638    5083.2018            1 
   96100    2.2205908   -4.5938832    5064.4179            1 
   96200    2.1963193   -4.6062773    5082.2344       -1e+20 
   96300    2.1773692   -4.5907566    5050.1796            1 
   96400    2.1707751   -4.5492231    5071.9045       -1e+20 
   96500    2.2221861   -4.5829121     5104.487            1 
   96600    2.1803046   -4.5844212    5079.7939            1 
   96700     2.210666   -4.6443858    5002.5516            2 
   96800    2.1703003   -4.6602279      5044.94            1 
   96900    2.1649246   -4.5754786     5044.231       -1e+20 
   97000     2.201898   -4.5565728    5078.3971       -1e+20 
   97100    2.1728718   -4.5487675    5091.0003            1 
   97200    2.1907932   -4.5082745    5087.3418            2 
   97300    2.1912967     -4.59437    5093.8323            1 
   97400    2.1872104   -4.5913072    5058.3866            1 
   97500    2.2440078   -4.5643926    5081.2048            1 
   97600    2.1655376   -4.5481862    5095.2083       -1e+20 
   97700    2.1996344   -4.5602984    5072.7158            1 
   97800    2.1945674   -4.5651845    5086.9584            1 
   97900    2.1896815   -4.6009181     5069.814            1 
   98000    2.1833578   -4.5725286    5039.1308       -1e+20 
   98100     2.199012   -4.5928239    5071.2184            1 
   98200     2.215295   -4.5871104    5087.1539            1 
   98300    2.1722998   -4.5540064    5054.8861            1 
   98400    2.2006669   -4.5438253    5137.4313            1 
   98500    2.2104657   -4.5820747    5060.0333       -1e+20 
   98600    2.1748063   -4.6090941    5054.3876            1 
   98700    2.2072288   -4.5877645    5056.5047            1 
   98800    2.2069673   -4.5475824    5109.7307            1 
   98900    2.1697333   -4.5920077    5065.7719       -1e+20 
   99000    2.1751853   -4.5483441    5063.2153            1 
   99100    2.2217213   -4.5764473    5093.2038            1 
   99200    2.1890022   -4.5778238    5066.2525            1 
   99300    2.2056139   -4.5634714     5072.998       -1e+20 
   99400    2.2122967   -4.5797242    5116.4034       -1e+20 
   99500    2.2060695   -4.5702636    5081.8679            1 
   99600    2.2201244   -4.6344012    5039.7433       -1e+20 
   99700    2.1795875   -4.6499858    5034.7025            1 
   99800    2.1881596   -4.5716003    5061.0723            1 
   99900    2.1646682   -4.5369737    5073.1834            1 
  100000    2.2035426   -4.5384642    5073.3073            1 
  100100    2.1329465   -4.5374657     5071.772            1 
  100200    2.2594672   -4.6060293    5058.6845            1 
  100300    2.1734742   -4.5505858     5049.546            1 
  100400    2.1058732   -4.5978993    5084.7902            1 
  100500    2.2109796   -4.5667623    5011.5656            1 
  100600     2.133498   -4.5684821    5069.2787       -1e+20 
  100700    2.1832363   -4.5261724    5083.5174       -1e+20 
  100800     2.194042   -4.5696458    5067.9001       -1e+20 
  100900    2.1572471   -4.6168061    5048.2574            1 
  101000    2.2059375   -4.5834758    5060.8931       -1e+20 
  101100     2.179709   -4.5941167    5070.3646            1 
  101200    2.1985731   -4.6247984    5073.9816       -1e+20 
  101300    2.2076117   -4.5916531    5075.5441            1 
  101400    2.1577748   -4.5526103    5054.8183            1 
  101500    2.1875569   -4.6076524     5084.312            1 
  101600    2.2322931   -4.5927147    5044.2475            1 
  101700    2.1621517   -4.6158761    5071.1649       -1e+20 
  101800    2.2040044   -4.6259314    5067.1957            1 
  101900    2.2094209    -4.526756    5073.6777            1 
  102000    2.1268964   -4.5445042    5101.4867            1 
  102100    2.2231168   -4.5680618    5059.1588            1 
  102200    2.1388406   -4.5890337    5061.6758            1 
  102300     2.173939   -4.6139375    5067.8599            1 
  102400    2.2008505   -4.5419473    5078.2049       -1e+20 
  102500    2.2030439   -4.6441834    5076.6745            1 
  102600     2.195997   -4.6302204    5031.5893            1 
  102700    2.1562231   -4.6151239    5031.9345            1 
  102800    2.1739498   -4.5712183    5061.0839            1 
  102900    2.2182398    -4.573696    5081.3216       -1e+20 
  103000     2.185478   -4.5307664    5094.7728            1 
  103100    2.1582562   -4.5474485    5058.0635       -1e+20 
  103200    2.1951487   -4.5749616    5064.0227            1 
  103300    2.1592688   -4.5825781    5061.6191       -1e+20 
  103400    2.1585337   -4.6079715    5028.2111       -1e+20 
  103500    2.2003248    -4.587858    5046.4234            1 
  103600    2.1234866   -4.5875185    5056.4741            1 
  103700    2.2079798   -4.6027697      5027.17            1 
  103800    2.2037354   -4.5543897    5095.4865       -1e+20 
  103900    2.1832408   -4.5419872    5090.7083       -1e+20 
  104000    2.1915242   -4.5960019    5064.2316            2 
Loop time of 165.513 on 32 procs for 100000 steps with 4000 atoms

Performance: 104402.691 tau/day, 604.182 timesteps/s
99.7% CPU use with 32 MPI tasks x no OpenMP threads

MPI task timing breakdown:
Section |  min time  |  avg time  |  max time  |%varavg| %total
---------------------------------------------------------------
Pair    | 12.548     | 13.072     | 13.462     |   6.7 |  7.90
Neigh   | 2.3024     | 2.344      | 2.3978     |   1.5 |  1.42
Comm    | 8.7415     | 9.5142     | 10.744     |  15.1 |  5.75
Output  | 3.5557     | 3.5562     | 3.5671     |   0.1 |  2.15
Modify  | 134.05     | 135.8      | 136.73     |   5.6 | 82.05
Other   |            | 1.223      |            |       |  0.74

Nlocal:        125.000 ave         135 max         115 min
Histogram: 1 1 2 4 7 8 4 2 2 1
Nghost:        1676.69 ave        1697 max        1662 min
Histogram: 3 4 3 4 8 4 1 3 1 1
Neighs:        11273.8 ave       12386 max       10246 min
Histogram: 1 1 4 7 4 6 4 2 1 2
FullNghs:      22548.8 ave       25102 max       20729 min
Histogram: 2 1 8 5 7 4 1 3 0 1

Total # of neighbors = 721561
Ave neighs/atom = 180.39025
Neighbor list builds = 8713
Dangerous builds = 873

#clear
#
#next RN
#
#jump SELF
Total wall time: 0:02:46
