
units lj                  # Use reduced LJ style units
atom_style atomic         # Uncharged point particles
atom_modify map hash      # Needed for indexing of clusters etc
                          # Used to be able to find where atoms are in relation to each other.

lattice fcc 1.0 spacing 1 1 1
Lattice spacing in x,y,z = 1.5874011 1.5874011 1.5874011
region box block 0 10 0 10 0 10 units lattice
create_box 2 box
Created orthogonal box = (0.0000000 0.0000000 0.0000000) to (15.874011 15.874011 15.874011)
  3 by 4 by 4 MPI processor grid
create_atoms 1 box
Created 4000 atoms
  using lattice units in orthogonal box = (0.0000000 0.0000000 0.0000000) to (15.874011 15.874011 15.874011)
  create_atoms CPU = 0.015 seconds
set type 1 type/fraction 2 0.9 78393
Setting atom values ...
  3586 settings made for type/fraction
mass 1 1.0
mass 2 1.0
pair_style lj/cut  3.5
pair_modify tail  yes
pair_coeff 1  1  1.0  1.0   # Intearaction between 1 and 1 set with epsilon = 1 and sigma = 1
pair_coeff 1  2  1.5  0.8
pair_coeff 2  2  0.5  0.88

write_data data.0
System init for write_data ...
Neighbor list info ...
  update every 1 steps, delay 10 steps, check yes
  max neighbors/atom: 2000, page size: 100000
  master list distance cutoff = 3.8
  ghost atom cutoff = 3.8
  binsize = 1.9, bins = 9 9 9
  1 neighbor lists, perpetual/occasional/extra = 1 0 0
  (1) pair lj/cut, perpetual
      attributes: half, newton on
      pair build: half/bin/atomonly/newton
      stencil: half/bin/3d
      bin: standard
WARNING: Not all mixed pair coeffs generated from mixing. Use write_data with 'pair ij' option to store all pair coeffs. (../write_data.cpp:312)


#############################
#   M E L T   S Y S T E M   #
#############################

velocity all create 2.4 6583654 mom yes dist gaussian # Assign velocities
                                                    # Temperature 2.4, random number seed, zero linear momentum
                                                                                # Gaussian distribution

timestep 0.002   # simulation timestep
thermo 1000       # output thermodynamic data every 1000 steps bf 100

# Define a fix  in this case with index 1 applied to all
# particles in the simulation. This fix is for simulations
# in the anisotropic NPT ensemble. Note that we use the MTK
# correction.
fix 1 all npt temp 2.4 2.4 0.1 iso 5.68 5.68 0.5 mtk yes tchain 5 pchain 5 # Use NPT ensemble
                                                                         # Set temperature and pressure and damping
                                                                         # Numbers of thermostats in chain and in barostat
run 10000          # run for 10000 steps
Per MPI rank memory allocation (min/avg/max) = 3.642 | 3.644 | 3.648 Mbytes
Step Temp E_pair E_mol TotEng Press Volume 
       0          2.4   -3.1995671            0   0.39953293    -2.596694         4000 
    1000    2.3440599   -2.2649498            0     1.250261    5.6366394    3967.8385 
    2000    2.3950195   -2.1699868            0    1.4216444    5.8913676    4040.2642 
    3000    2.4073911   -2.2874096            0    1.3227742    5.3728272    4035.1538 
    4000    2.4226644   -2.2316916            0    1.4013965    5.6940703    4015.5508 
    5000    2.4806375   -2.2777536            0    1.4422725    5.7340759    3990.8692 
    6000    2.3889519   -2.2391696            0    1.3433624    5.5449978    4026.3694 
    7000    2.3941448    -2.222756            0    1.3675634    5.6426315    4032.8215 
    8000    2.4294512   -2.2798207            0    1.3634451    5.7239668    3971.2094 
    9000    2.4513521   -2.2569924            0    1.4191165    5.7398223    3985.3929 
   10000    2.3557424   -2.2182173            0     1.314513    5.6596445    4026.4847 
Loop time of 2.49027 on 48 procs for 10000 steps with 4000 atoms

Performance: 693899.929 tau/day, 4015.625 timesteps/s
99.6% CPU use with 48 MPI tasks x no OpenMP threads

MPI task timing breakdown:
Section |  min time  |  avg time  |  max time  |%varavg| %total
---------------------------------------------------------------
Pair    | 1.0729     | 1.1537     | 1.2183     |   2.9 | 46.33
Neigh   | 0.20704    | 0.2153     | 0.22936    |   1.0 |  8.65
Comm    | 0.77598    | 0.85558    | 0.95294    |   3.5 | 34.36
Output  | 0.00024765 | 0.00025509 | 0.00032523 |   0.0 |  0.01
Modify  | 0.21465    | 0.25024    | 0.26763    |   2.8 | 10.05
Other   |            | 0.01522    |            |       |  0.61

Nlocal:        83.3333 ave          95 max          73 min
Histogram: 2 1 6 6 9 16 3 1 3 1
Nghost:        1638.54 ave        1675 max        1593 min
Histogram: 1 2 5 5 4 8 8 9 5 1
Neighs:        9486.83 ave       11470 max        8285 min
Histogram: 2 11 5 10 10 3 2 4 0 1

Total # of neighbors = 455368
Ave neighs/atom = 113.84200
Neighbor list builds = 908
Dangerous builds = 217

# Equilibrate just above the melting temperature to avoid step fn in T

fix 1 all npt temp 1.25 1.25 0.1 iso 5.68 5.68 0.5 mtk yes tchain 5 pchain 5
run 2000
Per MPI rank memory allocation (min/avg/max) = 3.643 | 3.645 | 3.649 Mbytes
Step Temp E_pair E_mol TotEng Press Volume 
   10000    2.3557424   -2.2182173            0     1.314513    5.6596445    4026.4847 
   11000    1.2765098   -3.3525251            0   -1.4382391    5.7229324    3102.6708 
   12000    1.2712369   -3.3496372            0   -1.4432585     5.687495    3112.0966 
Loop time of 0.595854 on 48 procs for 2000 steps with 4000 atoms

Performance: 580008.047 tau/day, 3356.528 timesteps/s
99.7% CPU use with 48 MPI tasks x no OpenMP threads

MPI task timing breakdown:
Section |  min time  |  avg time  |  max time  |%varavg| %total
---------------------------------------------------------------
Pair    | 0.26589    | 0.29058    | 0.30889    |   1.8 | 48.77
Neigh   | 0.038314   | 0.04148    | 0.043303   |   0.5 |  6.96
Comm    | 0.19244    | 0.21556    | 0.24402    |   2.5 | 36.18
Output  | 4.9722e-05 | 5.1451e-05 | 6.7103e-05 |   0.0 |  0.01
Modify  | 0.040319   | 0.043442   | 0.048365   |   1.0 |  7.29
Other   |            | 0.004745   |            |       |  0.80

Nlocal:        83.3333 ave          92 max          77 min
Histogram: 4 2 6 6 15 6 4 1 2 2
Nghost:        1943.23 ave        1965 max        1913 min
Histogram: 1 0 3 4 7 13 6 7 3 4
Neighs:        12269.5 ave       13863 max       10904 min
Histogram: 2 5 6 6 7 9 6 2 4 1

Total # of neighbors = 588934
Ave neighs/atom = 147.23350
Neighbor list builds = 144
Dangerous builds = 10

#############################
# L I N E A R  Q U E N C H  #
#############################

# Define solid atoms. This closely follows ten Wolde  Ruiz-Montero and Frenkel  Faraday Discuss  1996  104  93-110
# Compute components of the per-atom q6 vector
compute q6 all orientorder/atom degrees 1 6 components 6 nnn NULL cutoff 1.3 # compute the Q6 parameter.
                                                                             # Use all neighbours within 1.3 unit cell.

# get number of connections
compute coord_number all coord/atom orientorder q6 0.5

# An atom is solid if it has 8 or more connections (of a possible 14)
variable is_solid atom c_coord_number>=8
group solid dynamic all var is_solid    # Must be dynamic to update
dynamic group solid defined

# do clustering
compute cluster solid cluster/atom 1.3 # Create a cluster where all atoms within are solid and max 1.3 units from another member

# define chunks one chunk per cluster
compute clus_chunks solid chunk/atom c_cluster nchunk every compress yes  # Says which atoms are in which chunk

# count the size of each chunk
compute size_chunks solid property/chunk clus_chunks count


# Find the maximum entry in the vector of chunk sizes
variable max_n equal max(c_size_chunks)


# Thermo style which includes this variable
# thermo_style custom step temp pe vol v_max_n

thermo ${N}  # Print the thermo information every 100 steps
thermo 1000  

# Reset the npt fix at a lower temperature (below freezing)
fix 1  all npt temp  ${temp} ${temp}  0.1  iso  5.68  5.68  0.5  mtk yes tchain  5  pchain  5
fix 1  all npt temp  0.45 ${temp}  0.1  iso  5.68  5.68  0.5  mtk yes tchain  5  pchain  5
fix 1  all npt temp  0.45 0.45  0.1  iso  5.68  5.68  0.5  mtk yes tchain  5  pchain  5

dump dmp2 all dcd ${N} traj.dcd
dump dmp2 all dcd 1000 traj.dcd


compute msd all msd com yes
variable twopoint equal c_msd[4]/6/(step*dt+1.0e-6)
fix 9 all vector 10 c_msd[4]
variable fit equal slope(f_9)/6/(10*dt)
thermo_style custom step temp pe c_msd[4] v_twopoint v_fit v_max_n

fix 1 all npt temp 1.25 ${temp} 0.1 iso 5.68 5.68 0.5 mtk yes tchain 5 pchain 5
fix 1 all npt temp 1.25 0.45 0.1 iso 5.68 5.68 0.5 mtk yes tchain 5 pchain 5
run 500000 # 5000000  # Run for this many steps
Neighbor list info ...
  update every 1 steps, delay 10 steps, check yes
  max neighbors/atom: 2000, page size: 100000
  master list distance cutoff = 3.8
  ghost atom cutoff = 3.8
  binsize = 1.9, bins = 8 8 8
  4 neighbor lists, perpetual/occasional/extra = 1 3 0
  (1) pair lj/cut, perpetual
      attributes: half, newton on
      pair build: half/bin/atomonly/newton
      stencil: half/bin/3d
      bin: standard
  (2) compute orientorder/atom, occasional
      attributes: full, newton on
      pair build: full/bin/atomonly
      stencil: full/bin/3d
      bin: standard
  (3) compute coord/atom, occasional
      attributes: full, newton on
      pair build: full/bin/atomonly
      stencil: full/bin/3d
      bin: standard
  (4) compute cluster/atom, occasional
      attributes: full, newton on
      pair build: full/bin/atomonly
      stencil: full/bin/3d
      bin: standard
Per MPI rank memory allocation (min/avg/max) = 9.822 | 9.827 | 9.833 Mbytes
Step Temp PotEng c_msd[4] v_twopoint v_fit v_max_n 
   12000    1.2712369   -3.3496372            0            0 8.3333333e+20            1 
   13000     1.245716     -3.35164   0.98916106 0.0063407758  0.085104455            2 
   14000    1.2297162    -3.362159    2.0637972  0.012284507  0.087426393            3 
   15000    1.2419157   -3.3614953    3.1173099  0.017318388  0.087471893            2 
   16000     1.221544   -3.3771568    4.1782972  0.021761964  0.087842017            2 
   17000    1.2518469    -3.352305    5.1678124  0.025332413  0.087245805            3 
   18000    1.2374587   -3.3869706    6.3024821  0.029178157  0.087517466            3 
   19000    1.2618218   -3.3750562    7.4233535  0.032558567  0.088314439            1 
   20000    1.2359757   -3.3752738    8.4982454  0.035409355  0.088615428            3 
   21000    1.2384947   -3.3803303    9.5587155   0.03793141   0.08899256            1 
   22000    1.2486822   -3.3574414    10.717512  0.040596636  0.089244956            1 
   23000    1.2505424   -3.4112793    11.643931  0.042188154  0.089368043            2 
   24000    1.2071957    -3.374022    12.658283  0.043952371  0.089140749            3 
   25000    1.2156078   -3.4029016    13.738583  0.045795275  0.088898349            1 
   26000    1.2367123   -3.3891008     14.78473  0.047386954  0.088822391            1 
   27000    1.2109726   -3.3569441    15.918948  0.049132554  0.088819812            1 
   28000     1.236363    -3.362147    17.060077  0.050774039  0.088855196            1 
   29000     1.208723   -3.3942054    18.163186  0.052193062  0.088994291            1 
   30000    1.2242867   -3.3600191    19.239335  0.053442597   0.08910104            2 
   31000    1.2281554   -3.4269937    20.117045  0.054078077  0.089101552            2 
   32000    1.2175357   -3.3628578    21.155473  0.055092378  0.088983518            1 
   33000    1.2255966   -3.4109188    22.138545  0.055905417  0.088750496            2 
   34000    1.1859908   -3.3822271    23.567199  0.057762743  0.088704458            1 
   35000    1.2049592   -3.4128063    24.623258  0.058626803  0.088847281            2 
   36000    1.2096724   -3.4183594    25.467581  0.058952732   0.08896052            2 
   37000    1.2162534     -3.42058    26.590243  0.059887934  0.088977346            2 
   38000    1.2429107   -3.4164787    27.618647  0.060567208  0.088987686            2 
   39000    1.1951218   -3.4269761    28.660326  0.061240012  0.089012199            2 
   40000    1.1986251    -3.412425    29.594549  0.061655309   0.08892122            1 
   41000    1.1989242   -3.4162674    30.432912  0.061855511  0.088772852            4 
   42000    1.1962778   -3.4072653    31.316586  0.062136083  0.088543753            2 
   43000    1.2394579   -3.4238218    32.289609  0.062576761  0.088252964            1 
   44000    1.2215657   -3.4346115    33.164012  0.062810628  0.087946196            2 
   45000    1.2168387   -3.4123798     34.27223  0.063467092  0.087696979            2 
   46000    1.2233623   -3.4069779    35.353448  0.064046101   0.08747129            2 
   47000    1.2128056   -3.4431966    36.214241  0.064209646  0.087210019            3 
   48000    1.1653924    -3.415998    37.195126  0.064574871  0.086999823            1 
   49000    1.1817182    -3.425191    37.798035  0.064282372  0.086746235            2 
   50000    1.1502766   -3.4085652    38.877754  0.064796256  0.086482495            2 
   51000     1.162665   -3.4137347    39.934914  0.065253126  0.086179345            2 
   52000    1.1923809    -3.449879    40.736778  0.065283297  0.085886831            2 
   53000    1.2046921   -3.4397028    41.740616  0.065629898  0.085647438            2 
   54000    1.1599827    -3.402229    42.608177  0.065753359  0.085424704            2 
   55000    1.1355377   -3.4637299    43.751313  0.066289868  0.085203333            2 
   56000     1.159895   -3.4368959    44.499979  0.066220207   0.08500679            1 
   57000     1.173126   -3.4429828    45.439588  0.066432146  0.084763344            2 
   58000    1.1806092   -3.4748342    46.174604  0.066342821  0.084514358            3 
   59000    1.1584562   -3.4580857    46.959597  0.066327114  0.084250103            4 
   60000    1.2046063   -3.4694809    47.963653  0.066616184  0.084012257            1 
   61000    1.1650295   -3.4651955    48.953009  0.066875694  0.083801021            1 
   62000    1.1727192   -3.4524929    49.659495  0.066746633   0.08356742            2 
   63000    1.1607139   -3.4504678    50.550813  0.066866154  0.083348988            5 
   64000    1.1577242   -3.4487043     51.24578  0.066726275  0.083111697            1 
   65000    1.1823165    -3.445902     52.12406  0.066825717  0.082833901            3 
   66000    1.1647289   -3.4693278    53.042933    0.0669734  0.082567494            2 
   67000    1.1702942   -3.4953068    53.730895   0.06682947  0.082319432            2 
   68000    1.1574857   -3.4836896    54.786902  0.067140811  0.082087091            3 
   69000    1.1613369   -3.4916598    55.273298   0.06675519  0.081833388            3 
   70000    1.1329453   -3.5154453     56.43737  0.067187345   0.08159331            2 
   71000    1.1481489   -3.4629488    57.676421  0.067695329  0.081373418            2 
   72000    1.1326924   -3.4878668    58.289432   0.06746462  0.081158538            2 
   73000    1.1550919   -3.4654128    59.272164  0.067662287  0.080967576            4 
   74000    1.1469629   -3.5009781    59.969756  0.067533508  0.080797553            2 
   75000    1.1662891   -3.4922084    60.913338  0.067681486  0.080615811            2 
   76000     1.125511   -3.5159074    61.982354  0.067963107  0.080437896            1 
   77000    1.1752453   -3.4981081    62.870754  0.068041941  0.080279183            2 
   78000    1.1526972   -3.5483347    63.445728  0.067783897   0.08011715            2 
   79000    1.1108905   -3.5011235    64.160619  0.067679978  0.079935817            2 
   80000    1.1380959   -3.5057636    64.795767   0.06749559  0.079733524            2 
   81000    1.1231242   -3.5178371    65.409445  0.067293668  0.079534934            1 
   82000     1.142696   -3.5016128    66.159319  0.067235079  0.079318959            2 
   83000    1.1349098   -3.5100537    67.568178  0.067839536  0.079109755            2 
   84000    1.1408802   -3.5352088     68.08648  0.067546111  0.078919323            4 
   85000    1.1246142   -3.5122624    69.032186  0.067678613  0.078736087            2 
   86000     1.126061     -3.52756    69.488512  0.067333829  0.078552804            3 
   87000    1.1273896   -3.5007251    70.780971  0.067797864  0.078380126            3 
   88000    1.1059383   -3.5154332    71.199486  0.067423755  0.078198668            3 
   89000     1.116146   -3.5219163    72.266612  0.067665367  0.078027995            1 
   90000    1.1467101   -3.5272316    73.402083  0.067964892  0.077865689            2 
   91000     1.124158   -3.5217395    73.776971  0.067561329  0.077698186            3 
   92000    1.1293798   -3.4777788    74.722692  0.067683598  0.077532741            2 
   93000    1.1239644   -3.5774232    75.419988  0.067580634  0.077376465            1 
   94000    1.0882983    -3.509866    76.468557  0.067791274  0.077218809            1 
   95000    1.1366445   -3.5277074    77.549216  0.068025628  0.077082922            2 
   96000    1.0969978   -3.5420206    78.735657  0.068346924  0.076964802            2 
   97000     1.114411   -3.5119624     79.46382  0.068267886  0.076853547            3 
   98000    1.1215823   -3.5329325    80.070336   0.06808702  0.076740736            4 
   99000    1.0977649   -3.5340971    80.617638  0.067859964   0.07663004            1 
  100000    1.1131219   -3.5742819    81.509167  0.067924305   0.07652165            2 
  101000    1.1146594    -3.544246    82.359973  0.067953773  0.076400811            1 
  102000    1.1160381   -3.5538493    83.422695  0.068155796  0.076282453            3 
  103000    1.1226369   -3.5610362    84.174809  0.068102596  0.076157908            2 
  104000    1.1017894   -3.5581094     84.44273  0.067662444  0.076031417            3 
  105000    1.0928591   -3.5574804    85.530957  0.067881712  0.075908694            2 
  106000    1.1075205   -3.5616856    86.604869  0.068085588  0.075784398            1 
  107000    1.0969209   -3.5617903     87.25597  0.067956362  0.075664239            4 
  108000    1.0925342   -3.5884115    87.417569  0.067451828  0.075546061            2 
  109000    1.0638001   -3.5595602    88.579798  0.067721558  0.075427916            2 
  110000    1.0935888   -3.5526797    89.381821    0.0677135  0.075300102            2 
  111000    1.0784438   -3.5636191    90.822679  0.068185194  0.075182234            5 
  112000    1.1049369   -3.5679628    90.851693  0.067597986  0.075069537            3 
  113000    1.1090442   -3.5755193    92.123833  0.067937929  0.074964972            3 
  114000    1.0704018   -3.5810976    92.615767  0.067701584  0.074854019            2 
  115000    1.0637183   -3.5850826    92.748814  0.067209286  0.074734373            8 
  116000    1.0838345   -3.6157966    93.540028  0.067198296  0.074603442            1 
  117000    1.0754492   -3.6140211    94.873851  0.067573967  0.074479141            4 
  118000    1.0867667   -3.5789002    95.948006  0.067759891  0.074356277            1 
  119000    1.0665909   -3.5976502    97.117279  0.068009299  0.074251031            2 
  120000    1.0727149   -3.5958535    97.471697  0.067688678  0.074148305            3 
  121000    1.0878101   -3.5976142    98.023939  0.067509599  0.074040682            2 
  122000    1.0980423   -3.6113937    98.264812  0.067120773  0.073931356            2 
  123000     1.073869   -3.6175848    99.568744  0.067458498  0.073830456            3 
  124000     1.078918   -3.6149697    100.42097   0.06748721  0.073727019            2 
  125000    1.0658112   -3.5740114    101.16752  0.067445011  0.073625087            4 
  126000    1.0532595   -3.6261288     101.4041  0.067066206  0.073514196            2 
  127000    1.0636067   -3.6031008    102.33941  0.067151843  0.073399094            1 
  128000     1.076555   -3.5778866    103.26364  0.067228934  0.073294734            3 
  129000    1.0670125   -3.6325645    104.21828   0.06732447  0.073213488            2 
  130000    1.0698989   -3.6299861    105.31546   0.06750991  0.073128142            3 
  131000     1.060199   -3.6136237    106.76569  0.067917107  0.073055704            4 
  132000    1.0685969   -3.6297576     106.4568  0.067207575  0.072978997            2 
  133000    1.0605337   -3.6273192    107.77018  0.067525177  0.072898411            1 
  134000    1.0582895   -3.6335627    107.91874  0.067113642  0.072812986            2 
  135000    1.0187175   -3.6351677    108.99958  0.067283689  0.072734615            1 
  136000     1.036111   -3.6020146    109.99156  0.067396788  0.072660848            6 
  137000      1.06884   -3.6333082    110.84972  0.067426837  0.072576078            3 
  138000    1.0548246   -3.6541537    111.21876  0.067161088  0.072486181            3 
  139000    1.0415656   -3.6042465    111.80723  0.067030712  0.072401563            1 
  140000    1.0505201   -3.6298163    111.73066  0.066506342  0.072295456            1 
  141000      1.03571   -3.6276121    112.90905  0.066731116  0.072186106            2 
  142000    1.0485162   -3.6376587    113.41008  0.066555209  0.072079589            1 
  143000    1.0172082    -3.648495    113.87607  0.066361346  0.071972359            3 
  144000    1.0394934   -3.6420254    114.54909  0.066289983  0.071857005            2 
  145000    1.0435482   -3.6742275    115.00638  0.066095619  0.071739938            2 
  146000    1.0507071   -3.6340801    115.58782  0.065974783  0.071613556            2 
  147000    1.0408773   -3.6762404    115.64698  0.065559511   0.07148131            9 
  148000    1.0252171   -3.6692343    116.08814  0.065364944  0.071341911            2 
  149000    1.0326763   -3.6500825    117.10446  0.065494662  0.071203052            2 
  150000    1.0286652   -3.6518029    117.30517  0.065169538  0.071067694            2 
  151000    1.0193748   -3.6187074    118.27245  0.065271771  0.070930147            1 
  152000    1.0208206   -3.6622076    118.50897  0.064972024  0.070786802            2 
  153000    1.0470343   -3.6630308    118.94649  0.064785672  0.070639154            2 
  154000     1.030464   -3.6725958    119.55884  0.064696342  0.070490618            1 
  155000    1.0011569   -3.6689739    120.35033  0.064704479  0.070343792            4 
  156000    1.0059644    -3.667796    120.84796  0.064555536  0.070196284            3 
  157000   0.99590525   -3.6562307    121.45674  0.064467482  0.070052951            4 
  158000    1.0220084   -3.6342335    123.08132   0.06491631  0.069913052            1 
  159000     1.020051   -3.7068144    123.14391  0.064540832  0.069772681            3 
  160000   0.99682504   -3.6795178    123.55159  0.064349786  0.069635697            2 
  161000    1.0141283   -3.6779662    124.39931  0.064388878  0.069499314            2 
  162000    1.0217851   -3.6914916    124.76333  0.064178666  0.069361255            2 
  163000    1.0444138   -3.6837377     125.1307  0.063972752  0.069224478            7 
  164000    1.0153386   -3.6661295     125.6834  0.063863514  0.069090262            3 
  165000    1.0002576   -3.6878682    126.16027  0.063717307  0.068951863            8 
  166000    1.0010679   -3.6696348    127.22236  0.063866645  0.068816191            2 
  167000     1.021872   -3.7196344    127.41238  0.063579034  0.068683042            4 
  168000    1.0022827   -3.6909463     128.4381  0.063709374  0.068551392            3 
  169000   0.98790862   -3.6940993    129.16056  0.063688638  0.068425527            1 
  170000   0.99645069   -3.6983201    130.02971  0.063740053  0.068301487            3 
  171000   0.99762934   -3.7027106    130.87939  0.063781378  0.068174767            4 
  172000    1.0047021   -3.7342247    131.00143  0.063469684  0.068051179            8 
  173000   0.98557255   -3.7292231    131.88649  0.063529138  0.067927747            2 
  174000    1.0037444    -3.734401    132.32863  0.063375779  0.067806673            3 
  175000   0.96958589   -3.7076306    133.10023  0.063381062  0.067684356            3 
  176000    1.0062264   -3.7228934    133.96576  0.063430757  0.067561943            2 
  177000     1.001783   -3.7346397    134.32395  0.063241032  0.067437877            3 
  178000   0.96916798   -3.7141322    134.97814  0.063192014  0.067316576            2 
  179000   0.94900909   -3.7159855    135.93174  0.063282934  0.067199121            2 
  180000   0.98715296   -3.7292043    135.17051  0.062578938  0.067073386            1 
  181000   0.98262541   -3.7378578    135.64587  0.062452056  0.066941269            4 
  182000   0.97644561   -3.7521881     136.1781  0.062352607  0.066807898            3 
  183000   0.96897816    -3.740783    137.33912  0.062540584  0.066680336            2 
  184000   0.99184744   -3.7167049    137.82015  0.062418546   0.06655689            3 
  185000   0.97059426   -3.7476926    138.61744  0.062440288  0.066432349            5 
  186000   0.95012579   -3.7628788    138.56583  0.062081465  0.066305991            3 
  187000   0.98509544   -3.7432841    139.73274  0.062269493  0.066181933            2 
  188000   0.97032567    -3.769677    139.52698  0.061847067  0.066059695            3 
  189000   0.99117873   -3.7308479    140.40268  0.061905943  0.065934403            5 
  190000   0.97734167   -3.7295453    141.80688  0.062195999  0.065807865            6 
  191000    0.9498588   -3.7585687     141.6515  0.061802574  0.065682577            4 
  192000   0.94950216   -3.7597506    141.92301   0.06159853  0.065556898            6 
  193000   0.97042974    -3.752291    142.49515  0.061526405  0.065427428            4 
  194000   0.94936832   -3.7763382    142.69101  0.061293391  0.065295896            4 
  195000   0.94226668   -3.7622576    143.87028  0.061483027  0.065167124            3 
  196000   0.96124359   -3.7418767    144.09625  0.061265411  0.065040841            2 
  197000   0.94278383   -3.7772683    144.23467  0.061012974  0.064911433            4 
  198000   0.94925809   -3.7421996    145.07969  0.061060475  0.064786143            4 
  199000   0.94934119   -3.7800691    145.85762  0.061079406  0.064664554            5 
  200000   0.95498715    -3.805198    146.28439  0.060951829  0.064538437            8 
  201000   0.97463616   -3.7716303    147.31247  0.061074822  0.064416147            2 
  202000   0.95289272   -3.7550891    147.64719  0.060910556  0.064297017            3 
  203000   0.92362958   -3.7890331    148.01284  0.060760606  0.064176011            2 
  204000   0.94755071   -3.8027893    148.56171  0.060686973  0.064055286            8 
  205000   0.91729795   -3.7958545    148.78312  0.060480943  0.063936624            3 
  206000    0.9284616   -3.8332916    149.69626  0.060556739   0.06381674            1 
  207000   0.93616638   -3.8005014    149.74448  0.060283608  0.063698987            3 
  208000   0.94807946   -3.8227149    150.83895  0.060432271   0.06358497            4 
  209000   0.93649913   -3.8272265    151.45366  0.060388222  0.063473029            4 
  210000   0.92297366   -3.8297324    151.92976  0.060289587  0.063365073            4 
  211000   0.93375402   -3.8104056    153.47404  0.060613758  0.063259281            5 
  212000   0.93623882   -3.7819154    154.18642  0.060607869  0.063159831            2 
  213000   0.93045266   -3.8005003    154.92911  0.060613894  0.063062737            3 
  214000   0.93397219   -3.8045868     154.5744  0.060192524  0.062964294            5 
  215000   0.91842786   -3.8026696    155.20079  0.060155343  0.062865485            2 
  216000   0.93394559   -3.8187321    155.94149  0.060162612  0.062763344            5 
  217000    0.9195235   -3.8217632    155.88228  0.059862627  0.062658862            2 
  218000   0.91369272   -3.8114999     156.6468  0.059880274  0.062553131            3 
  219000   0.90061269   -3.8316153    156.87741  0.059694599  0.062447752            3 
  220000   0.92270163    -3.790565    158.01355  0.059853616   0.06234233            3 
  221000   0.91327952    -3.866435    158.02349  0.059586536  0.062237581            3 
  222000    0.9338725   -3.8309613    158.57646  0.059525699  0.062135249            5 
  223000   0.90301809   -3.8676371    158.84172  0.059357891    0.0620299            1 
  224000   0.90885351   -3.8581438    159.43693  0.059314334   0.06192263            3 
  225000    0.9015933   -3.8549439    159.54962  0.059092451  0.061812613            3 
  226000   0.91899248   -3.8558496     160.0339  0.059009549  0.061704892            3 
  227000   0.90107297   -3.8432078     160.5933  0.058954955  0.061599522            4 
  228000   0.90315223   -3.8578814     161.7012  0.059101315  0.061495382            4 
  229000   0.89402186   -3.8777774    161.36673  0.058721519   0.06139017            3 
  230000   0.90398252    -3.854495    161.94072  0.058674173  0.061282136            3 
  231000   0.90380348   -3.8406844    162.27332  0.058540157  0.061172565            5 
  232000   0.93289061    -3.843107    163.14793  0.058601987  0.061063815            6 
  233000   0.90285207   -3.8496622    163.72461  0.058556727  0.060956813            3 
  234000    0.8947197    -3.835472    163.51133  0.058230529  0.060846788            4 
  235000   0.91367947   -3.8625969    164.53373  0.058345293  0.060740166            2 
  236000   0.92085396   -3.8652197     165.3682  0.058392724   0.06063864            3 
  237000   0.90040882   -3.8908847    165.48925  0.058188907  0.060532972            3 
  238000   0.90163342   -3.8748021    165.36951  0.057902488  0.060430395            5 
  239000   0.88417143   -3.8726933    165.81922  0.057817021  0.060322841            3 
  240000   0.89394426   -3.8634941    167.30329   0.05809142  0.060216439            3 
  241000   0.87754363   -3.8805927    166.77168  0.057666556  0.060109198            3 
  242000    0.8706433   -3.9030907     167.7734  0.057773208   0.06000229            2 
  243000   0.87244564   -3.9033027    167.48109  0.057435217  0.059897076            3 
  244000   0.89073592   -3.8901008     168.0488  0.057393717  0.059791214            3 
  245000   0.87347759   -3.9422167    168.22724   0.05722015   0.05968496            3 
  246000   0.87920233   -3.8982027    168.98026  0.057242634  0.059579005            8 
  247000   0.88993464   -3.8930854    169.73544  0.057265669  0.059474842            4 
  248000   0.87423316   -3.9038235    169.82469  0.057064749  0.059371305            2 
  249000   0.86860105   -3.9080141    170.57179  0.057085604  0.059267266            2 
  250000   0.85880467   -3.9329298      171.028  0.057009335  0.059162592            4 
  251000   0.84940235   -3.9230693    171.00941  0.056776031  0.059057217            4 
  252000   0.86402492   -3.9353501    171.58685  0.056741683  0.058950859            4 
  253000   0.85785051   -3.9315228    171.90352  0.056621711  0.058847159            4 
  254000   0.85777255   -3.9540087    172.04893  0.056446499  0.058739611            5 
  255000   0.85369396   -3.9107493    173.31814  0.056639915  0.058633702            2 
  256000   0.87148316   -3.9513683    172.86865  0.056272348  0.058528236            4 
  257000   0.85402176   -3.9158459    173.49652  0.056256977  0.058425026            4 
  258000    0.8499276   -3.9499963    174.16376  0.056254445  0.058319272            4 
  259000   0.85187182   -3.9340785    174.86276  0.056262149  0.058213105            6 
  260000   0.85103921   -3.8934186    175.00583  0.056091611  0.058107219            3 
  261000   0.85185925   -3.9172681     175.1441  0.055920848  0.058001954            4 
  262000   0.84432666   -3.9459067    175.64371  0.055866321   0.05789574            3 
  263000   0.84604533   -3.9525296    175.88849  0.055731461  0.057789175            8 
  264000   0.85464363    -3.945896    176.28582  0.055645775  0.057683489            5 
  265000   0.83700667   -3.9444756    176.79103  0.055594662  0.057574531            3 
  266000   0.84076648   -3.9488156    176.65353  0.055342583  0.057467149            4 
  267000   0.84721332   -3.9481721    177.56938  0.055421156  0.057359864            5 
  268000   0.83256992   -3.9645595    177.37286  0.055153253  0.057252379            5 
  269000    0.8596437   -3.9474713    177.94889  0.055126671   0.05714386            7 
  270000   0.84467556   -3.9412104    178.27633  0.055023559  0.057036808            4 
  271000   0.83480134    -3.967605    178.73272   0.05496086  0.056928369            3 
  272000   0.83422115   -3.9534334    179.12521  0.054879046  0.056819088           10 
  273000    0.8311082   -3.9777181    178.98231  0.054634406  0.056709795            6 
  274000   0.82981192   -3.9806708    180.35465  0.054852386  0.056601584            4 
  275000   0.83786839   -3.9813702    179.68945  0.054451348  0.056493746            8 
  276000   0.84095905   -3.9851183    180.05186  0.054363483  0.056384824            4 
  277000   0.82751703   -3.9969954     180.0696  0.054172564    0.0562746            8 
  278000   0.82452457   -4.0009241    180.64953  0.054151539  0.056165955            6 
  279000   0.81195199   -3.9942511    180.82658   0.05401033  0.056057592            7 
  280000   0.83571121   -3.9777678    181.27765   0.05395168  0.055949589            6 
  281000   0.81117414   -3.9904791    181.47889  0.053819363  0.055840982            5 
  282000   0.82981392   -3.9863889    181.79762  0.053722701  0.055730397            5 
  283000    0.8247703   -3.9994497    182.07454   0.05361441  0.055619357            7 
  284000    0.8002485   -4.0011361    182.74155  0.053621346  0.055508553            6 
  285000   0.81027987   -3.9889339    182.85556  0.053466538  0.055399799            6 
  286000   0.82837391   -3.9968073    183.76193  0.053543687  0.055292107            5 
  287000   0.80529787   -4.0186722    183.84302  0.053380669  0.055184626            3 
  288000   0.80920655   -4.0059679    184.32357  0.053334367  0.055078496            5 
  289000   0.81447805   -4.0259608    184.31812  0.053148246  0.054973117            5 
  290000   0.79826341   -4.0453748    184.60308  0.053046863  0.054867679            3 
  291000   0.80039764    -4.037448     185.5333  0.053130955  0.054760886           10 
  292000   0.79909115    -4.031257    185.19413  0.052852207  0.054655947            3 
  293000   0.80981279   -4.0350431    185.49571  0.052757596  0.054548051            4 
  294000   0.79522505   -4.0228375    186.07037  0.052741035   0.05444076            4 
  295000   0.79301566   -4.0428698    185.82151  0.052491952  0.054331979            5 
  296000    0.7879538   -4.0128085    186.52619  0.052513003  0.054223615            5 
  297000   0.79317765   -4.0312942    186.98402  0.052464652   0.05411558            5 
  298000   0.78191214   -4.0223115    187.30965  0.052379656  0.054007702            4 
  299000   0.79228522   -4.0256449    187.33188  0.052210668  0.053901196            3 
  300000   0.77255868   -4.0552688    187.24217  0.052011714   0.05379168            7 
  301000   0.77363015   -4.0403162    187.36984  0.051874264  0.053682034            8 
  302000   0.78925554   -4.0388401    188.07178  0.051896188  0.053571458            6 
  303000   0.78192361   -4.0279342    188.23003  0.051768435   0.05346234            3 
  304000   0.78092187   -4.0756137    187.54646  0.051410763  0.053352266            3 
  305000   0.80140661   -4.0464878    188.50227  0.051503353  0.053242727            9 
  306000   0.77949356   -4.0726224    188.68178  0.051383927  0.053133102            4 
  307000     0.779872   -4.0665066    188.64051   0.05120535  0.053023128            6 
  308000     0.774023   -4.0825337    189.55245  0.051285835  0.052914868            7 
  309000   0.75206471   -4.0800465    189.54389  0.051117554   0.05280606            8 
  310000   0.79265362   -4.0751207    189.49743   0.05094017  0.052696194            5 
  311000   0.78264323   -4.0738927    190.43132  0.051026614  0.052588537            3 
  312000   0.77337283   -4.0886624    190.20151  0.050801685  0.052479151            3 
  313000   0.76518698   -4.0777414    190.52745  0.050726159  0.052370829            6 
  314000   0.76664301    -4.056567    190.64083  0.050594701  0.052262292            4 
  315000   0.76841286   -4.0927893    191.08707  0.050552136   0.05215331            7 
  316000   0.75600622   -4.0734913     191.7265  0.050560785  0.052044703            4 
  317000   0.75711357   -4.0676351    192.02042  0.050478554  0.051934585            4 
  318000   0.76997508   -4.1012417    191.78903  0.050259179  0.051824954            6 
  319000   0.75983044   -4.0910104    191.64076  0.050062894  0.051714839            9 
  320000   0.76266981   -4.0901235     192.0944  0.050024584   0.05160519            6 
  321000    0.7435086    -4.098453    191.82597  0.049799057  0.051495481            3 
  322000   0.74677495    -4.106781    191.94303  0.049674698  0.051384903            5 
  323000   0.74601485   -4.1036984    192.74553   0.04972795  0.051273528            5 
  324000   0.74982426   -4.1133639    193.02589  0.049646577  0.051162259            4 
  325000   0.75445174   -4.0917161    193.02811  0.049494387  0.051051566            4 
  326000   0.75262597   -4.0988556     193.2236  0.049392536  0.050940418            4 
  327000   0.72895239   -4.1225674    193.57276   0.04933047  0.050829898            6 
  328000   0.73822673   -4.1283017    194.56707  0.049432689  0.050720981           10 
  329000   0.75032246   -4.0990177    194.13947  0.049174132  0.050610225            7 
  330000   0.73200297   -4.1289227    193.90044  0.048964756  0.050500604            6 
  331000   0.75006201   -4.1652242    194.09945  0.048866931  0.050390839           10 
  332000   0.74771626   -4.1478434    193.88813  0.048666699  0.050280498            8 
  333000   0.74086075   -4.1076474    195.28755  0.048870759  0.050171959            6 
  334000   0.72928924   -4.1378134    195.42887  0.048759698   0.05006349           18 
  335000   0.72645194   -4.1472636    195.18257  0.048552879  0.049955458            7 
  336000   0.73776682   -4.1325461    195.60712  0.048513671  0.049848186           16 
  337000   0.73787744   -4.1368132    195.97626  0.048460993  0.049740623            6 
  338000   0.73372627   -4.1470479    195.86772  0.048290859  0.049633154            9 
  339000   0.72506228   -4.1749519    196.29299  0.048252948  0.049525202            9 
  340000   0.72612599   -4.1705112    196.50546  0.048163102  0.049417686            5 
  341000   0.71611436   -4.1702025    196.68465  0.048065653  0.049310703            5 
  342000   0.71346334   -4.1807647     197.1206  0.048031335  0.049204337            9 
  343000   0.72204956   -4.1593662    197.18727    0.0479075   0.04909882            3 
  344000   0.71935547   -4.1590796    197.24328  0.047781803  0.048992687            6 
  345000   0.70215782   -4.1924207    196.73315  0.047520085  0.048885093            3 
  346000   0.71785905    -4.175581     197.7943  0.047638318  0.048779256            9 
  347000   0.70522763   -4.1926417    198.36165  0.047637284  0.048673746            8 
  348000   0.70838126    -4.196269    198.28409  0.047481823  0.048568718            3 
  349000   0.70977841   -4.1941906    198.05678  0.047291495  0.048463024            5 
  350000   0.72438484   -4.1931803    197.91834  0.047123414   0.04835748            5 
  351000   0.71780199    -4.184283    198.49612  0.047126335  0.048251985           10 
  352000   0.71614864    -4.210671    198.83271  0.047072139   0.04814698           13 
  353000   0.70692974   -4.2020201    199.26544  0.047040944  0.048040759           10 
  354000    0.6968882   -4.2140485    198.44076  0.046713926  0.047935355            7 
  355000   0.70043715   -4.1982106    198.34214  0.046559189  0.047829339            8 
  356000   0.69940583   -4.2064688    198.73077  0.046519374  0.047722486            4 
  357000   0.68390026   -4.2109193    199.07473  0.046469359  0.047615925            5 
  358000   0.68854529   -4.2063623    199.35704   0.04640527  0.047509254            6 
  359000   0.68449363    -4.230605    199.76161  0.046369918   0.04740351            6 
  360000   0.69506223   -4.2215821    200.14284  0.046329361  0.047297561            7 
  361000   0.70787876    -4.223462    199.99479  0.046166849  0.047191343            6 
  362000   0.68569699   -4.2353597    200.65278  0.046190787  0.047086708            4 
  363000   0.68126023   -4.2396997     200.0826  0.045932645  0.046981668            5 
  364000   0.67444942   -4.2261595    200.29252  0.045854515  0.046876856            5 
  365000   0.69040607   -4.2281567     200.2375  0.045716324  0.046770792            9 
  366000   0.68156131   -4.2604901    200.45583  0.045641128  0.046664155            6 
  367000   0.68720024   -4.2373917    200.75293  0.045584227  0.046557655            5 
  368000   0.69259255   -4.2485202    200.34128  0.045367138  0.046450807            5 
  369000   0.67368544   -4.2455721    200.84284  0.045357461  0.046344061            6 
  370000   0.67896483   -4.2800835    200.37234  0.045128906  0.046237304            7 
  371000   0.66941901   -4.2344137    201.00717  0.045149859  0.046130536            6 
  372000   0.67089182   -4.2365098    200.96874   0.04501988    0.0460248            4 
  373000   0.69081829    -4.240363    201.59725    0.0450396  0.045918626            9 
  374000   0.66804939   -4.2477571    201.03307  0.044793465  0.045812667            4 
  375000   0.66710959   -4.2461161    201.06724  0.044681609  0.045707113            6 
  376000   0.65224164    -4.248011    201.59529  0.044679807  0.045601683            6 
  377000   0.67185451   -4.2580378    201.53312  0.044547551  0.045496766            9 
  378000   0.64017531   -4.2739965    201.80296  0.044489188  0.045391619           16 
  379000    0.6763951   -4.2657139     201.7858  0.044368029  0.045286587            5 
  380000   0.65655001   -4.2795798    201.84826   0.04426497  0.045182239            7 
  381000    0.6679791   -4.2785471    201.88531  0.044156892  0.045077107            5 
  382000   0.65770194   -4.2684499    202.70025  0.044219078  0.044973127            6 
  383000   0.65917866   -4.2887867    202.64227  0.044091008  0.044869474            5 
  384000   0.64377336   -4.2974072    202.25981  0.043893189  0.044765253            5 
  385000   0.63503154   -4.3031215    202.99991  0.043939374  0.044660784            7 
  386000    0.6548566   -4.2920025    202.94128  0.043812884  0.044557207           18 
  387000   0.64756413   -4.2758309     203.2495  0.043766042  0.044454359           11 
  388000   0.64323706     -4.29028    203.26295  0.043656133  0.044351695            8 
  389000   0.64122684   -4.2938957    203.49323  0.043593236  0.044249388            4 
  390000   0.65412363   -4.2894101     203.7849  0.043543782  0.044146822           12 
  391000   0.64539131    -4.309094    203.48513  0.043368526  0.044045352           11 
  392000   0.65610868   -4.3193345    203.61238  0.043284944  0.043943957            5 
  393000   0.64063462   -4.3391436    203.06364  0.043058448  0.043842118           13 
  394000   0.64414187   -4.3227987    203.98371  0.043143762  0.043740499            5 
  395000   0.63796932   -4.3321067     203.8587  0.043008165  0.043639093           13 
  396000   0.63994129   -4.3432343    204.10697  0.042951803   0.04353753            7 
  397000   0.63428515   -4.3321714    204.27886  0.042879694  0.043436651           12 
  398000   0.62925316   -4.3402986    204.24235   0.04276431  0.043336312            8 
  399000   0.64610433    -4.367381    204.39421   0.04268885  0.043235262            8 
  400000   0.63899341   -4.3383607    204.77213  0.042660861  0.043133774            5 
  401000    0.6343169   -4.3597866    204.37178  0.042471276  0.043033082            5 
  402000   0.64863687    -4.369064    204.08602  0.042306389  0.042931855            9 
  403000   0.62249325   -4.3466976    204.23277  0.042231756  0.042830226            8 
  404000   0.62254729   -4.3613323    204.91772  0.042268506  0.042729504           12 
  405000    0.6039572   -4.3544132    205.29324  0.042241407  0.042629822           15 
  406000   0.60688737   -4.3615298    204.92418  0.042061613  0.042530139            8 
  407000   0.63327069   -4.3526007    204.88856  0.041950974  0.042431085           14 
  408000   0.60584832   -4.3586046      205.363  0.041945057  0.042332253           15 
  409000   0.59831062   -4.3678104    205.56845  0.041884361  0.042234073           12 
  410000   0.62360566   -4.3689833    205.38458  0.041744833  0.042135878           12 
  411000   0.62025934   -4.3728436     206.0374  0.041775628  0.042037714            8 
  412000   0.60589382   -4.3807072    206.31377  0.041730131  0.041940073            9 
  413000    0.5934241   -4.4097191    205.78691  0.041522783  0.041842576            6 
  414000     0.620288   -4.3784664    206.28214   0.04152217  0.041745256            6 
  415000   0.61168315    -4.399779    206.69025  0.041504065  0.041648826            9 
  416000   0.59895398   -4.3844286    205.98673  0.041263368  0.041551617           11 
  417000   0.59779186   -4.3995351    206.16685  0.041200409  0.041455291            7 
  418000   0.59055347     -4.40371    206.44901  0.041158095  0.041358687            7 
  419000   0.60887464   -4.3855108    206.13092  0.040996602  0.041262301            9 
  420000   0.59246468   -4.4068739    206.90688  0.041052953  0.041165964           10 
  421000   0.58816405   -4.4047376    206.94329  0.040962646  0.041070251           10 
  422000   0.58856114   -4.4252647    206.18994  0.040716814  0.040974285            9 
  423000   0.59436265    -4.424952     206.1013  0.040603092  0.040877745           11 
  424000   0.58931768   -4.4253269    205.99443  0.040486327   0.04078107           20 
  425000   0.59396278   -4.4273564    206.45764   0.04048189  0.040684414           17 
  426000   0.58902296   -4.4132358    206.62548  0.040419695   0.04058807           10 
  427000   0.59107509   -4.4217247     206.5407   0.04030849  0.040491494           11 
  428000   0.57592204   -4.4438446    206.49818  0.040206031  0.040394972            9 
  429000   0.58585146    -4.425342    207.03332  0.040216263  0.040299041            9 
  430000   0.58268099   -4.4368337    207.28576  0.040171659  0.040203613           13 
  431000   0.57372483    -4.447589    207.24767  0.040071089  0.040108025            8 
  432000   0.58437231   -4.4394422    207.40443  0.040008571  0.040012704           18 
  433000   0.56684562   -4.4599888    206.72603   0.03978561  0.039917011           19 
  434000   0.56943817   -4.4498344    207.37563  0.039818669  0.039821559            8 
  435000   0.55610576   -4.4497489    207.34751  0.039721745  0.039726423           19 
  436000   0.57550266   -4.4511054    207.23862  0.039609829  0.039631353           14 
  437000   0.57204321   -4.4495987    207.30426  0.039531704  0.039537237           12 
  438000   0.56236231   -4.4464086    207.29717    0.0394401  0.039442779            7 
  439000   0.56882381   -4.4648134    207.55695  0.039399573  0.039348485           10 
  440000   0.56024131    -4.480674    206.86731  0.039179415  0.039254706           36 
  441000   0.56164232   -4.4805192    207.75182  0.039257714  0.039160963           13 
  442000   0.57230177   -4.4905246     207.6063  0.039141459  0.039067929           14 
  443000   0.57338773   -4.4771603    207.96816  0.039121174  0.038975189            9 
  444000    0.5634995   -4.4684542    208.14605  0.039066451  0.038883066           13 
  445000   0.55102859   -4.4888407    207.75556  0.038905535  0.038790427           16 
  446000   0.55303166   -4.4792674    207.96708  0.038857826  0.038698234           14 
  447000    0.5575738   -4.4815418    208.41982  0.038855298  0.038606034           10 
  448000   0.54359927   -4.4897867    207.77547  0.038648711   0.03851409           12 
  449000   0.54743187   -4.5054181    207.68631  0.038546085  0.038422043           13 
  450000   0.55458898   -4.5019364    208.08258  0.038533811  0.038329908           25 
  451000   0.55019696   -4.4989774    208.49635  0.038524824    0.0382382           15 
  452000    0.5535975   -4.4963651     208.4553  0.038432024  0.038146404           19 
  453000    0.5471709   -4.5254583     207.9179  0.038248326  0.038055105           15 
  454000   0.54639119   -4.5349191    208.73072  0.038313274  0.037964092            7 
  455000   0.54131737   -4.5206164    208.14061  0.038120991  0.037873148            7 
  456000    0.5361103   -4.5421385    208.04809  0.038020484  0.037781839           10 
  457000   0.53116078   -4.5297613    208.40745  0.038002817  0.037690532           12 
  458000   0.53414555   -4.5468508    208.33644  0.037906921  0.037599579           12 
  459000   0.53227777   -4.5265203    208.43339  0.037841938  0.037508811            8 
  460000   0.54089068   -4.5335443    208.49356  0.037770572  0.037418525            9 
  461000   0.53868083   -4.5378997    209.10506  0.037799179   0.03732861           14 
  462000   0.53228972   -4.5367717    208.01984  0.037521616  0.037238558           10 
  463000   0.52476343   -4.5457434    208.65721  0.037555294  0.037148784            6 
  464000   0.51530076   -4.5341932     208.8929  0.037516685  0.037059901           20 
  465000   0.52649737   -4.5459465    208.37207  0.037342664   0.03697098           10 
  466000   0.52841833   -4.5419957    208.78004  0.037335486  0.036881829           14 
  467000   0.53039971   -4.5486397    208.43525  0.037194014  0.036793082           10 
  468000   0.53316686   -4.5259399    208.50899  0.037127669  0.036704119            9 
  469000   0.53111061   -4.5424799    208.87191   0.03711299  0.036615621            8 
  470000   0.51551828   -4.5448527    209.07195  0.037069495  0.036526485            9 
  471000   0.51954307   -4.5778255    208.49806  0.036889254  0.036437206           12 
  472000   0.51845069   -4.5609862    208.47435  0.036806911  0.036348226           29 
  473000   0.50874385    -4.572448     208.3456  0.036706412  0.036259298           21 
  474000   0.50975353   -4.5765335    208.52323  0.036660203   0.03617039           26 
  475000   0.50670333   -4.5685016    208.28879  0.036541894  0.036081608           22 
  476000   0.50462596   -4.5859407    208.13413  0.036438048  0.035992598           21 
  477000   0.50419017   -4.5998007    208.25179  0.036382213  0.035903495           24 
  478000    0.5058935   -4.5887272    207.99783  0.036261826  0.035814731           16 
  479000   0.50044261   -4.5787495    208.26742  0.036233023  0.035726117           26 
  480000   0.50651251   -4.5956714    208.46039  0.036191039  0.035637933           10 
  481000   0.49564347   -4.5847422    208.58497  0.036137383  0.035550367           17 
  482000   0.50132329   -4.6082813     208.6643  0.036076124  0.035463031           13 
  483000   0.50299048   -4.6159682    208.26292  0.035932181  0.035375598           28 
  484000   0.48207823   -4.6089537    208.53544  0.035904862  0.035288052           23 
  485000   0.48759047   -4.6058148    208.15019  0.035764637  0.035200894           18 
  486000   0.48830489   -4.6206404    208.19881  0.035699385  0.035113814           14 
  487000   0.48602439   -4.6129391    208.13868   0.03561579  0.035027126           16 
  488000   0.48697148    -4.609134    208.24862  0.035561581  0.034940187           11 
  489000   0.48859926   -4.6177869     208.2292  0.035485549  0.034853437           24 
  490000   0.48378588   -4.6406692    208.06443  0.035385106  0.034766739           24 
  491000   0.48567805   -4.6447992    208.05872   0.03531207  0.034680321           24 
  492000   0.47733539   -4.6125006    208.17066  0.035259258   0.03459426           19 
  493000   0.47444432   -4.6085505    208.75719  0.035286881  0.034508253           17 
  494000   0.47935659   -4.6228617    208.59695   0.03518842  0.034422426           20 
  495000   0.48338537   -4.6398895    208.45672  0.035093724  0.034336881           37 
  496000   0.47078728    -4.641845    208.58256  0.035044113  0.034251603           38 
  497000   0.46964569    -4.652367    208.50257   0.03496019  0.034166412           20 
  498000   0.46492954   -4.6496569    208.09743  0.034822194   0.03408126           21 
  499000   0.46786625   -4.6588132    208.47841  0.034816033  0.033996376           23 
  500000   0.46028352   -4.6560732    208.20934  0.034701556  0.033912065           35 
  501000   0.47711104   -4.6582069    208.62797  0.034701924  0.033827843           15 
  502000   0.47096511   -4.6802904    208.50872     0.034613  0.033743538           16 
  503000   0.46157659   -4.6579364    208.31542  0.034512164  0.033659782           18 
  504000   0.46939409    -4.659367    207.93262  0.034380394  0.033576025           27 
  505000   0.45676326   -4.6771286    208.26162  0.034366604  0.033492272           13 
  506000   0.45119927   -4.6899284    208.49731  0.034337502  0.033408547           20 
  507000   0.45219811   -4.6722831     208.4367  0.034259812  0.033325167           21 
  508000   0.46686451   -4.6927674    208.67791  0.034231941  0.033242152           19 
  509000   0.46500274   -4.7043363    207.99374  0.034052675  0.033159216           36 
  510000   0.44871426   -4.6898582    208.14253  0.034010218  0.033076225           50 
  511000   0.45354033    -4.680816    207.86731  0.033898779  0.032993151           26 
  512000   0.45240734    -4.700373    207.92245  0.033841544  0.032910037           33 
Loop time of 1245.05 on 48 procs for 500000 steps with 4000 atoms

Performance: 69394.609 tau/day, 401.589 timesteps/s
99.4% CPU use with 48 MPI tasks x no OpenMP threads

MPI task timing breakdown:
Section |  min time  |  avg time  |  max time  |%varavg| %total
---------------------------------------------------------------
Pair    | 81.888     | 88.346     | 92.844     |  24.9 |  7.10
Neigh   | 8.3053     | 8.6753     | 9.0396     |   5.4 |  0.70
Comm    | 82.931     | 87.199     | 92.946     |  26.7 |  7.00
Output  | 0.86734    | 0.86836    | 0.90132    |   0.5 |  0.07
Modify  | 1042.3     | 1047.4     | 1050.8     |   6.4 | 84.12
Other   |            | 12.59      |            |       |  1.01

Nlocal:        83.3333 ave          90 max          77 min
Histogram: 4 4 0 9 10 4 9 3 3 2
Nghost:        2264.17 ave        2285 max        2234 min
Histogram: 2 1 4 1 6 7 10 8 6 3
Neighs:        15200.7 ave       16632 max       13517 min
Histogram: 1 2 4 6 10 7 6 5 4 3
FullNghs:      30401.4 ave       33167 max       27645 min
Histogram: 2 5 3 7 4 12 3 9 1 2

Total # of neighbors = 1459269
Ave neighs/atom = 364.81725
Neighbor list builds = 27034
Dangerous builds = 0

#clear
#
#next RN
#
#jump SELF
Total wall time: 0:20:48
