
units lj                  # Use reduced LJ style units
atom_style atomic         # Uncharged point particles
atom_modify map hash      # Needed for indexing of clusters etc
                          # Used to be able to find where atoms are in relation to each other.

lattice fcc 1.0 spacing 1 1 1
Lattice spacing in x,y,z = 1.5874011 1.5874011 1.5874011
region box block 0 10 0 10 0 10 units lattice
create_box 2 box
Created orthogonal box = (0.0000000 0.0000000 0.0000000) to (15.874011 15.874011 15.874011)
  3 by 4 by 4 MPI processor grid
create_atoms 1 box
Created 4000 atoms
  using lattice units in orthogonal box = (0.0000000 0.0000000 0.0000000) to (15.874011 15.874011 15.874011)
  create_atoms CPU = 0.002 seconds
set type 1 type/fraction 2 0.47 78393
Setting atom values ...
  1873 settings made for type/fraction
mass 1 1.0
mass 2 1.0
pair_style lj/cut  3.5
pair_modify tail  yes
pair_coeff 1  1  1.0  1.0   # Intearaction between 1 and 1 set with epsilon = 1 and sigma = 1
pair_coeff 1  2  1.5  0.8
pair_coeff 2  2  0.5  0.88

write_data data.0
System init for write_data ...
Neighbor list info ...
  update every 1 steps, delay 10 steps, check yes
  max neighbors/atom: 2000, page size: 100000
  master list distance cutoff = 3.8
  ghost atom cutoff = 3.8
  binsize = 1.9, bins = 9 9 9
  1 neighbor lists, perpetual/occasional/extra = 1 0 0
  (1) pair lj/cut, perpetual
      attributes: half, newton on
      pair build: half/bin/atomonly/newton
      stencil: half/bin/3d
      bin: standard
WARNING: Not all mixed pair coeffs generated from mixing. Use write_data with 'pair ij' option to store all pair coeffs. (../write_data.cpp:312)


#############################
#   M E L T   S Y S T E M   #
#############################

velocity all create 2.4 5300450 mom yes dist gaussian # Assign velocities
                                                    # Temperature 2.4, random number seed, zero linear momentum
                                                                                # Gaussian distribution

timestep 0.002   # simulation timestep
thermo 1000       # output thermodynamic data every 1000 steps bf 100

# Define a fix  in this case with index 1 applied to all
# particles in the simulation. This fix is for simulations
# in the anisotropic NPT ensemble. Note that we use the MTK
# correction.
fix 1 all npt temp 2.4 2.4 0.1 iso 5.68 5.68 0.5 mtk yes tchain 5 pchain 5 # Use NPT ensemble
                                                                         # Set temperature and pressure and damping
                                                                         # Numbers of thermostats in chain and in barostat
run 10000          # run for 10000 steps
Per MPI rank memory allocation (min/avg/max) = 3.642 | 3.644 | 3.648 Mbytes
Step Temp E_pair E_mol TotEng Press Volume 
       0          2.4   -5.4815223            0   -1.8824223   -4.2035566         4000 
    1000    2.3863429   -4.9749684            0    -1.396349    5.6033559    3761.7016 
    2000    2.3636052    -5.001631            0   -1.4571096    5.6592074     3723.448 
    3000    2.4216797   -4.9687009            0   -1.3370894    5.7502087    3737.6793 
    4000    2.4369766   -4.9357657            0   -1.2812146    5.8732486    3748.5598 
    5000    2.4144445   -4.9237551            0   -1.3029938    5.5695815    3778.0089 
    6000    2.4047513    -4.994391            0   -1.3881658    5.8581573    3725.7067 
    7000    2.4093631   -4.9708899            0   -1.3577489    5.7912448    3733.9856 
    8000    2.4407654   -5.0673542            0   -1.4071214    5.5800726    3711.1142 
    9000    2.2986192    -5.021872            0   -1.5748052    5.6476634    3720.2583 
   10000    2.3975907   -4.9328337            0   -1.3373467    5.8690819    3745.5012 
Loop time of 2.58009 on 48 procs for 10000 steps with 4000 atoms

Performance: 669743.810 tau/day, 3875.832 timesteps/s
99.7% CPU use with 48 MPI tasks x no OpenMP threads

MPI task timing breakdown:
Section |  min time  |  avg time  |  max time  |%varavg| %total
---------------------------------------------------------------
Pair    | 1.1616     | 1.2248     | 1.3515     |   3.3 | 47.47
Neigh   | 0.21208    | 0.2206     | 0.23772    |   1.0 |  8.55
Comm    | 0.77216    | 0.87505    | 0.94866    |   4.1 | 33.92
Output  | 0.00023949 | 0.00024476 | 0.00031306 |   0.0 |  0.01
Modify  | 0.20003    | 0.2442     | 0.28472    |   4.9 |  9.46
Other   |            | 0.0152     |            |       |  0.59

Nlocal:        83.3333 ave          93 max          73 min
Histogram: 2 2 3 6 10 5 6 5 7 2
Nghost:        1719.62 ave        1747 max        1674 min
Histogram: 1 2 1 4 2 9 8 9 10 2
Neighs:        10189.7 ave       11522 max        8604 min
Histogram: 2 1 6 3 12 5 4 6 6 3

Total # of neighbors = 489107
Ave neighs/atom = 122.27675
Neighbor list builds = 907
Dangerous builds = 210

# Equilibrate just above the melting temperature to avoid step fn in T

fix 1 all npt temp 1.25 1.25 0.1 iso 5.68 5.68 0.5 mtk yes tchain 5 pchain 5
run 2000
Per MPI rank memory allocation (min/avg/max) = 3.644 | 3.646 | 3.649 Mbytes
Step Temp E_pair E_mol TotEng Press Volume 
   10000    2.3975907   -4.9328337            0   -1.3373467    5.8690819    3745.5012 
   11000    1.2562569   -7.0229759            0   -5.1390617    5.6162826     2949.295 
   12000    1.2469757   -7.1486828            0   -5.2786869    5.4597198    2921.1588 
Loop time of 0.620891 on 48 procs for 2000 steps with 4000 atoms

Performance: 556619.621 tau/day, 3221.178 timesteps/s
99.6% CPU use with 48 MPI tasks x no OpenMP threads

MPI task timing breakdown:
Section |  min time  |  avg time  |  max time  |%varavg| %total
---------------------------------------------------------------
Pair    | 0.26765    | 0.3049     | 0.32896    |   2.8 | 49.11
Neigh   | 0.03844    | 0.042214   | 0.044924   |   0.7 |  6.80
Comm    | 0.19789    | 0.22556    | 0.26875    |   3.7 | 36.33
Output  | 5.0637e-05 | 5.2561e-05 | 6.7993e-05 |   0.0 |  0.01
Modify  | 0.039869   | 0.043398   | 0.04775    |   1.1 |  6.99
Other   |            | 0.004774   |            |       |  0.77

Nlocal:        83.3333 ave          89 max          70 min
Histogram: 1 0 0 2 3 6 11 13 5 7
Nghost:        2030.75 ave        2055 max        2002 min
Histogram: 2 2 4 6 7 6 9 5 5 2
Neighs:        13081.2 ave       14701 max       10765 min
Histogram: 1 1 1 5 9 10 6 5 5 5

Total # of neighbors = 627896
Ave neighs/atom = 156.97400
Neighbor list builds = 143
Dangerous builds = 9

#############################
# L I N E A R  Q U E N C H  #
#############################

# Define solid atoms. This closely follows ten Wolde  Ruiz-Montero and Frenkel  Faraday Discuss  1996  104  93-110
# Compute components of the per-atom q6 vector
compute q6 all orientorder/atom degrees 1 6 components 6 nnn NULL cutoff 1.3 # compute the Q6 parameter.
                                                                             # Use all neighbours within 1.3 unit cell.

# get number of connections
compute coord_number all coord/atom orientorder q6 0.5

# An atom is solid if it has 8 or more connections (of a possible 14)
variable is_solid atom c_coord_number>=8
group solid dynamic all var is_solid    # Must be dynamic to update
dynamic group solid defined

# do clustering
compute cluster solid cluster/atom 1.3 # Create a cluster where all atoms within are solid and max 1.3 units from another member

# define chunks one chunk per cluster
compute clus_chunks solid chunk/atom c_cluster nchunk every compress yes  # Says which atoms are in which chunk

# count the size of each chunk
compute size_chunks solid property/chunk clus_chunks count


# Find the maximum entry in the vector of chunk sizes
variable max_n equal max(c_size_chunks)


# Thermo style which includes this variable
# thermo_style custom step temp pe vol v_max_n

thermo ${N}  # Print the thermo information every 100 steps
thermo 1000  

# Reset the npt fix at a lower temperature (below freezing)
fix 1  all npt temp  ${temp} ${temp}  0.1  iso  5.68  5.68  0.5  mtk yes tchain  5  pchain  5
fix 1  all npt temp  0.45 ${temp}  0.1  iso  5.68  5.68  0.5  mtk yes tchain  5  pchain  5
fix 1  all npt temp  0.45 0.45  0.1  iso  5.68  5.68  0.5  mtk yes tchain  5  pchain  5

dump dmp2 all dcd ${N} traj.dcd
dump dmp2 all dcd 1000 traj.dcd


compute msd all msd com yes
variable twopoint equal c_msd[4]/6/(step*dt+1.0e-6)
fix 9 all vector 10 c_msd[4]
variable fit equal slope(f_9)/6/(10*dt)
thermo_style custom step temp pe c_msd[4] v_twopoint v_fit v_max_n

fix 1 all npt temp 1.25 ${temp} 0.1 iso 5.68 5.68 0.5 mtk yes tchain 5 pchain 5
fix 1 all npt temp 1.25 0.45 0.1 iso 5.68 5.68 0.5 mtk yes tchain 5 pchain 5
run 5000000 # 5000000  # Run for this many steps
Neighbor list info ...
  update every 1 steps, delay 10 steps, check yes
  max neighbors/atom: 2000, page size: 100000
  master list distance cutoff = 3.8
  ghost atom cutoff = 3.8
  binsize = 1.9, bins = 8 8 8
  4 neighbor lists, perpetual/occasional/extra = 1 3 0
  (1) pair lj/cut, perpetual
      attributes: half, newton on
      pair build: half/bin/atomonly/newton
      stencil: half/bin/3d
      bin: standard
  (2) compute orientorder/atom, occasional
      attributes: full, newton on
      pair build: full/bin/atomonly
      stencil: full/bin/3d
      bin: standard
  (3) compute coord/atom, occasional
      attributes: full, newton on
      pair build: full/bin/atomonly
      stencil: full/bin/3d
      bin: standard
  (4) compute cluster/atom, occasional
      attributes: full, newton on
      pair build: full/bin/atomonly
      stencil: full/bin/3d
      bin: standard
Per MPI rank memory allocation (min/avg/max) = 9.832 | 9.840 | 9.844 Mbytes
Step Temp PotEng c_msd[4] v_twopoint v_fit v_max_n 
   12000    1.2469757   -7.1486828 1.5053438e-30 1.0453776e-32 8.3333333e+20            2 
   13000    1.2612427   -7.1402656   0.45816965 0.0029369848  0.037585843            4 
   14000    1.2841107   -7.1439142   0.87065545 0.0051824727  0.035207642            1 
   15000    1.2724478   -7.1260906    1.3207568 0.0073375375  0.035549298            1 
   16000    1.2741993   -7.0865443    1.8011202 0.0093808341  0.036271406            1 
   17000    1.2395736   -7.1498969    2.2641203  0.011098629  0.037318425            2 
   18000    1.2636817   -7.1509937    2.6827021  0.012419917  0.037535311            1 
   19000    1.2458541   -7.1289033    3.1804531  0.013949355  0.037605134            1 
   20000    1.2201423   -7.1423483     3.580642  0.014919341  0.037680096            1 
   21000    1.2704088   -7.1361863    4.0404094   0.01603337  0.037525696            3 
   22000    1.2573382    -7.126055    4.4272097  0.016769733  0.037350303       -1e+20 
   23000    1.2307506   -7.1294134    4.8382712  0.017529968  0.037103939            6 
   24000    1.2557518   -7.1252053    5.2234638  0.018137027  0.036720885            2 
   25000    1.2267872   -7.1501586    5.6312994  0.018770998  0.036521777            5 
   26000    1.2324316   -7.1252888    6.0858999  0.019506089  0.036302292            2 
   27000    1.2576543   -7.1182061    6.5724624  0.020285377  0.036183147            2 
   28000    1.2505958   -7.1403787    6.9539486  0.020696275  0.036121535            1 
   29000    1.2594154   -7.1598079    7.4677895  0.021459165  0.036164514            2 
   30000    1.2143369   -7.1866661    7.8669664  0.021852684  0.036219063            1 
   31000    1.2567713   -7.1752578    8.2375492  0.022143949  0.036159952            1 
   32000    1.2350241   -7.1389791    8.6643034   0.02256329  0.036095074            2 
   33000    1.2390847   -7.0855418     9.176392  0.023172707   0.03605454            2 
   34000    1.2353065   -7.1423976    9.5818191   0.02348485  0.036059361            4 
   35000    1.2527121   -7.1567505    9.9179875  0.023614256  0.035998985            2 
   36000    1.2404482   -7.1545513    10.377359  0.024021664  0.035949904            2 
   37000    1.2472864   -7.1105234    10.776901    0.0242723  0.035886834            2 
   38000    1.2322158   -7.1245859    11.044227  0.024219795   0.03577437            1 
   39000     1.260793   -7.1222058    11.400308  0.024359632  0.035607954            1 
   40000    1.2460517   -7.1661179    11.794808  0.024572517  0.035447418            1 
   41000    1.2671006    -7.149307    12.143359  0.024681625  0.035283897            2 
   42000    1.2337098   -7.1363628    12.608625  0.025017112  0.035137879            1 
   43000    1.2424527   -7.1455787    12.994462  0.025183066  0.035017283            1 
   44000    1.2527922   -7.1439351     13.31851   0.02522445  0.034912409            2 
   45000    1.2712039   -7.1484158    13.710607  0.025390012  0.034771071            2 
   46000    1.2616063     -7.16973    14.027997  0.025413037  0.034635181            5 
   47000    1.2249009   -7.1371737    14.350763  0.025444615   0.03446107            2 
   48000    1.2229847   -7.1667502    14.722275  0.025559505  0.034305582            2 
   49000    1.2419635   -7.1014473    15.071808  0.025632326  0.034139949            1 
   50000    1.2548357   -7.1111355    15.335773  0.025559622  0.033979517            2 
   51000    1.2715199   -7.1379709    15.699871  0.025653384  0.033814918            2 
   52000    1.2436347   -7.1336601     16.16049   0.02589822  0.033672643            2 
   53000    1.2467657    -7.156816    16.478314  0.025909298  0.033550943            1 
   54000     1.232842   -7.1747752    17.009346  0.026248991  0.033445358            4 
   55000    1.2347487   -7.1368051    17.442988  0.026428769  0.033383396            4 
   56000    1.2481138   -7.1233372    17.736619  0.026393777  0.033307473            2 
   57000    1.2408175   -7.1246636    18.201984  0.026611088  0.033242961            1 
   58000    1.2164787    -7.136659    18.586336  0.026704505  0.033187901            1 
   59000    1.2276515    -7.164588    18.895748   0.02668891  0.033136533            2 
   60000    1.2368051   -7.1340422    19.284222  0.026783641  0.033089964            3 
   61000    1.2197795   -7.1589193    19.672171   0.02687455  0.033031695            1 
   62000    1.2257591   -7.1340821    20.258427  0.027229068  0.032993153            1 
   63000    1.2346504   -7.1553994    20.697484  0.027377625  0.032974772            4 
   64000    1.2528114   -7.1654334    21.024605  0.027375788  0.032976928            1 
   65000    1.2347824   -7.1820895    21.418044  0.027459031  0.032986328            2 
   66000    1.2364038   -7.1607273    22.100498  0.027904669  0.033014026            1 
   67000    1.2263711   -7.1856584     22.51638  0.028005447  0.033056286            6 
   68000    1.2548071   -7.1729414    22.933807  0.028105156  0.033098765            1 
   69000    1.2570807   -7.1551721    23.378686  0.028235128  0.033134117            1 
   70000     1.254581   -7.2094409    23.821853  0.028359349  0.033178382            5 
   71000    1.2444501   -7.1953675    24.279341  0.028496878  0.033220565            1 
   72000     1.227323   -7.1578332    24.682813   0.02856807  0.033268665            1 
   73000    1.2564602   -7.1633728    25.170706  0.028733683  0.033314765            1 
   74000    1.2225073    -7.176593    25.531326  0.028751493  0.033359626            1 
   75000    1.2314538   -7.1645995    25.939327  0.028821474  0.033394622            2 
   76000    1.2300747   -7.1556686    26.311886  0.028850752  0.033424025            1 
   77000    1.2307023   -7.1764315    26.843276  0.029051165  0.033462664            1 
   78000    1.2488847   -7.1781577    27.193279  0.029052648  0.033501046            2 
   79000    1.2188341   -7.1188582    27.636776  0.029152718  0.033539854            3 
   80000    1.2382619   -7.1308337     28.17885  0.029352969  0.033576046            3 
   81000    1.2293801   -7.1864784    28.568647  0.029391612  0.033611501            1 
   82000    1.2102877   -7.1978726    28.984543  0.029455836    0.0336514            4 
   83000    1.2245948    -7.122624    29.371219  0.029489175  0.033681645            1 
   84000    1.2372836   -7.1740076    29.656599  0.029421229   0.03370718            1 
   85000    1.2348673   -7.1574013    30.108441  0.029518079  0.033733571            1 
   86000    1.2206884   -7.1428934    30.673457  0.029722342  0.033755071            2 
   87000    1.2372348   -7.2145916    30.934536  0.029630782  0.033780607            2 
   88000    1.2099202   -7.1737626    31.492302  0.029822255  0.033810548            1 
   89000    1.2422157   -7.1854781     31.86434  0.029835525  0.033834106            2 
   90000     1.227549   -7.1921788    31.950484  0.029583782  0.033851574            1 
   91000    1.2073555   -7.2035667    32.454811  0.029720523   0.03386218            1 
   92000    1.2402878   -7.1457972    32.954276  0.029849888  0.033872032            3 
   93000    1.2216047   -7.1331248     33.46743  0.029988737  0.033880686            2 
   94000     1.232523   -7.1771189    33.525742  0.029721402  0.033884115            2 
   95000    1.2229636   -7.1793802    34.005111  0.029829045  0.033883576            2 
   96000    1.2363203    -7.192283    34.450742  0.029905158  0.033883422            3 
   97000    1.2394846   -7.1566032    34.847421  0.029937646  0.033885924            2 
   98000     1.204207   -7.1374159    35.219384  0.029948456  0.033883044            1 
   99000    1.2406951   -7.1678033    35.568559  0.029939864  0.033876095            2 
  100000    1.2609926   -7.1709574    35.929942  0.029941618  0.033871073            3 
  101000    1.2491877   -7.1146807     36.50299  0.030117978  0.033871632            1 
  102000     1.228003   -7.2000023    36.753923  0.030027714  0.033870438            3 
  103000    1.2362415   -7.1782092     37.19737  0.030094959   0.03386032            1 
  104000    1.2407743   -7.2270002    37.396873  0.029965443   0.03385501            2 
  105000    1.2398335    -7.202878    37.979944  0.030142813  0.033848151            1 
  106000    1.2188115   -7.1482957    38.499189  0.030266658  0.033848146            1 
  107000    1.2440133   -7.1718192    38.775332  0.030198856  0.033848765            2 
  108000    1.2411127   -7.2006883    39.125134  0.030189147  0.033849602            1 
  109000    1.2186318   -7.1617854    39.721073  0.030367792  0.033849574            1 
  110000    1.2243265   -7.1951243    39.979331  0.030287372  0.033847331            2 
  111000    1.2452834   -7.1702687    40.605914   0.03048492  0.033846163            3 
  112000    1.2179985   -7.2120778    40.813235   0.03036699  0.033845047            1 
  113000    1.2116349   -7.1834758    41.262483  0.030429559  0.033843118            3 
  114000    1.2255676   -7.1840453    41.480913  0.030322305  0.033835994            2 
  115000    1.2147496   -7.1732776    42.080291  0.030492964  0.033830629            1 
  116000    1.2352628   -7.2142922    42.337687  0.030415005  0.033827186            2 
  117000    1.2648671   -7.1715482     42.88855    0.0305474  0.033827061            2 
  118000    1.2136618   -7.1855154     43.14471  0.030469428   0.03382478            2 
  119000    1.2345301   -7.2113715    43.642324  0.030561851  0.033819121            1 
  120000    1.2143269   -7.1552851    44.222345  0.030709961  0.033815246            2 
  121000    1.2284826   -7.2210273    44.462141  0.030621309  0.033815782            3 
  122000     1.248403   -7.1869722    44.758836  0.030572975  0.033811571            1 
  123000     1.236404   -7.2256772    45.067098  0.030533264  0.033805827            5 
  124000     1.226532   -7.1870586    45.826388  0.030797304  0.033810086            1 
  125000    1.2254105   -7.1608056    46.389249  0.030926166  0.033814271            2 
  126000    1.2422738   -7.2182017    46.660264  0.030859963  0.033821837            2 
  127000    1.2347034   -7.1808494    46.893449   0.03076998  0.033828737            2 
  128000    1.2392578   -7.1745515    47.308895  0.030800062  0.033830284            2 
  129000     1.249261    -7.195838    47.846644  0.030908685    0.0338296            1 
  130000    1.2224635   -7.1397583    48.243845  0.030925542  0.033831822            2 
  131000    1.2254576   -7.1921108    48.559616  0.030890341  0.033829903            3 
  132000     1.241052   -7.1880566     48.79886  0.030807361  0.033825135            2 
  133000    1.2317356   -7.1756787    49.160626  0.030802397  0.033817313            3 
  134000    1.2010622   -7.1801551    49.615404  0.030855351  0.033808779            1 
  135000    1.2351899   -7.1921961    49.875809  0.030787536  0.033796608            1 
  136000    1.2463755   -7.1892459    50.344909  0.030848596  0.033785302            3 
  137000    1.2562527   -7.1980161    50.892947   0.03095678  0.033780068       -1e+20 
  138000    1.2056081   -7.1367157    51.151497  0.030888585  0.033775519            1 
  139000    1.2249149   -7.1775121    51.588055  0.030928091  0.033769235            2 
  140000    1.2121889   -7.1879767    52.010935   0.03095889  0.033761729            2 
  141000    1.2371933   -7.1758467     52.05834   0.03076734  0.033752462            3 
  142000    1.2315369   -7.2038565    52.258194  0.030667954  0.033736186            2 
  143000     1.213393   -7.1854001     52.46577  0.030574458  0.033716142            2 
  144000    1.2099384   -7.1364419     53.29669  0.030842992  0.033696971            3 
  145000    1.2243546   -7.2483447    53.103543  0.030519278  0.033673513            2 
  146000     1.244737    -7.208588    53.144717  0.030333742  0.033643188            3 
  147000    1.2279912   -7.1981765    53.937193   0.03057664    0.0336124            2 
  148000    1.2165769   -7.1943269    54.128064  0.030477513  0.033585022            2 
  149000    1.2223723   -7.2000161    54.443852  0.030449581  0.033558041            1 
  150000    1.2258741   -7.2305397    54.476466  0.030264703  0.033523626            1 
  151000     1.229373   -7.1781054     55.07669  0.030395524  0.033487108            3 
  152000    1.2247017   -7.2104016    55.249073  0.030290062  0.033449257            1 
  153000    1.2282946   -7.1780719    55.705886  0.030340896  0.033414136            4 
  154000    1.2127028   -7.2298547    56.034001  0.030321429  0.033379283            2 
  155000     1.225082   -7.1880938    56.405697  0.030325644  0.033347373            3 
  156000    1.2306507   -7.1578354    56.879134  0.030384153   0.03331305            1 
  157000    1.2198418   -7.1582774    57.053011  0.030282914  0.033279873            1 
  158000     1.228789   -7.2142517    57.550552  0.030353667   0.03324693            1 
  159000    1.2187568    -7.158443    58.003836  0.030400333  0.033215808            4 
  160000    1.2051169   -7.1805743       58.313  0.030371354  0.033186061            1 
  161000    1.2156218   -7.2310403    58.704599  0.030385403   0.03315782            2 
  162000    1.2177036   -7.1814533    59.146546  0.030425178  0.033130136            3 
  163000    1.2298909   -7.1827446    59.450943  0.030394143  0.033100671            2 
  164000    1.2314858   -7.2442444    59.619222   0.03029432  0.033073767            2 
  165000    1.2455435    -7.211674    59.981713  0.030293794  0.033045611            1 
  166000    1.2467093   -7.1989001    60.327518  0.030284899  0.033018655            2 
  167000    1.2218975   -7.2322504    60.586767  0.030232917  0.032988361            3 
  168000    1.2259528   -7.2293231    60.914832   0.03021569  0.032958792            1 
  169000    1.2280216   -7.1790383    61.584276     0.030367  0.032930941            1 
  170000    1.2444129   -7.2025784    61.946143  0.030365756  0.032904717            2 
  171000    1.2200823   -7.1945034    62.099058  0.030262699  0.032874607       -1e+20 
  172000    1.2002226     -7.21687    62.350526  0.030208588  0.032845238            3 
  173000    1.2094795   -7.2324112    62.705246  0.030204839  0.032818722            2 
  174000    1.2513612   -7.2020848     63.30411   0.03031806  0.032792683            1 
  175000    1.2193304   -7.1485289    63.503899  0.030239952  0.032764963            1 
  176000    1.2219841   -7.2554145    63.422235  0.030029467  0.032732916            2 
  177000     1.246021   -7.2471684    63.888519   0.03007934  0.032702896            1 
  178000    1.2177286   -7.1729406    64.617928  0.030251839  0.032674281            1 
  179000    1.1803229   -7.2037266    64.874151  0.030202119  0.032648754            2 
  180000    1.2206712   -7.2287334    65.512304   0.03032977  0.032623924            1 
  181000    1.2155223   -7.2219735    65.793217  0.030291536  0.032600642            2 
  182000    1.2586527   -7.1517599    66.074546  0.030253913  0.032576803            2 
  183000    1.2548699   -7.1887622    66.316649  0.030198838  0.032551622            3 
  184000    1.2196757   -7.2110205    67.098287  0.030388717  0.032527391            2 
  185000    1.2099916   -7.1821632    67.207123  0.030273479  0.032505159            1 
  186000     1.201493   -7.2176302    67.558859  0.030268306  0.032482343            3 
  187000    1.2543883   -7.1708599    68.076902    0.0303373  0.032457654            1 
  188000    1.2226337    -7.207935    67.977826  0.030132015  0.032432141            3 
  189000    1.2216171   -7.2314217     68.48645  0.030196847  0.032408276            1 
  190000    1.2156939   -7.2056237    68.736709  0.030147679  0.032384695            7 
  191000    1.2086127      -7.2136    69.434131  0.030294124  0.032360642            1 
  192000     1.230929   -7.2561405    69.706318  0.030254478   0.03234022            1 
  193000    1.1866319   -7.2150538    70.319002  0.030362263  0.032324481            1 
  194000    1.1972086    -7.172269    70.525585  0.030294495  0.032305833            2 
  195000    1.2349897   -7.1849971    70.954145  0.030322284  0.032286397            1 
  196000    1.2547014   -7.2344278    71.064587  0.030214535  0.032265343            2 
  197000    1.2166721   -7.1971948    71.584168  0.030280951  0.032246084            1 
  198000    1.2129807   -7.2096833    72.099121  0.030344748  0.032227482            1 
  199000    1.2011039   -7.2334493    72.349715  0.030297201  0.032211172            1 
  200000    1.2203259   -7.2332991    73.288699  0.030536958  0.032198723            1 
  201000    1.2008866   -7.2153901     73.39944  0.030430945  0.032185299            3 
  202000    1.2202885   -7.2356148    73.717318  0.030411435   0.03217333            4 
  203000    1.2376481   -7.2185836    74.459158  0.030566157  0.032163768            1 
  204000    1.2332302   -7.2005041     75.13693   0.03069319  0.032155346            2 
  205000    1.2044734   -7.2387793     74.96712  0.030474439  0.032145945            3 
  206000    1.2099267   -7.2126077    75.489459  0.030537807  0.032136624            2 
  207000    1.2251885   -7.2338091    75.648106  0.030454149  0.032127421            2 
  208000    1.2095043     -7.24796     75.95072  0.030428974  0.032116347            2 
  209000    1.1989089   -7.2092529    76.499915  0.030502358  0.032105289            2 
  210000    1.2113176   -7.2294421     76.67206   0.03042542  0.032096561            1 
  211000    1.2199833   -7.1916047    77.516345   0.03061467  0.032088279            3 
  212000    1.2454116   -7.2002381    77.884385  0.030614931  0.032082217            2 
  213000      1.23819   -7.2224661    78.299105  0.030633452   0.03207693            2 
  214000    1.2088738   -7.2473244    78.444917  0.030547086  0.032070957            2 
  215000    1.2188116   -7.1961738    79.075078  0.030649255   0.03206301            1 
  216000    1.1851817   -7.1437192    79.789771  0.030783091  0.032057707            2 
  217000    1.2256003   -7.2615222    79.463453  0.030515919  0.032053536            2 
  218000    1.2176194   -7.2086783    80.196707  0.030656233  0.032048793            2 
  219000    1.2050606   -7.1853578    80.709423  0.030711348   0.03204331            1 
  220000     1.216329    -7.227313    80.957681  0.030665788  0.032038404            3 
  221000    1.2002656   -7.2574765    80.873828   0.03049541  0.032030331            1 
  222000     1.235207   -7.2468108    81.190425  0.030476886  0.032021545            1 
  223000    1.2061898   -7.2787721    81.489493  0.030451978   0.03201313            3 
  224000    1.2016825   -7.2352517    82.499148  0.030691647  0.032005675            1 
  225000    1.2090031   -7.2218593    82.554322  0.030575675   0.03199845            1 
  226000    1.2175191   -7.2102773    83.225024  0.030687693   0.03199103            2 
  227000    1.1876617   -7.2031641    83.303241  0.030581219  0.031982741            3 
  228000    1.2326144   -7.2122976    83.544349  0.030535215  0.031975205            3 
  229000    1.1904051   -7.2222052    83.661943  0.030444666  0.031964817            2 
  230000    1.2246903   -7.2212988    84.395762  0.030578175  0.031953442            2 
  231000     1.177615   -7.2258092    84.503905  0.030484814  0.031943689            1 
  232000    1.2010439   -7.2473915    84.954246  0.030515174  0.031933627            3 
  233000    1.2020529   -7.2544275    85.202693  0.030473066  0.031923829            2 
  234000    1.2065421   -7.2266431    85.371164  0.030402836  0.031913635            3 
  235000    1.2254561   -7.2208989    85.734477  0.030402297  0.031902855            2 
  236000    1.1971242    -7.225325    86.465753  0.030531692  0.031891159            1 
  237000     1.229312   -7.2733083    86.416256  0.030385463  0.031880423            4 
  238000     1.196125   -7.2478245     86.57924   0.03031486  0.031869499            2 
  239000       1.2047   -7.2442193    87.166553  0.030392801  0.031858538            1 
  240000    1.1972428   -7.1687722    88.011186  0.030559439  0.031849032            2 
  241000    1.2154102   -7.2107898    88.227725  0.030507512  0.031840159            2 
  242000    1.2326337   -7.2353306    88.326574  0.030415487  0.031832534            3 
  243000    1.2111283   -7.1789877    89.048879  0.030538024  0.031823725            1 
  244000    1.2240081   -7.1930097    89.423942  0.030540964  0.031815538            1 
  245000    1.2225831   -7.2272313     89.65981  0.030496534   0.03180815            1 
  246000    1.2021719   -7.2678499     89.84389  0.030434922   0.03179967            2 
  247000    1.2233397   -7.1920426    90.620866  0.030573841  0.031792257            2 
  248000     1.223745   -7.2327083    90.521937  0.030417317  0.031783028            2 
  249000     1.243205   -7.1903973    91.488956  0.030618794   0.03177529            1 
  250000     1.202501   -7.2367365    91.054594  0.030351531  0.031766044            1 
  251000    1.2299343   -7.2338126    91.511983  0.030382464  0.031756839            4 
  252000    1.2155668   -7.2711051    91.496423  0.030256753  0.031746518            5 
  253000    1.2263655    -7.253251    92.502251  0.030468462  0.031738522            1 
  254000    1.2095859   -7.2059838    92.802697  0.030447079  0.031730063            2 
  255000    1.2143547   -7.2234624    93.268926  0.030480041  0.031720702            2 
  256000    1.2245952   -7.2361614    93.351876   0.03038798  0.031712597            5 
  257000    1.2135248   -7.2661232    93.830175   0.03042483  0.031704761            4 
  258000    1.2162204   -7.1810825    94.559839  0.030542584  0.031696848            4 
  259000    1.2064247   -7.2224141    94.924698  0.030542052  0.031691389            3 
  260000    1.2193239   -7.1946946    95.197542  0.030512033  0.031684703            1 
  261000    1.2414451   -7.2039823     95.74104  0.030568659  0.031678114            2 
  262000    1.2165221   -7.1804425    95.904091  0.030503846  0.031670167            1 
  263000    1.1721992   -7.2339679    96.030973  0.030428065  0.031661508            1 
  264000    1.2057997   -7.1987326    96.751935  0.030540384  0.031653743            3 
  265000    1.2162863   -7.2116709     96.95229  0.030488142  0.031645687            3 
  266000    1.2100099     -7.24993    97.239021  0.030463353  0.031638103            1 
  267000    1.2192867   -7.2485019    97.808321  0.030526941   0.03163173            2 
  268000    1.1990826   -7.2814537    97.701506  0.030379821  0.031623032            3 
  269000    1.2068374   -7.2588346    97.900045  0.030328391  0.031612453            1 
  270000    1.2096831   -7.2226736    98.559167  0.030419496  0.031602521            2 
  271000    1.2074672   -7.2476048    98.904522  0.030413445  0.031593386            2 
  272000    1.1766601   -7.2284056    99.175684  0.030384707  0.031583372            2 
  273000    1.2120178   -7.2353238    99.350846  0.030326876   0.03157408            5 
  274000    1.2076754   -7.2447794    99.793311  0.030350764  0.031564185            1 
  275000    1.1905578   -7.2042124    100.27432  0.030386157  0.031553801            1 
  276000    1.2183334   -7.2389119    100.46464  0.030333526  0.031542967            2 
  277000    1.1982396   -7.2619593     100.7937  0.030323016  0.031531329            3 
  278000     1.187417   -7.2514834    100.80946  0.030218665  0.031520354            1 
  279000    1.1930258   -7.2520578    101.50281  0.030317447  0.031510448            3 
  280000    1.2020487   -7.2570132    102.35748  0.030463536  0.031501007            2 
  281000    1.2016962   -7.2649778    102.50501  0.030398876  0.031492938            3 
  282000    1.2336687     -7.26811    102.80626  0.030380101   0.03148591            3 
  283000    1.1875105   -7.2405838    103.48196  0.030471721  0.031479602            3 
  284000    1.2078357    -7.249061    103.61794  0.030404325   0.03147245            6 
  285000     1.210423   -7.2229394    104.32615  0.030504722  0.031466002            1 
  286000    1.2167307   -7.2478052    104.20698  0.030363339  0.031459353            4 
  287000    1.2116478    -7.261114    104.33312   0.03029417  0.031451544            2 
  288000    1.1890464   -7.2518584    104.91315  0.030356815  0.031442039            1 
  289000    1.2131985   -7.2934105     105.0133  0.030280653  0.031433461            1 
  290000    1.1992329   -7.2367211    105.17028  0.030221344  0.031423385            1 
  291000    1.2007335   -7.2489931    105.50394  0.030213041  0.031412278            4 
  292000    1.1907638   -7.2649154    105.85427  0.030209553   0.03140201            2 
  293000    1.1884703   -7.2510614    106.15136  0.030190945   0.03139129            1 
  294000    1.1968643   -7.1730975    106.73252  0.030252982  0.031380441            1 
  295000    1.1902724   -7.2527685    106.55063  0.030099047  0.031368089            1 
  296000    1.2128038   -7.2171927    106.79356  0.030065754  0.031355559            2 
  297000    1.2344757   -7.2597486    107.20783  0.030080761  0.031342722            2 
  298000    1.2079462   -7.2930712    107.10524  0.029951131  0.031329947            1 
  299000    1.2019975   -7.2476654    108.26561  0.030174362  0.031317663            2 
  300000    1.2009606   -7.2191159    108.51386  0.030142739  0.031306521            2 
  301000    1.2474634   -7.2459802     108.6672   0.03008505  0.031295647            2 
  302000    1.2021224   -7.2500152    108.71351  0.029998209  0.031283194            3 
  303000    1.1969918   -7.2250909    109.59288  0.030141056  0.031271145            1 
  304000    1.2388963   -7.2247572    109.76623  0.030089427  0.031259015            1 
  305000    1.2293719   -7.2718414    109.98482  0.030050498  0.031247533            2 
  306000    1.2034594   -7.2567868    110.27836  0.030032233  0.031234676            1 
  307000    1.2134222   -7.2760106    110.41538  0.029971602  0.031222118            2 
  308000    1.1923957   -7.2628426    110.94949  0.030018802  0.031209702            3 
  309000    1.1874068   -7.2705768    111.09168  0.029959999  0.031197517            2 
  310000    1.1974009   -7.2332002    111.55356  0.029987517  0.031185545            1 
  311000     1.190717   -7.2614214    111.65906  0.029919361  0.031173276            2 
  312000    1.1986085   -7.2184065    112.18877  0.029964948  0.031160866            2 
  313000      1.19789   -7.2691195    112.31262  0.029902187  0.031149365            3 
  314000    1.1788226   -7.2543259    113.13305  0.030024696  0.031137885            1 
  315000    1.1739734   -7.3022683    113.46697  0.030017718  0.031126644            1 
  316000    1.2055451   -7.2603119    113.65607  0.029972592  0.031116238            2 
  317000    1.1834326   -7.2401276    114.59269  0.030124261  0.031106599            1 
  318000    1.1814945   -7.2937561    115.14338  0.030173843  0.031097656            3 
  319000    1.2057882   -7.2741606    114.73025  0.029971331  0.031087922            1 
  320000    1.2245889   -7.2708791    115.37531  0.030045654  0.031077583            1 
  321000    1.2275415   -7.2357544    115.91618  0.030092466  0.031068115            1 
  322000    1.2181908   -7.2320847    116.37215  0.030117016  0.031059158            1 
  323000     1.219093   -7.2412695    116.51353   0.03006025  0.031049756            1 
  324000    1.2174449   -7.2345926    116.80988  0.030043694   0.03104104            1 
  325000     1.195874   -7.2813178     117.1778   0.03004559  0.031031296            1 
  326000    1.1981034   -7.2858696    117.32367  0.029990713  0.031021248            2 
  327000    1.1954069   -7.2947948    117.58899  0.029966613    0.0310113            4 
  328000    1.1858998   -7.2439696    118.20594  0.030031996  0.031001814            3 
  329000    1.2115768   -7.2964281    118.24947   0.02995174  0.030991438            1 
  330000    1.1838151   -7.2305897    119.02041   0.03005566  0.030980996            2 
  331000    1.2174578     -7.26685     118.9851  0.029955968   0.03097194            2 
  332000    1.1954038   -7.2791728    119.15335   0.02990797  0.030961181            3 
  333000    1.1706506   -7.2877652     119.3305  0.029862488  0.030950763            2 
  334000    1.2169249   -7.2751544    120.42832  0.030046985  0.030941219            1 
  335000     1.195571   -7.2275421    120.48952  0.029972516  0.030932018            2 
  336000    1.1965185   -7.2437458    120.77476  0.029954058  0.030922791            1 
  337000    1.2132981   -7.2827997    120.38348  0.029768417   0.03091269            2 
  338000    1.2062772   -7.2402628    121.17764  0.029876144   0.03090163            2 
  339000     1.182038   -7.2844903    121.45285  0.029855665   0.03089099            1 
  340000    1.1939227    -7.268444    122.00294  0.029902682  0.030879573            2 
  341000    1.1709357   -7.2929651    121.97121  0.029807235  0.030867755            2 
  342000    1.2049972   -7.2562002    122.18429     0.029772  0.030856498            3 
  343000    1.2305221   -7.2522955    123.13869  0.029917077  0.030845844            3 
  344000    1.1977423   -7.3177933    123.08548  0.029817219  0.030834978            1 
  345000    1.1978471   -7.3010222    123.17897  0.029753374  0.030823625            4 
  346000    1.2038192    -7.260755    123.53953  0.029754221  0.030811324            2 
  347000    1.1738781   -7.2413412    123.42747  0.029641564  0.030799213            2 
  348000    1.1996891   -7.2700384     123.6189  0.029602227  0.030786037            1 
  349000    1.1785779   -7.2512754    124.65124  0.029763907  0.030773599            1 
  350000    1.2022708   -7.3011128    124.68569  0.029687069  0.030761073            2 
  351000      1.19269   -7.2963902    124.97844  0.029671995  0.030748801            4 
  352000    1.1853408   -7.2681794    125.79562  0.029781159  0.030736383            1 
  353000    1.2005898   -7.2489287    125.92392  0.029727081  0.030723825            4 
  354000    1.1960909   -7.2993079    125.83792  0.029622862  0.030711605            3 
  355000    1.1918228   -7.2627181    126.39159  0.029669387  0.030698473            1 
  356000    1.1962777   -7.2737184    126.55829  0.029625067  0.030685982            1 
  357000    1.2276164   -7.3203809    126.17192  0.029451896  0.030671965            2 
  358000    1.1727087   -7.2822835    127.28687  0.029629159  0.030658829            1 
  359000    1.1729059    -7.292238    126.88573  0.029453512  0.030645049            5 
  360000    1.1787566   -7.2999989     127.5251  0.029519699  0.030630404            1 
  361000    1.1866173   -7.3131509    127.59752  0.029454644  0.030616209            3 
  362000    1.1711142   -7.2525623    127.59337  0.029372322  0.030601886            1 
  363000     1.172428   -7.3295572    127.79549  0.029337808  0.030586488            5 
  364000    1.1863316   -7.2767877    128.42714  0.029401819  0.030570232            1 
  365000    1.2104078   -7.3305284    128.43429  0.029322896   0.03055362            3 
  366000    1.1974258   -7.3344838    128.82139  0.029330917  0.030537979            3 
  367000    1.2075212   -7.3359421    129.11016  0.029316566  0.030523895            2 
  368000    1.1892171   -7.2683196    130.75401  0.029609151   0.03051112            3 
  369000    1.1819146   -7.2587608    130.57056  0.029487479  0.030498821            1 
  370000    1.1769135   -7.3047622    131.08427  0.029523485  0.030486316            2 
  371000    1.1875153   -7.2563007    130.85287  0.029391929  0.030473578            1 
  372000    1.1899924   -7.2917103    131.02334  0.029351107  0.030459535            1 
  373000     1.190084   -7.3446799    130.53982  0.029164391  0.030445162            2 
  374000    1.1932144   -7.2698447    132.03982  0.029420637  0.030429649            2 
  375000    1.1556143   -7.3129815    131.55928  0.029235396  0.030415614            2 
  376000    1.2050086   -7.2704637    132.72746  0.029416546  0.030401045            2 
  377000    1.1996449   -7.2814008    132.53281  0.029295493  0.030386169            3 
  378000     1.185518   -7.3018469    133.17023  0.029358516  0.030371684            1 
  379000    1.2035032   -7.2986322    133.19379  0.029286233    0.0303578            1 
  380000    1.1985054   -7.3095967    133.55411  0.029288181  0.030344404            1 
  381000    1.1821455   -7.2554201    134.20898  0.029354544  0.030332118            2 
  382000    1.1741494   -7.2795789    135.16851  0.029487023  0.030319764            2 
  383000    1.2009205   -7.2758434    134.61688   0.02929001  0.030306969            4 
  384000     1.184536   -7.2731376    135.21859  0.029344313   0.03029419            2 
  385000    1.1800525   -7.3199789    135.48601  0.029325975  0.030280202            1 
  386000    1.1749865   -7.3057984    135.56307  0.029266638  0.030265435            2 
  387000    1.1666521   -7.2868142    135.48036  0.029173203  0.030251269            2 
  388000     1.198742   -7.2961753    136.11679  0.029234706  0.030237607            1 
  389000    1.1639997   -7.2645175    136.82779  0.029311866  0.030223823            2 
  390000     1.178883   -7.2715979    136.87478  0.029246749  0.030210171            3 
  391000    1.1996723   -7.3190743    136.82202  0.029160702  0.030196356            2 
  392000    1.1870439   -7.3153408    137.41421  0.029212205  0.030182598            3 
  393000    1.1559269   -7.3151899     137.4246  0.029140077  0.030167779            1 
  394000    1.2049077   -7.2762406    138.13859   0.02921713   0.03015325            2 
  395000    1.2066259   -7.3022249     137.4455   0.02899694   0.03013855            3 
  396000    1.1922791   -7.2913815    138.25909  0.029094926  0.030124443            1 
  397000    1.2003698   -7.3233657    138.70085  0.029114368  0.030110345            4 
  398000    1.1796498   -7.3381865    139.11624  0.029128191  0.030096213            1 
  399000    1.1829739    -7.285041    139.37956  0.029110184  0.030082384            2 
  400000    1.1975493   -7.2201485    139.96729  0.029159853  0.030069407            3 
  401000    1.1705365   -7.2826094    140.03375  0.029100946  0.030056571            2 
  402000    1.1870333    -7.284679    140.66169  0.029158726  0.030043914            3 
  403000    1.1959718   -7.3077189    140.84846  0.029124992  0.030031341            2 
  404000    1.1620481   -7.2765422    142.16673  0.029324821  0.030019867            2 
  405000    1.1993886   -7.2828412    141.80465  0.029177911  0.030008618            2 
  406000    1.1596882    -7.245723    142.95818  0.029342813  0.029997462            2 
  407000    1.2106581   -7.2603077     143.0614  0.029291851  0.029986425            2 
  408000    1.1881294    -7.277135    142.91451  0.029190055  0.029976399            2 
  409000    1.1930966   -7.2644199    143.79779  0.029298654  0.029966606            1 
  410000     1.223588   -7.3251521     143.8562  0.029239065  0.029956458            2 
  411000    1.1902171   -7.2981158    143.96928  0.029190852  0.029945857            2 
  412000     1.174486   -7.3492923    143.82707  0.029091236  0.029933575            3 
  413000    1.1660685   -7.3097249    144.50977  0.029158548  0.029922351            1 
  414000    1.2076253    -7.220576    145.42282  0.029271905  0.029911506            3 
  415000    1.1780228   -7.2619797    145.49618    0.0292161  0.029900856            1 
  416000    1.1691447   -7.2796032    145.56873  0.029160403  0.029890451            2 
  417000    1.1781258   -7.3131452    145.46506  0.029069755   0.02987989            2 
  418000    1.1879441   -7.2869416    146.24186  0.029155075   0.02986831            2 
  419000    1.1945836    -7.315148    146.04398  0.029046137  0.029856764            5 
  420000    1.1622189   -7.2981269      146.555  0.029078373  0.029844909            1 
  421000    1.1881678   -7.2600009    147.13339  0.029123791  0.029833874            2 
  422000    1.1655331   -7.2840866    147.31731  0.029091097  0.029822565            1 
  423000    1.1602771   -7.3040751    147.27292  0.029013578  0.029811074            1 
  424000    1.1714553   -7.3095076    147.65794  0.029020822  0.029799752            5 
  425000    1.1879136    -7.294175    147.45851  0.028913433  0.029787167            2 
  426000     1.215093   -7.3112926    148.01334  0.028954096  0.029774435            2 
  427000    1.1697885   -7.3373004    147.62726   0.02881094  0.029761795            1 
  428000    1.1913587    -7.273597     148.5213  0.028917698  0.029748212            3 
  429000    1.1974252   -7.3155121    148.59799  0.028865189  0.029735309            4 
  430000    1.1821094   -7.3221496    148.78248  0.028833813  0.029722186            1 
  431000    1.2042131    -7.283486    149.65227  0.028935086  0.029708928            3 
  432000    1.1862389   -7.3021618    149.60841  0.028859647  0.029696453            3 
  433000    1.1755321   -7.3196158    149.74552  0.028819384  0.029683084            2 
  434000    1.1425161   -7.3121125    149.88849  0.028780432    0.0296693            1 
  435000    1.1939141   -7.3289131    149.72106  0.028682196  0.029654443            3 
  436000     1.176047    -7.271016    150.71386  0.028806167  0.029640042            1 
  437000    1.1918252   -7.3278283    150.67313  0.028732482   0.02962638            7 
  438000    1.1647465   -7.2944985    151.55411  0.028834496  0.029612964            2 
  439000    1.1928188   -7.2828679    151.46002  0.028750953  0.029599487            1 
  440000    1.1816233   -7.3092169    151.80118  0.028750224  0.029585989            1 
  441000    1.1885508   -7.3074138    152.26266  0.028772233  0.029572829            5 
  442000     1.193179   -7.3205562    152.92162  0.028831376  0.029559667            1 
  443000    1.1980004   -7.2973696    152.91749  0.028765517  0.029547246            3 
  444000    1.1562759   -7.3396004    152.43952  0.028611021  0.029534466            3 
  445000    1.1861658   -7.2890324    153.36914  0.028720813  0.029521768            1 
  446000    1.1857643    -7.307481    154.14111  0.028800656  0.029510016            1 
  447000    1.1997648   -7.3126554    153.87858  0.028687281  0.029498006            2 
  448000    1.1700901   -7.3443115    154.00223  0.028646248  0.029485389            2 
  449000    1.1571023     -7.33377    154.24228  0.028627001  0.029472718            2 
  450000    1.1772227   -7.2920565    155.44059  0.028785294  0.029460147            1 
  451000    1.1858984   -7.3097306    154.94136  0.028629225  0.029447519            1 
  452000    1.1890876   -7.3168389    155.43115  0.028656185  0.029435116            2 
  453000    1.1454356    -7.307582    156.02582  0.028702321  0.029423363            1 
  454000    1.1840762    -7.328667    156.53182  0.028731979   0.02941208            3 
  455000    1.1742209   -7.2695939    156.86157  0.028729225  0.029401218            2 
  456000    1.1903508   -7.2854844    157.53088  0.028788538  0.029390646            3 
  457000    1.1613482   -7.3130863    157.86863  0.028787131  0.029379614            1 
  458000    1.1633257   -7.3539327    157.28991  0.028618979  0.029368142            3 
  459000    1.1699472   -7.3044623    158.18641  0.028719392  0.029356957            2 
  460000      1.15625   -7.3271819    158.08267  0.028638166  0.029345773            2 
  461000    1.1720405   -7.2835505    158.59524  0.028668698  0.029334177            1 
  462000    1.1623733   -7.3480779    158.10807  0.028518771  0.029323058            2 
  463000    1.1803111   -7.2955744      159.169  0.028648127  0.029311691            2 
  464000    1.1939654   -7.3310868      159.486  0.028643319  0.029300578            2 
  465000    1.1669334   -7.3346871    159.94189  0.028663421  0.029289295            3 
  466000    1.1604831   -7.2927824    159.97713  0.028608214  0.029278304            1 
  467000    1.1681375   -7.3369103    160.35601  0.028614563  0.029267329            1 
  468000    1.1860179   -7.3134747    160.93119  0.028655838   0.02925708            1 
  469000    1.1736125   -7.3433706     160.7817  0.028568176  0.029245484            2 
  470000    1.1631389   -7.3095355    161.41266  0.028619266   0.02923443            2 
  471000     1.178312   -7.3105303      161.999  0.028662243  0.029223434            1 
  472000    1.1679856   -7.3458562    161.67297  0.028543957  0.029212918            1 
  473000    1.1751078   -7.3398871    162.03983  0.028548243   0.02920215            1 
  474000    1.1844701    -7.296401    162.90372  0.028639894  0.029192442            5 
  475000    1.1475993   -7.3158933    163.31076   0.02865101  0.029182935            1 
  476000    1.1514873   -7.3288045    163.39296   0.02860521  0.029173691            2 
  477000    1.1440033   -7.3120597    164.98756  0.028823823  0.029165092            2 
  478000    1.1810728   -7.3405671    164.35431  0.028653122  0.029156388            2 
  479000    1.1608069   -7.3651435    164.78728  0.028668629  0.029147536            2 
  480000    1.1583926   -7.3163599    165.37304  0.028710598  0.029138394            2 
  481000    1.2305324   -7.2830755    165.77021  0.028719717  0.029129346            2 
  482000     1.179554   -7.2999973    166.02645  0.028704435  0.029120552            2 
  483000    1.1836485   -7.2663473    166.53425  0.028732617  0.029112085            1 
  484000    1.1447915   -7.2888253    166.74859  0.028710156  0.029103306            2 
  485000    1.1664251   -7.3430575    166.84711  0.028667888  0.029094542            1 
  486000    1.1555756   -7.3243193    167.51715  0.028723791  0.029086248            2 
  487000    1.1816972   -7.3274447    167.24202   0.02861773  0.029077866            1 
  488000    1.1661178   -7.3647564    167.67388  0.028632835  0.029069275            2 
  489000    1.1781548    -7.329331    168.18592   0.02866154  0.029061225            1 
  490000    1.1745826   -7.3119479    168.12817  0.028593227  0.029053077            3 
  491000    1.1431201   -7.3063946    169.06195  0.028693474  0.029044321            3 
  492000    1.1707517   -7.3085963    169.01182  0.028626663  0.029035548            5 
  493000    1.1650296   -7.2775844    169.65399  0.028677146  0.029026879            1 
  494000    1.1743436   -7.3455534    169.85866   0.02865362  0.029018565            2 
  495000    1.2007283   -7.3138817    170.49331  0.028702578  0.029010827            3 
  496000    1.2074937   -7.3138304     170.3949  0.028628175  0.029003099            4 
  497000    1.1685089   -7.3569945    170.17369  0.028533483  0.028994855            2 
  498000    1.1814666   -7.3517533    170.91735  0.028600627  0.028987001            3 
  499000    1.1670443   -7.3232506    171.24817  0.028598558  0.028978015            1 
  500000     1.171605   -7.3651328    171.22825  0.028538042  0.028969103            2 
  501000    1.1806489    -7.366492    171.30415  0.028493703  0.028960013            2 
  502000    1.1737834    -7.294941    172.35163  0.028610828  0.028951536            2 
  503000    1.2084987   -7.3246388      172.208  0.028530152  0.028943619            8 
  504000    1.1716627   -7.3381544     173.1545  0.028630042  0.028936017            1 
  505000    1.1424203   -7.3395955    173.63566  0.028652748  0.028928601            1 
  506000     1.184756   -7.3215709    173.93024  0.028644637  0.028922193            2 
  507000    1.1555028   -7.2730065    174.57581  0.028694248  0.028915406            1 
  508000    1.1781125   -7.3728161    174.36885  0.028603815  0.028908899            1 
  509000    1.2001737   -7.3906554    174.66151  0.028595533   0.02890174            2 
  510000    1.1369734   -7.3853053    174.81554  0.028564631   0.02889479            6 
  511000    1.1733828    -7.274413    175.68404  0.028650365  0.028887503            2 
  512000    1.1741178   -7.3370702    175.89257  0.028628349  0.028880511            1 
  513000    1.1714012   -7.3837984    175.80631  0.028558529  0.028873107            2 
  514000    1.1707353   -7.3558456    176.47118  0.028610762   0.02886598            2 
  515000    1.1706736   -7.3861653    176.34762  0.028535214  0.028858912            3 
  516000    1.1569337   -7.3929902    176.59653  0.028520111  0.028852361            2 
  517000    1.1587291   -7.3402583    177.78852   0.02865708  0.028845661            2 
  518000    1.1824599   -7.3684443    177.20477  0.028507845  0.028838797            4 
  519000     1.176789   -7.3258811    178.47649  0.028657111  0.028831838            1 
  520000    1.1449097   -7.3149883     178.7393  0.028644119  0.028825699            1 
  521000     1.171385   -7.3341696    178.93476  0.028620403  0.028819756            1 
  522000    1.1439387   -7.3297123    179.86445  0.028713992  0.028813335            1 
  523000    1.1821714   -7.3440262     179.5001  0.028601035  0.028807196           19 
  524000    1.1804717   -7.3323951    179.76147   0.02858802  0.028800709            1 
  525000      1.15462   -7.3213422    180.00549    0.0285723  0.028793838            3 
  526000    1.1777426   -7.3459884    180.05093  0.028525178  0.028787254            3 
  527000    1.1806333    -7.366479    180.30771  0.028511655  0.028780645            2 
  528000    1.1387087    -7.336349     180.9279   0.02855554  0.028773747            4 
  529000    1.1627314    -7.341163    180.85952  0.028490787  0.028767651            1 
  530000    1.1769284   -7.3721295    180.80813  0.028428952  0.028760822            2 
  531000    1.1661688   -7.3940351    181.15465  0.028429794   0.02875382            2 
  532000    1.1533307   -7.3672511    181.99387  0.028507812  0.028746851            2 
  533000    1.1809056   -7.3268966     182.4964  0.028532895  0.028739887            2 
  534000    1.1722951   -7.3202428    182.64514  0.028502675  0.028733148            2 
  535000    1.1681397   -7.3108525    183.12292  0.028523819  0.028726466            1 
  536000    1.1694115   -7.3338496    183.59604  0.028544161  0.028720278            2 
  537000    1.1607406   -7.3333782    183.78077  0.028519673  0.028714381            2 
  538000    1.1633731   -7.3562054    184.08574    0.0285139  0.028707587            2 
  539000    1.1613969    -7.370165     183.9642  0.028442207  0.028700865            2 
  540000     1.178677   -7.3676057    183.98915  0.028393388  0.028694107            4 
  541000    1.1311666   -7.3621389     184.5531  0.028427772  0.028686541            1 
  542000     1.161178   -7.3544306    183.92945  0.028279436  0.028678551            3 
  543000    1.1723377   -7.3766982    184.20105  0.028269038  0.028670629            3 
  544000    1.1712863   -7.3113574     184.7537   0.02830173  0.028662733            3 
  545000    1.1294549   -7.3545486     184.9433  0.028278792  0.028654794            1 
  546000    1.1605557   -7.3265877    185.47173  0.028307652  0.028646472            2 
  547000    1.1658457   -7.3861561    185.07116  0.028194875  0.028638083            3 
  548000    1.1567122   -7.3623396    185.19688  0.028162543  0.028629243            1 
  549000    1.1547475    -7.319453    185.93347  0.028223052  0.028620615            2 
  550000    1.1388112   -7.3496639    185.48288  0.028103467  0.028611727            1 
  551000    1.1433951   -7.3454274    186.23786  0.028166645   0.02860317            1 
  552000    1.1383387   -7.3659121    186.33837  0.028130793  0.028594884            4 
  553000    1.1585524   -7.3371744    187.37761  0.028236529  0.028586472            3 
  554000    1.1670544   -7.3788042    187.40158  0.028189167  0.028578075            2 
  555000    1.1864758   -7.3689024     187.5837  0.028165721  0.028569528            2 
  556000    1.1633558   -7.3308704    188.64705  0.028274437  0.028561314            2 
  557000    1.1782761    -7.353087    188.52253  0.028205047  0.028552736            2 
  558000    1.1627223   -7.2992747    189.07916  0.028237628   0.02854462            1 
  559000    1.1444488    -7.372568    188.74838  0.028137803  0.028536856            2 
  560000    1.1632034   -7.3394771    189.81267  0.028245933  0.028528921            2 
  561000    1.1656574   -7.3964092    189.89955  0.028208489  0.028521048            3 
  562000    1.1481998   -7.3580632    190.40064  0.028232598  0.028513234            1 
  563000    1.1791706   -7.3381122    190.70541  0.028227562  0.028505949            1 
  564000    1.1849015   -7.3627023    191.01811  0.028223716  0.028498809            2 
  565000    1.1670759   -7.3538288    191.11589  0.028188184  0.028491523            1 
  566000    1.1386067   -7.3414681     191.8235  0.028242564  0.028484673            1 
  567000    1.1860154   -7.3369657    192.03517  0.028223863  0.028477371            1 
  568000    1.1517828   -7.3392741    192.06095  0.028177956   0.02846998            2 
  569000    1.1792441   -7.3322939    192.31508  0.028165653  0.028463136            2 
  570000    1.1785308   -7.3628702    192.32035   0.02811701  0.028455599            1 
  571000     1.188058   -7.3581275    192.78306  0.028135298  0.028448799            2 
  572000    1.1481778   -7.3850213     193.6246  0.028208712  0.028442214            2 
  573000    1.1599851   -7.3698997    194.05453  0.028222009  0.028435304            7 
  574000     1.149762   -7.3142749    194.74667  0.028273326  0.028429116            4 
  575000    1.1452656    -7.357506    194.99473  0.028260106  0.028422857            2 
  576000    1.1418621   -7.4351942    194.42732  0.028128953  0.028416423            1 
  577000    1.1653313   -7.3733311    196.10802  0.028322938  0.028409817            1 
  578000    1.1448719   -7.3654364    195.50842  0.028187488  0.028403502            2 
  579000    1.1673541    -7.347873    195.91392  0.028197168  0.028397162            4 
  580000    1.1502938   -7.3661919    196.76265  0.028270495  0.028391211            3 
  581000    1.1526675   -7.3598227    196.26258  0.028150112  0.028385098            1 
  582000    1.1726871   -7.3294841    196.98954  0.028205833  0.028379109            1 
  583000     1.148893   -7.3650789    197.36424  0.028211012  0.028372745            3 
  584000    1.1691047   -7.4083351    196.79533  0.028081525  0.028366029            2 
  585000    1.1467318   -7.3433569    197.30017  0.028105437  0.028359038            2 
  586000    1.1662956   -7.3729895    197.84531  0.028134999  0.028351892            2 
  587000     1.128508   -7.3656205    197.84394  0.028086874  0.028344503            1 
  588000    1.1626923    -7.383323    197.55893  0.027998715  0.028337231            1 
  589000    1.1748491   -7.4195665    197.88824   0.02799777  0.028330097            1 
  590000    1.2041664   -7.3694464    198.10316  0.027980673  0.028322689            1 
  591000    1.1588054    -7.393891    198.55556  0.027997118  0.028315003            3 
  592000     1.135111   -7.3588898    198.80643  0.027985139  0.028307586            2 
  593000    1.1609661   -7.3740346    199.15394  0.027986782  0.028299808            4 
  594000    1.1558342   -7.3384733    200.24819  0.028093181  0.028292334            1 
  595000    1.1677003   -7.3242549    200.65132  0.028102425  0.028285252            3 
  596000    1.1819224   -7.3843558    200.39686  0.028019696  0.028278772            2 
  597000     1.151116   -7.3993088    200.86371  0.028037927  0.028271999            1 
  598000    1.1802655   -7.3619386    201.65277  0.028100999  0.028265405            3 
  599000    1.1531593    -7.407558    201.36988   0.02801473   0.02825881            3 
  600000    1.1816501     -7.37541      202.386  0.028109167  0.028252765            2 
  601000    1.1808903   -7.3668672    203.01649  0.028149818  0.028246447            3 
  602000    1.1577886   -7.3576403    203.45299  0.028163482   0.02824059            2 
  603000    1.1912641   -7.3686986    203.31241  0.028097348  0.028234419            2 
  604000    1.1480626   -7.3262856    203.84863  0.028124811  0.028228591            1 
  605000    1.1388468   -7.4162336    203.81354  0.028073491  0.028222289            3 
  606000    1.1390332   -7.3942498    203.82154  0.028028265  0.028215854            2 
  607000    1.1451483   -7.4221074    204.49456  0.028074486  0.028209538            3 
  608000    1.2018386   -7.4064774    204.96232  0.028092424  0.028203672            5 
  609000    1.1401787   -7.3705683    205.47593  0.028116574  0.028197807            2 
  610000    1.1405917   -7.3775955    205.54902  0.028080467  0.028191938            1 
  611000    1.1499516   -7.3688414    205.68032  0.028052417  0.028186146            2 
  612000    1.1853617   -7.3950301    206.17098   0.02807339  0.028179875            2 
  613000    1.1487433   -7.3885826    206.49539  0.028071695  0.028173621            1 
  614000     1.151921   -7.3582821    206.78178  0.028064846  0.028167176            3 
  615000    1.1623905   -7.3873898    206.55998  0.027989157  0.028160504            2 
  616000    1.1445737    -7.436418    206.49146  0.027934451  0.028153112            3 
  617000    1.1365151   -7.3672698    206.78383  0.027928664  0.028146132            2 
  618000    1.1596301   -7.3685478    206.82779    0.0278894  0.028139307            3 
  619000    1.1427475    -7.374389    206.75963  0.027835168  0.028132211            1 
  620000    1.1437684   -7.4012157    206.44653  0.027748189  0.028124363            1 
  621000     1.142135    -7.367041    207.25867  0.027812489   0.02811681            3 
  622000    1.1439577   -7.4147647    207.10899  0.027747722  0.028108868            2 
  623000     1.123906    -7.386654    208.37809  0.027872939  0.028101137            1 
  624000    1.1515519    -7.384995     207.2213  0.027673784  0.028093174            2 
  625000    1.1386827   -7.4006062    208.66029  0.027821372  0.028085195            8 
  626000    1.1564151   -7.3501603     208.7676  0.027791214  0.028077276            1 
  627000    1.1486407   -7.3357928    209.07447  0.027787676  0.028069348            3 
  628000    1.1633607   -7.4040004    208.98653  0.027731758   0.02806184            2 
  629000    1.1586909   -7.3485087    209.02144  0.027692295  0.028054592            2 
  630000    1.1521942   -7.3419042    210.06529  0.027786415  0.028046392            3 
  631000    1.1658362   -7.3890715    210.24611  0.027766258  0.028038421            3 
  632000    1.1198125    -7.411969    210.83998  0.027800631  0.028030324            2 
  633000    1.1592665   -7.3868783    210.76475  0.027746808  0.028022446            2 
  634000    1.1678209   -7.3521869    211.06894  0.027743026  0.028015033            2 
  635000    1.1494415   -7.4205858    211.20967  0.027717804  0.028007579            1 
  636000    1.1352768   -7.3542879    211.90485   0.02776531  0.027999958            1 
  637000    1.1408996   -7.3615869    212.31395  0.027775242  0.027992284            1 
  638000    1.1835618   -7.3914081    211.36257  0.027607442  0.027984425            2 
  639000    1.1208647   -7.4133748    211.37181  0.027565442  0.027976012            6 
  640000     1.138648   -7.3714828    212.71103  0.027696749  0.027967914            3 
  641000     1.145597   -7.3547109    213.15202  0.027710871  0.027959757            2 
  642000    1.1424957   -7.3763816    213.22562  0.027677261  0.027952305            2 
  643000    1.1647996   -7.3988524    213.50744  0.027670741  0.027944715            7 
  644000    1.1595765   -7.3849511    214.25164  0.027724074  0.027937189            1 
  645000    1.1486664   -7.3699436    214.57517   0.02772289  0.027929904            3 
  646000    1.1325947   -7.3743834    214.98827  0.027733264  0.027922096            2 
  647000    1.1588494   -7.3895487     214.1394  0.027581066  0.027914663            2 
  648000    1.1778848   -7.3913277    215.26334  0.027683042  0.027907197            1 
  649000    1.1790785   -7.3883887    214.12809  0.027494619  0.027899559            2 
  650000    1.1360759   -7.3968624    215.52852  0.027631862  0.027891786            2 
  651000    1.1394484   -7.3469163    215.91536  0.027638935  0.027884223            1 
  652000    1.1330982   -7.4309981    216.07531  0.027616988  0.027876457            1 
  653000    1.1735241   -7.3875812    216.58797  0.027640119  0.027869107            1 
  654000    1.1321593   -7.4119346    216.01003  0.027524214  0.027861439            2 
  655000    1.1533899   -7.4020573    217.60767  0.027685454  0.027853838            3 
  656000    1.1354019   -7.4087422    217.96139  0.027688185  0.027846645            3 
  657000    1.1570073   -7.3892054    217.77993  0.027623025  0.027839092            3 
  658000    1.1311689   -7.3877254    218.23487  0.027638661  0.027832144            3 
  659000    1.1413848   -7.4088059    217.89604  0.027553874   0.02782494            2 
  660000    1.1342282   -7.4222678    217.61973  0.027477238  0.027817606            2 
  661000    1.1639898   -7.3728388    219.10618  0.027623069      0.02781            4 
  662000    1.1350059    -7.381501    218.95879  0.027562788  0.027802918            2 
  663000     1.180447   -7.4004213    218.78013  0.027498759   0.02779574            2 
  664000    1.1397368   -7.3727656    220.02062   0.02761303  0.027788875            3 
  665000    1.1501141   -7.4169165    220.01678  0.027571026   0.02778177            3 
  666000    1.1470376    -7.400121    220.80245  0.027627934  0.027774795            2 
  667000    1.1308484   -7.4417143    220.54811  0.027554736  0.027768135            2 
  668000    1.1468959   -7.4436313    220.70447  0.027532993  0.027761042            1 
  669000    1.1384906   -7.4196464    221.19397  0.027552811  0.027754044            1 
  670000    1.1543091   -7.3553719    223.03083  0.027740153   0.02774736            4 
  671000      1.15257   -7.4375036    221.83142  0.027549853   0.02774091            2 
  672000     1.170636   -7.4160255    221.58862  0.027478747  0.027734167            2 
  673000     1.163515   -7.3776251    223.22921  0.027641061  0.027727353            1 
  674000    1.1491361   -7.4032379    222.74985  0.027540782  0.027720429            2 
  675000     1.117417   -7.3999696    223.65001  0.027611112  0.027713705            1 
  676000    1.1453884   -7.4213451    223.23926  0.027519633  0.027707191            1 
  677000     1.135076   -7.3874267    224.18997  0.027596008  0.027701185            1 
  678000    1.1478045   -7.4049486    224.67018  0.027614329   0.02769495            3 
  679000    1.1448862   -7.4173323     224.8924  0.027600933  0.027688862            4 
  680000    1.1514852   -7.4362209     224.4516  0.027506324  0.027682675            2 
  681000    1.1345616   -7.3995727    226.09142  0.027666595  0.027676597            4 
  682000    1.1301547   -7.3938169    225.55444  0.027560415  0.027671266            2 
  683000    1.1438992   -7.4238886    226.71309  0.027661432  0.027665494            2 
  684000    1.1296647    -7.433134    226.34816   0.02757653  0.027659302            1 
  685000    1.1681453   -7.4078876     226.6472  0.027572652  0.027653264            1 
  686000    1.1358455   -7.3898194    226.54988  0.027520637  0.027647299            6 
  687000    1.1546318   -7.4092323    227.59924  0.027607865  0.027641181            2 
  688000    1.1373667    -7.402467    227.82813  0.027595461  0.027635253            2 
  689000    1.1491716   -7.4019169    227.04533  0.027460732  0.027629138            4 
  690000      1.11502   -7.4287779    227.79922  0.027511983  0.027622915            2 
  691000    1.1281191   -7.4468293    227.72374  0.027463066  0.027616866            7 
  692000     1.115037   -7.4236691     228.8494  0.027558936   0.02761094            1 
  693000     1.104991   -7.3782481    230.44758   0.02771135  0.027605361            2 
  694000    1.1294562   -7.4514168    228.81997   0.02747598  0.027599584            5 
  695000    1.1426295   -7.4169016    229.72095  0.027544478  0.027593421            1 
  696000    1.1478659   -7.3993722    229.93939  0.027531057  0.027587406            2 
  697000     1.143165   -7.3967638    230.19211  0.027521773  0.027581607            3 
  698000    1.1509642    -7.410218    230.54463   0.02752443  0.027576188            4 
  699000    1.1328735   -7.3950849    231.31741  0.027577183  0.027570433            1 
  700000    1.1298482   -7.4048381    230.84894  0.027482016  0.027564508            2 
  701000    1.1355976    -7.422802    231.69173  0.027543001  0.027558487            3 
  702000    1.1506209   -7.4062224    231.44426   0.02747439  0.027552369            2 
  703000     1.124598   -7.4516113    231.34205  0.027423192  0.027546313            1 
  704000     1.117245   -7.4469337    231.31752  0.027381336  0.027540274            2 
  705000    1.1500915   -7.4281782    232.46495  0.027478127  0.027534062            2 
  706000    1.1348832   -7.3591454    232.99369  0.027501615  0.027527965            3 
  707000      1.13647   -7.4026032    233.19432  0.027486365   0.02752206            1 
  708000    1.1560979   -7.3885955    233.54659  0.027489005  0.027515907            3 
  709000    1.1183921   -7.4219153    233.18312  0.027407513  0.027509658            2 
  710000    1.1343589   -7.4530045    233.65276  0.027424033  0.027503608            4 
  711000    1.1430142   -7.4196004    233.61262  0.027380757  0.027497042            2 
  712000    1.1037131    -7.427879    233.60904  0.027341882  0.027490449            2 
  713000    1.1142181   -7.4302028    234.31204  0.027385699  0.027483751            2 
  714000    1.1114786   -7.4406729    234.00776   0.02731183  0.027476855            2 
  715000    1.1610159   -7.4623913    234.16828   0.02729234  0.027469988            2 
  716000    1.1295163   -7.3946048    234.53512  0.027296918  0.027462961            1 
  717000    1.1163126   -7.4092021    235.04469  0.027318072   0.02745594            2 
  718000    1.1548414   -7.3690661    235.69602   0.02735562  0.027449135            3 
  719000    1.1259635   -7.4058178    236.15147   0.02737036  0.027442464            3 
  720000    1.1300369   -7.4491934    235.92317  0.027305923  0.027436105            2 
  721000    1.1246368   -7.4391238    236.55752  0.027341368  0.027429867            1 
  722000    1.1402988   -7.4152847    236.91137  0.027344341  0.027423717            3 
  723000    1.1415683   -7.4057131    237.02599  0.027319732  0.027417614            2 
  724000    1.1241938   -7.4678757    237.13663  0.027294732  0.027411418            2 
  725000    1.1523889   -7.4005672     237.8176  0.027335356  0.027405156            3 
  726000    1.1396752   -7.3977754    238.47149   0.02737276  0.027398816            2 
  727000    1.1203895     -7.42389    236.95117   0.02716084  0.027392183            2 
  728000    1.1340357    -7.461955     236.8502  0.027111973  0.027385327            2 
  729000    1.1404153   -7.4280763    238.23867  0.027233501  0.027378211            3 
  730000    1.1391701   -7.4496947    238.59989   0.02723743  0.027371389            3 
  731000    1.1301332   -7.3945309    239.65475  0.027320423  0.027364742            3 
  732000    1.1260228   -7.4279415    239.48744  0.027264053  0.027358539            1 
  733000    1.1414275   -7.4182722    240.37535  0.027327802  0.027352486            2 
  734000    1.1240474    -7.400431    239.91107   0.02723786  0.027346562            6 
  735000    1.1444882    -7.427815    240.34939  0.027250498   0.02734038            2 
  736000    1.1417545   -7.4390923    240.76532  0.027260566  0.027333923            3 
  737000    1.1253499   -7.4185808    240.34705  0.027176283   0.02732722            1 
  738000    1.1674357    -7.351222    241.64017  0.027285476  0.027320735            2 
  739000     1.129829    -7.459244     240.4993  0.027119903  0.027314233            2 
  740000    1.1497772   -7.3869855    241.69247   0.02721762  0.027307918            1 
  741000    1.1430651   -7.4407849    241.46888  0.027155744  0.027301388            2 
  742000    1.1221197   -7.4446938    240.95337   0.02706125  0.027294437            2 
  743000    1.1278482   -7.4377415    242.04903  0.027147715   0.02728771            1 
  744000    1.1191836   -7.3965426    242.50333  0.027162112  0.027281149            2 
  745000    1.1178748   -7.4584133     242.5579  0.027131756  0.027274746            4 
  746000    1.1226836   -7.4261599    242.92531  0.027136428   0.02726796            1 
  747000    1.1586669   -7.4474922    243.12501   0.02712238  0.027261136            2 
  748000    1.1058953   -7.4444498    243.06371   0.02707929  0.027254477            1 
  749000    1.1612119   -7.4799426    243.45992  0.027087219  0.027247773            8 
  750000    1.1330218   -7.4598973    244.10433  0.027122704  0.027241192            3 
  751000    1.1337262   -7.4392337    244.13577  0.027090077  0.027234617            2 
  752000    1.1408538   -7.4397083    244.52427  0.027097104   0.02722794            2 
  753000    1.1241794   -7.4201086    244.88408  0.027100938  0.027221063            4 
  754000    1.1373256   -7.4413407    244.94127  0.027071316    0.0272142            3 
  755000    1.1498354   -7.4199604    244.66577  0.027005052  0.027206873            5 
  756000    1.1252746   -7.4069836    245.44878  0.027055641  0.027199841            2 
  757000    1.1158714   -7.4058041    245.03627   0.02697449  0.027192777            4 
  758000    1.1382304   -7.4446004    245.22714  0.026959888  0.027185494            1 
  759000    1.1457004   -7.4332004    245.57073  0.026962092  0.027178309            4 
  760000    1.1450891   -7.4517235    245.81127   0.02695299  0.027171183            2 
  761000    1.1265737   -7.4487909    245.64923  0.026899828  0.027163609            3 
  762000    1.1330215   -7.4250524    246.54824  0.026962843  0.027156235            1 
  763000    1.1349324   -7.4543969    246.07721  0.026876061  0.027149074            3 
  764000    1.1324169   -7.4379114    246.47826  0.026884627  0.027141609            2 
  765000    1.1153441   -7.4326186    247.28462  0.026937323  0.027134523            4 
  766000    1.1563543   -7.4078911    247.54815  0.026930826  0.027127243            1 
  767000    1.1372626   -7.4142245    248.37444  0.026985489  0.027120425            3 
  768000     1.126452   -7.4773898    248.11608  0.026922318  0.027113692            1 
  769000    1.1363226   -7.4382421    249.07368  0.026991079  0.027106684            4 
  770000    1.1222864   -7.4498415     248.9408  0.026941645  0.027099801            3 
  771000    1.1100819   -7.4479922    249.47933  0.026964908  0.027093008            4 
  772000    1.1113163   -7.4358129    248.77367  0.026853808  0.027086176            2 
  773000    1.1400444   -7.4784438    249.88857  0.026939259  0.027079541            1 
  774000     1.137738   -7.4737254    249.69214  0.026883305  0.027072991            3 
  775000    1.1456602   -7.4345413    251.39169  0.027031364  0.027066281            1 
  776000    1.1475389   -7.4223329    251.56245  0.027014868  0.027059774            3 
  777000    1.1478751   -7.4164245     251.8827  0.027014446  0.027053556            3 
  778000    1.1051812   -7.4254318    252.34574  0.027029321  0.027047451            4 
  779000    1.1428541   -7.4288037    252.93896  0.027058083  0.027041455            4 
  780000    1.1317183   -7.4552145    252.65722  0.026993293   0.02703554            1 
  781000    1.1207817   -7.4615912    252.49606  0.026941535  0.027029601            1 
  782000    1.1098737   -7.4585676     253.1925  0.026981298  0.027023451            2 
  783000    1.1419672   -7.4858115    253.12213   0.02693935  0.027017286            1 
  784000    1.1222835   -7.4283195    254.29418  0.027029568  0.027011392            1 
  785000    1.1515565   -7.4590817    253.92183  0.026955609  0.027005567            1 
  786000    1.1199174    -7.483571    253.95029  0.026924331  0.026999686            1 
  787000    1.1850325   -7.4675773    254.38057  0.026935681  0.026993725            4 
  788000    1.1429771   -7.4798751    253.77228   0.02683717  0.026987799            4 
  789000    1.1121249   -7.4226192    254.99335  0.026932124  0.026981725            2 
  790000    1.1116724    -7.452088    254.35391  0.026830581  0.026975273            3 
  791000    1.1234206   -7.3812165     256.2546  0.026996903  0.026968938            4 
  792000    1.1360801   -7.4023899    255.64824  0.026899015  0.026962827            1 
  793000    1.1433704   -7.4523374    256.37491  0.026941458  0.026956428            1 
  794000    1.1456665   -7.4525396    256.24091  0.026893463  0.026950087            2 
  795000    1.1291099   -7.4723125     255.7131  0.026804308  0.026943843            1 
  796000    1.1226884   -7.4212636    256.78438  0.026882787  0.026937563            2 
  797000    1.1273421   -7.4818141    256.43088  0.026812095  0.026931552            2 
  798000    1.0974866   -7.4895028    257.35572  0.026875075  0.026925159            2 
  799000    1.1153408   -7.4834563    257.76042  0.026883648  0.026919014            2 
  800000    1.1361024   -7.4281734    259.24748  0.027004946   0.02691323            2 
  801000    1.1195725   -7.4122971    259.22226  0.026968608  0.026907588            2 
  802000    1.1267834   -7.4437089    258.71499  0.026882273  0.026901617            3 
  803000    1.1560592   -7.4273581    259.33612  0.026913254  0.026895653            2 
  804000    1.1158132   -7.4349802    259.46285  0.026892916   0.02688992            2 
  805000    1.1133713   -7.4714843    259.95935  0.026910906  0.026883968            5 
  806000    1.1204526    -7.433324     259.7714  0.026858085  0.026878138            3 
  807000    1.1305861    -7.396181    261.15498  0.026967676  0.026872294            2 
  808000    1.1133531   -7.4743021    260.22964  0.026838866  0.026866408            3 
[...]
 4800000   0.47551366   -9.5954685    491.33228 0.0085300743 0.0068022173         3601 
 4801000   0.48261404   -9.5838705    491.46341 0.0085305737 0.0067997176         3596 
 4802000   0.48933001   -9.5952909     491.7044 0.0085329793 0.0067972199         3601 
 4803000   0.48284528   -9.5896798     491.6732 0.0085306614 0.0067947206         3616 
 4804000   0.47453262   -9.5904686    491.18375 0.0085203953 0.0067922237         3645 
 4805000    0.4856011   -9.5968517    491.14134 0.0085178865 0.0067897275         3621 
 4806000   0.47581121   -9.5872992    491.67259 0.0085253258 0.0067872344         3594 
 4807000   0.48630822   -9.5954575    491.95517  0.008528451 0.0067847393         3611 
 4808000   0.48988698   -9.5897393    491.58006 0.0085201757 0.0067822482         3601 
 4809000   0.47992184   -9.5947884    490.61859 0.0085017431  0.006779759         3606 
 4810000    0.4796376   -9.5852755    491.06135 0.0085076463 0.0067772681         3605 
 4811000   0.48044185   -9.6039751    490.79275 0.0085012254 0.0067747807         3619 
 4812000   0.48016197   -9.6004645    491.59416 0.0085133375  0.006772294         3601 
 4813000   0.48175739   -9.6099776    491.00042 0.0085012885  0.006769809         3604 
 4814000   0.48118408   -9.5960394    490.77879 0.0084956859 0.0067673239         3608 
 4815000   0.47905062   -9.6015554     491.6228 0.0085085289  0.006764842         3621 
 4816000   0.48061209   -9.6219675    490.37803 0.0084852233 0.0067623601         3612 
 4817000   0.48164535   -9.6026693    490.84572 0.0084915529 0.0067598774         3642 
 4818000   0.49174207   -9.6144661    491.61615 0.0085031159 0.0067573971         3635 
 4819000   0.48055339   -9.5964972    491.47156  0.008498851 0.0067549183         3608 
 4820000   0.49524536   -9.6144968    490.64935 0.0084828726 0.0067524418         3602 
 4821000     0.470498   -9.6131677    490.55341 0.0084794546 0.0067499649         3620 
 4822000   0.48090107   -9.5988427     491.1083 0.0084872856 0.0067474888         3605 
 4823000   0.49022656   -9.6019219    490.25732 0.0084708225 0.0067450159         3614 
 4824000   0.47617487   -9.6027184    491.55706 0.0084915191 0.0067425425         3614 
 4825000   0.48178799   -9.5828404    491.01064 0.0084803219 0.0067400712         3594 
 4826000   0.48253041   -9.6155758    490.84065 0.0084756294 0.0067376022         3596 
 4827000   0.47062302   -9.6055301    491.21544 0.0084803438 0.0067351348         3581 
 4828000   0.48304844   -9.6045163    490.58955 0.0084677843 0.0067326676         3608 
 4829000    0.4813616   -9.6096522    491.26158  0.008477628 0.0067302008         3632 
 4830000   0.48308967   -9.6223313    491.76339 0.0084845305  0.006727735         3629 
 4831000   0.47973007   -9.6092146    491.93325 0.0084857044 0.0067252696         3611 
 4832000   0.48013547   -9.5940937    491.47485 0.0084760425 0.0067228081         3619 
 4833000    0.4741319   -9.6013215    490.91659  0.008464663 0.0067203469         3598 
 4834000   0.47938012   -9.6040046    490.22151 0.0084509294 0.0067178852         3625 
 4835000   0.48358703    -9.604326    491.14187 0.0084650444 0.0067154267         3611 
 4836000   0.47157629   -9.6026736    490.82599 0.0084578507   0.00671297         3595 
 4837000    0.4762263   -9.6047948    491.10274 0.0084608701  0.006710513         3622 
 4838000   0.46814453   -9.5926126    490.62541 0.0084508993  0.006708058         3601 
 4839000   0.48529277   -9.6023479    490.77903 0.0084517984 0.0067056035         3622 
 4840000   0.48236497   -9.6040259    490.93484 0.0084527349 0.0067031507         3632 
 4841000   0.47245132   -9.5949911    491.84571 0.0084666686 0.0067006993         3600 
 4842000   0.47888002   -9.6215292    489.85675  0.008430689 0.0066982486         3583 
 4843000   0.47934272   -9.5988608    491.59108 0.0084587907 0.0066957987         3607 
 4844000   0.48222073    -9.600372    490.95549 0.0084461101 0.0066933504         3612 
 4845000   0.48468777   -9.5970205    490.44678 0.0084356171 0.0066909039         3594 
 4846000   0.48309222   -9.6117059    490.75488 0.0084391746 0.0066884566         3585 
 4847000   0.47020784   -9.6055634    491.22537 0.0084455224  0.006686012         3604 
 4848000   0.47372884   -9.6063704    490.44112 0.0084302999 0.0066835685         3599 
 4849000    0.4750136   -9.6037877    490.92518   0.00843688 0.0066811266         3601 
 4850000   0.47069417    -9.607574    490.81122 0.0084331825 0.0066786881         3615 
 4851000     0.474604   -9.6124115     490.5985 0.0084277898 0.0066762488         3615 
 4852000   0.47219543    -9.597696     491.2119 0.0084365881 0.0066738092         3631 
 4853000   0.47443675   -9.6026741     491.2891 0.0084361752 0.0066713716         3606 
 4854000   0.48208887   -9.5873558    491.09452 0.0084310967 0.0066689366         3611 
 4855000   0.47786901   -9.5983508     490.8077 0.0084244371 0.0066665017         3608 
 4856000   0.47622374   -9.6106135    490.33907 0.0084146601 0.0066640671         3609 
 4857000   0.46320509   -9.6050778     490.5933 0.0084172895  0.006661633         3630 
 4858000   0.48249485    -9.609823    490.90622 0.0084209246 0.0066592008         3622 
 4859000   0.48026576   -9.6147368    491.12676 0.0084229738 0.0066567697         3625 
 4860000   0.47420848   -9.6005023    491.36966 0.0084254057 0.0066543412         3601 
 4861000   0.48068396   -9.6022092    490.16615 0.0084030404 0.0066519141         3612 
 4862000   0.47107689   -9.6136431    490.45786  0.008406312 0.0066494879         3635 
 4863000   0.48188243    -9.609609    489.93173 0.0083955673 0.0066470631         3617 
 4864000   0.47136315   -9.6171053    490.80558 0.0084088128 0.0066446387         3616 
 4865000   0.48136408   -9.6012413    491.57346 0.0084202375 0.0066422144         3624 
 4866000   0.46839601    -9.613628    490.30949 0.0083968607 0.0066397908         3609 
 4867000   0.46988729   -9.6156982    490.86667 0.0084046755 0.0066373702         3604 
 4868000   0.47778176   -9.6194225    490.37784  0.008394581 0.0066349504         3644 
 4869000   0.47148977   -9.6114215    490.68425 0.0083981011 0.0066325326         3595 
 4870000    0.4626168   -9.6074988    491.90926 0.0084173385 0.0066301158         3614 
 4871000   0.46810137   -9.6026358    490.60607 0.0083933154 0.0066277009         3608 
 4872000   0.46635637   -9.5999096    490.90133  0.008396643 0.0066252875         3624 
 4873000   0.47180298   -9.6093662    491.10014 0.0083983197  0.006622874         3631 
 4874000   0.47570882   -9.6127658    491.57023 0.0084046339 0.0066204607         3606 
 4875000   0.47941921   -9.6020087    490.32503 0.0083816245 0.0066180503         3629 
 4876000   0.47075686    -9.623181    490.87651 0.0083893306 0.0066156402         3620 
 4877000     0.473799   -9.6113522    490.61839 0.0083831999 0.0066132302         3624 
 4878000   0.46841914   -9.6162422    490.47472 0.0083790269 0.0066108224         3628 
 4879000   0.46670537   -9.6011309    491.49221 0.0083946883  0.006608415         3650 
 4880000   0.47374516   -9.6106235    491.01823 0.0083848741 0.0066060103         3623 
 4881000   0.47061059   -9.6171988    491.68649 0.0083945655 0.0066036053         3611 
 4882000   0.47886126   -9.6248699    491.02817 0.0083816088 0.0066012026         3613 
 4883000   0.45808959   -9.6219242    490.03568 0.0083629545 0.0065987994         3601 
 4884000   0.48250587   -9.6228607    491.11442 0.0083796482 0.0065963974         3622 
 4885000   0.46260857   -9.6268962     490.9311 0.0083748055 0.0065939969         3631 
 4886000   0.47065599   -9.6218133    490.34891  0.008363162 0.0065915968         3613 
 4887000   0.46840258   -9.6233206    490.68172 0.0083671257 0.0065891978         3624 
 4888000   0.46301965   -9.6024179    491.30445 0.0083760306 0.0065868014         3608 
 4889000   0.46925098    -9.607808    490.60145 0.0083623347 0.0065844077         3625 
 4890000   0.46517113   -9.6406781    491.33687 0.0083731573 0.0065820139         3627 
 4891000   0.45505663   -9.6092724    490.56697 0.0083583277 0.0065796206         3581 
 4892000   0.46051769   -9.6174303    490.94163 0.0083630014   0.00657723         3608 
 4893000   0.46255646   -9.6080715    491.00655 0.0083623978 0.0065748383         3614 
 4894000   0.46857523   -9.6278399    489.94303 0.0083425798 0.0065724491         3621 
 4895000   0.46585374   -9.6163398    490.82346 0.0083558642 0.0065700619         3609 
 4896000   0.47476536   -9.6066602    489.34609 0.0083290116 0.0065676758         3649 
 4897000   0.46723803   -9.6208383    490.94742  0.008354561  0.006565291         3610 
 4898000   0.46702353   -9.6149483    490.23484 0.0083407316  0.006562905         3621 
 4899000   0.46640087   -9.6113482    490.75843 0.0083479355 0.0065605213         3629 
 4900000   0.46792535   -9.6167713    491.15905  0.008353045 0.0065581397         3593 
 4901000   0.47531648   -9.6115081    490.48047 0.0083398026 0.0065557591         3604 
 4902000    0.4599215   -9.6160206    491.25984 0.0083513505 0.0065533801         3618 
 4903000   0.46917415   -9.6146723    490.27344  0.008332882 0.0065510009         3636 
 4904000   0.47212105   -9.6213183    489.84788 0.0083239512 0.0065486235         3619 
 4905000   0.46701647   -9.6203885    490.54473 0.0083340933 0.0065462467         3618 
 4906000   0.46842915   -9.6194953    490.62445 0.0083337486 0.0065438716         3623 
 4907000   0.47132643   -9.6315171     491.0799  0.008339785  0.006541498         3625 
 4908000   0.46564778     -9.61776    489.93902 0.0083187147 0.0065391253         3618 
 4909000   0.47104093   -9.6248072    491.02662 0.0083354827 0.0065367534         3635 
 4910000   0.47081708   -9.6219367    490.47863 0.0083244846 0.0065343817         3615 
 4911000   0.46279666   -9.6275442    491.24349 0.0083357682 0.0065320128         3589 
 4912000   0.45624277   -9.6165712       490.93 0.0083287527 0.0065296448         3627 
 4913000   0.46359767   -9.6123027    490.61026 0.0083216342 0.0065272775         3602 
 4914000   0.46389175   -9.6097511    490.58526 0.0083195167 0.0065249111         3640 
 4915000    0.4578059   -9.6372038    491.21951 0.0083285776 0.0065225464         3591 
 4916000   0.46550266   -9.6285849    490.57756 0.0083160015 0.0065201824         3614 
 4917000   0.46350781   -9.6173625      490.748 0.0083171988 0.0065178195         3619 
 4918000   0.47296585   -9.6183707    490.98587 0.0083195382 0.0065154585         3622 
 4919000   0.46596603   -9.6269209    490.71932 0.0083133313  0.006513097         3615 
 4920000   0.46602755   -9.6217664    490.75622 0.0083122666 0.0065107373         3632 
 4921000   0.46484167   -9.6089175    490.80254 0.0083113618 0.0065083791         3614 
 4922000   0.45392656   -9.6257482    490.25408 0.0083003874 0.0065060229         3632 
 4923000   0.45083077   -9.6221113    490.42431 0.0083015829 0.0065036658         3628 
 4924000   0.46018078   -9.6221286    490.85614 0.0083072051 0.0065013123         3646 
 4925000    0.4644323   -9.6340278    491.06251 0.0083090103 0.0064989596         3640 
 4926000   0.47058612   -9.6222836     490.7398 0.0083018642 0.0064966082         3625 
 4927000   0.47205067   -9.6203104     491.2087 0.0083081101 0.0064942573         3599 
 4928000   0.47373089   -9.6240559    490.23219 0.0082899113 0.0064919069         3643 
 4929000   0.47241412    -9.620371    491.17314 0.0083041378 0.0064895599         3623 
 4930000   0.46784684   -9.6282906    491.14635 0.0083020004 0.0064872122         3632 
 4931000   0.46930917   -9.6264294    490.50646 0.0082895027 0.0064848642         3595 
 4932000   0.46189526   -9.6273508    490.78761 0.0082925725  0.006482519         3622 
 4933000   0.47346589   -9.6203938    490.52398  0.008286438 0.0064801745         3610 
 4934000    0.4621331    -9.627223    490.39482  0.008282577 0.0064778323         3642 
 4935000   0.45659422   -9.6385062    490.79608 0.0082876744 0.0064754895         3594 
 4936000   0.45882423   -9.6230032     490.6922 0.0082842417 0.0064731483         3610 
 4937000   0.46678613   -9.6068689    491.15493 0.0082903741 0.0064708101         3618 
 4938000   0.45569099   -9.6277345    490.31667 0.0082745488 0.0064684723         3629 
 4939000   0.45680887   -9.6200989    489.94031 0.0082665234 0.0064661365         3618 
 4940000   0.45461451   -9.6348747    490.44499 0.0082733635 0.0064638009         3599 
 4941000   0.45822765   -9.6270856    490.52703 0.0082730728 0.0064614659         3613 
 4942000   0.46774639   -9.6244508    490.71412 0.0082745534 0.0064591339         3629 
 4943000   0.44854242    -9.611237    490.35234 0.0082667803 0.0064568021         3611 
 4944000   0.45188148   -9.6243296    489.95597 0.0082584272 0.0064544715         3586 
 4945000   0.46546367    -9.624966    490.28307 0.0082622695 0.0064521419         3616 
 4946000   0.44846703   -9.6278637    490.39219 0.0082624376 0.0064498121         3632 
 4947000   0.46128992   -9.6296222    490.03386 0.0082547312 0.0064474831         3637 
 4948000   0.46172658   -9.6341161    490.44974 0.0082600671 0.0064451555         3611 
 4949000   0.45877035   -9.6353815    489.74611   0.00824655 0.0064428307         3626 
 4950000   0.47291696   -9.6308754     490.2809 0.0082538873 0.0064405049         3619 
 4951000   0.46900812   -9.6211576    490.42193 0.0082545938 0.0064381813         3623 
 4952000   0.45647741    -9.619706    490.95636 0.0082619204 0.0064358588         3600 
 4953000   0.45272652   -9.6306429    490.50609 0.0082526767 0.0064335372         3645 
 4954000   0.46206754   -9.6138146    490.58994 0.0082524213  0.006431216         3606 
 4955000   0.46176284    -9.628264     490.4893 0.0082490632  0.006428897         3629 
 4956000   0.47854456   -9.6210993    489.92409 0.0082378949 0.0064265797         3620 
 4957000   0.44988024   -9.6469529     490.1731 0.0082404192  0.006424263         3607 
 4958000   0.47004894    -9.627378    489.80819 0.0082326238 0.0064219463         3627 
 4959000   0.46692918   -9.6285579    490.11907 0.0082361878 0.0064196325         3611 
 4960000   0.46331426   -9.6312211    490.54194  0.008241632 0.0064173181         3619 
 4961000   0.46218567   -9.6014203    490.82053 0.0082446504 0.0064150051         3622 
 4962000    0.4636529   -9.6158264     490.2651 0.0082336608  0.006412694         3607 
 4963000   0.45452832   -9.6333225    490.69177 0.0082391659 0.0064103828         3635 
 4964000   0.45903601   -9.6343823    490.69894 0.0082376266 0.0064080746         3617 
 4965000   0.45857796   -9.6285552    489.78743 0.0082206685 0.0064057669         3611 
 4966000   0.45411625   -9.6190819    490.36885 0.0082287698 0.0064034614         3595 
 4967000   0.45803148   -9.6522205    490.65193 0.0082318625 0.0064011559         3602 
 4968000   0.45931431   -9.6155641    490.78495 0.0082324367 0.0063988513         3609 
 4969000   0.45966872   -9.6237356    490.06764 0.0082187502 0.0063965474         3653 
 4970000    0.4580277   -9.6428805    490.32018  0.008221331 0.0063942451         3602 
 4971000   0.45009589   -9.6363337    490.36563  0.008220439 0.0063919425         3636 
 4972000   0.44972734   -9.6367729    490.24581 0.0082167775 0.0063896427         3612 
 4973000   0.45667753   -9.6236219    490.11544 0.0082129405 0.0063873438         3621 
 4974000   0.45963679   -9.6292024    489.94926 0.0082085052 0.0063850453         3646 
 4975000    0.4691204   -9.6282492    490.57586  0.008217351 0.0063827489         3595 
 4976000    0.4553181   -9.6346241    490.73207 0.0082183157 0.0063804544         3615 
 4977000   0.45384374   -9.6518842    490.26889 0.0082089091 0.0063781614         3627 
 4978000   0.46410963   -9.6356353    490.06478 0.0082038433 0.0063758673         3589 
 4979000   0.44699105   -9.6389191    489.94901 0.0082002579  0.006373575         3619 
 4980000   0.44870995   -9.6520214     489.8692 0.0081972758 0.0063712827         3624 
 4981000   0.45172829   -9.6604838    490.60864  0.008208001 0.0063689915         3624 
 4982000   0.44996745   -9.6414156    490.74423 0.0082086215 0.0063667021         3629 
 4983000   0.45286197   -9.6393453    490.38204 0.0082009172 0.0063644162         3589 
 4984000   0.46191735   -9.6581001    491.04887 0.0082104212 0.0063621282         3605 
 4985000   0.46227952   -9.6388846    490.21725 0.0081948721 0.0063598426         3585 
 4986000   0.46166526   -9.6394795    490.17759 0.0081925658 0.0063575569         3620 
 4987000    0.4466587   -9.6543553    490.40156 0.0081946654 0.0063552748         3611 
 4988000   0.45594914   -9.6552521    490.42499  0.008193414 0.0063529919         3600 
 4989000   0.45692408   -9.6503029      490.076 0.0081859425 0.0063507104         3606 
 4990000   0.44994955   -9.6368088    490.16784 0.0081858356 0.0063484299         3614 
 4991000    0.4585209   -9.6465689    490.01822 0.0081816974  0.006346151         3614 
 4992000   0.46238152   -9.6431231    490.60625 0.0081898747 0.0063438738         3613 
 4993000   0.45954521    -9.627445    490.01857  0.008178426 0.0063415974         3607 
 4994000    0.4513068   -9.6460681    490.29565 0.0081814119 0.0063393238         3597 
 4995000   0.44769583   -9.6396434    490.54523 0.0081839378 0.0063370496         3620 
 4996000   0.44811986    -9.632557    490.49182 0.0081814088 0.0063347776         3608 
 4997000   0.45472914   -9.6347799    490.01028 0.0081717411 0.0063325054         3610 
 4998000   0.45247336   -9.6322836    490.44587 0.0081773688 0.0063302333         3620 
 4999000   0.44920931   -9.6468316    489.40648 0.0081584063 0.0063279618         3614 
 5000000    0.4433836   -9.6524988    489.57876 0.0081596461 0.0063256934         3591 
 5001000   0.45312398   -9.6336832    489.54301 0.0081574187  0.006323425         3602 
 5002000   0.45355137   -9.6413715     489.9231 0.0081621202 0.0063211584         3607 
 5003000   0.45485356   -9.6320411    490.22149 0.0081654589 0.0063188938         3596 
 5004000   0.44914701    -9.653356    489.38111  0.008149832 0.0063166294         3596 
 5005000   0.45384853   -9.6500347    490.33092  0.008164018 0.0063143656         3621 
 5006000   0.44544992   -9.6440943    489.90055  0.008155223 0.0063121046         3616 
 5007000    0.4458519   -9.6496704     490.1782 0.0081582151 0.0063098439         3616 
 5008000   0.45692272   -9.6607735    489.99849 0.0081535958 0.0063075823         3607 
 5009000   0.45625768   -9.6474608    489.96666 0.0081514384 0.0063053234         3599 
 5010000   0.45499485   -9.6318646     490.5219 0.0081590468 0.0063030656         3607 
 5011000   0.46002603   -9.6370045    489.62936 0.0081425757 0.0063008085         3624 
 5012000   0.44446943   -9.6482459    489.16512 0.0081332323 0.0062985514         3616 
Loop time of 12979.4 on 48 procs for 5000000 steps with 4000 atoms

Performance: 66567.138 tau/day, 385.226 timesteps/s
99.4% CPU use with 48 MPI tasks x no OpenMP threads

MPI task timing breakdown:
Section |  min time  |  avg time  |  max time  |%varavg| %total
---------------------------------------------------------------
Pair    | 903.28     | 973.06     | 1088.5     | 145.4 |  7.50
Neigh   | 83.802     | 88.486     | 94.609     |  28.8 |  0.68
Comm    | 767.76     | 921.29     | 1017.1     | 192.0 |  7.10
Output  | 16.929     | 16.933     | 17.02      |   0.3 |  0.13
Modify  | 10788      | 10847      | 10921      |  31.3 | 83.57
Other   |            | 132.1      |            |       |  1.02

Nlocal:        83.3333 ave          91 max          73 min
Histogram: 3 0 4 6 4 5 7 13 2 4
Nghost:        2331.42 ave        2361 max        2300 min
Histogram: 3 3 6 2 5 14 3 3 6 3
Neighs:        15902.1 ave       18718 max       13275 min
Histogram: 3 3 5 9 8 4 7 3 4 2
FullNghs:      31803.5 ave       35390 max       26879 min
Histogram: 3 0 3 7 7 4 4 11 5 4

Total # of neighbors = 1526567
Ave neighs/atom = 381.64175
Neighbor list builds = 266394
Dangerous builds = 1

#clear
#
#next RN
#
#jump SELF
Total wall time: 3:36:22
