
units lj                  # Use reduced LJ style units
atom_style atomic         # Uncharged point particles
atom_modify map hash      # Needed for indexing of clusters etc
                          # Used to be able to find where atoms are in relation to each other.

# Define a lattice with which to populate the simulation cell. With units
# set to 'lj' the second argument to the lattice command is the reduced
# density rho* and the spacings are multiples of that required to acheive
# that density. Also define a simulation cell called 'box' in lattice units
# and fill it with atoms. Here we're creating a box which is ten lattice
# constants in each direction.
lattice fcc 1.0 spacing 1 1 1                 # All equal sizes - gives the right reduced density.
Lattice spacing in x,y,z = 1.5874011 1.5874011 1.5874011

region box block 0 10 0 10 0 10 units lattice # Defines a region, "box", in lattice units
create_box 1 box                              # Creates a simulation box as specified above,
Created orthogonal box = (0.0000000 0.0000000 0.0000000) to (15.874011 15.874011 15.874011)
  3 by 4 by 4 MPI processor grid
                                              # with one type of atom
create_atoms 1 box                            # Creates particles on lattice points
Created 4000 atoms
  using lattice units in orthogonal box = (0.0000000 0.0000000 0.0000000) to (15.874011 15.874011 15.874011)
  create_atoms CPU = 0.002 seconds


# Set the mass of the first (and only) atom type.
mass 1 1.0

# Lennard-Jones interactions between particles, 3.5 sigma cut-off. Apply
# long range tail corrections to energy and pressure and set all coefficients
# to unity since we work in reduced units here. Note that this doesn't shift
# the potential such that it goes to zero at the cutoff. That would require
# pair_modify('shift', 'yes').
pair_style lj/cut  3.5      # non-GPU version
pair_modify tail  yes
pair_coeff 1  1  1.0  1.0   # Intearaction between 1 and 1 set with epsilon = 1 and sigma = 1

write_data data.*
System init for write_data ...
Neighbor list info ...
  update every 1 steps, delay 10 steps, check yes
  max neighbors/atom: 2000, page size: 100000
  master list distance cutoff = 3.8
  ghost atom cutoff = 3.8
  binsize = 1.9, bins = 9 9 9
  1 neighbor lists, perpetual/occasional/extra = 1 0 0
  (1) pair lj/cut, perpetual
      attributes: half, newton on
      pair build: half/bin/atomonly/newton
      stencil: half/bin/3d
      bin: standard

#############################
#   M E L T   S Y S T E M   #
#############################

velocity all create 2.4 5833274 mom yes dist gaussian # Assign velocities
                                                    # Temperature 2.4, random number seed, zero linear momentum
						                                                        # Gaussian distribution

timestep 0.002   # simulation timestep
thermo 1000       # output thermodynamic data every 1000 steps

# Define a fix  in this case with index 1 applied to all
# particles in the simulation. This fix is for simulations
# in the anisotropic NPT ensemble. Note that we use the MTK
# correction.
fix 1 all npt temp 2.4 2.4 0.1 iso 5.68 5.68 0.5 mtk yes tchain 5 pchain 5 # Use NPT ensemble
                                                                         # Set temperature and pressure and damping
                                                                         # Numbers of thermostats in chain and in barostat
run 1000         # run for 10000 steps
Per MPI rank memory allocation (min/avg/max) = 3.642 | 3.644 | 3.648 Mbytes
Step Temp E_pair E_mol TotEng Press Volume 
       0          2.4   -8.3859253            0   -4.7868253   -2.2405722         4000 
    1000    2.3797751   -4.4966384            0  -0.92786813    5.4591985    5168.8144 
Loop time of 0.239037 on 48 procs for 1000 steps with 4000 atoms

Performance: 722901.948 tau/day, 4183.460 timesteps/s
99.2% CPU use with 48 MPI tasks x no OpenMP threads

MPI task timing breakdown:
Section |  min time  |  avg time  |  max time  |%varavg| %total
---------------------------------------------------------------
Pair    | 0.089802   | 0.099629   | 0.10954    |   1.2 | 41.68
Neigh   | 0.01734    | 0.018768   | 0.020232   |   0.4 |  7.85
Comm    | 0.064916   | 0.074753   | 0.086214   |   1.6 | 31.27
Output  | 2.4547e-05 | 2.5421e-05 | 3.2442e-05 |   0.0 |  0.01
Modify  | 0.041577   | 0.044309   | 0.046971   |   0.7 | 18.54
Other   |            | 0.001553   |            |       |  0.65

Nlocal:        83.3333 ave          95 max          76 min
Histogram: 5 3 8 10 11 3 4 3 0 1
Nghost:        1390.04 ave        1421 max        1371 min
Histogram: 5 8 6 7 8 4 4 3 1 2
Neighs:        7371.42 ave        8414 max        6707 min
Histogram: 8 7 3 4 13 5 4 1 0 3

Total # of neighbors = 353828
Ave neighs/atom = 88.457000
Neighbor list builds = 87
Dangerous builds = 16

# Equilibrate just above the melting temperature to avoid step fn in T

fix 1 all npt temp 1.25 1.25 0.1 iso 5.68 5.68 0.5 mtk yes tchain 5 pchain 5
run 1000
Per MPI rank memory allocation (min/avg/max) = 3.642 | 3.644 | 3.648 Mbytes
Step Temp E_pair E_mol TotEng Press Volume 
    1000    2.3797751   -4.4966384            0  -0.92786813    5.4591985    5168.8144 
    2000    1.2516439   -5.8169213            0   -3.9399248    5.7560827    4346.0008 
Loop time of 0.210569 on 48 procs for 1000 steps with 4000 atoms

Performance: 820635.128 tau/day, 4749.046 timesteps/s
99.6% CPU use with 48 MPI tasks x no OpenMP threads

MPI task timing breakdown:
Section |  min time  |  avg time  |  max time  |%varavg| %total
---------------------------------------------------------------
Pair    | 0.093932   | 0.09908    | 0.10523    |   0.8 | 47.05
Neigh   | 0.015529   | 0.016029   | 0.016654   |   0.2 |  7.61
Comm    | 0.065007   | 0.071733   | 0.078204   |   1.1 | 34.07
Output  | 2.387e-05  | 2.4389e-05 | 3.0331e-05 |   0.0 |  0.01
Modify  | 0.018886   | 0.021709   | 0.024258   |   1.0 | 10.31
Other   |            | 0.001992   |            |       |  0.95

Nlocal:        83.3333 ave          89 max          74 min
Histogram: 1 1 1 3 8 4 13 5 8 4
Nghost:        1549.94 ave        1572 max        1533 min
Histogram: 3 3 10 7 6 10 5 1 1 2
Neighs:        8760.96 ave        9501 max        7906 min
Histogram: 1 3 6 6 7 6 6 5 3 5

Total # of neighbors = 420526
Ave neighs/atom = 105.13150
Neighbor list builds = 74
Dangerous builds = 4


# Small amount of linear quench

fix 1 all npt temp 1.25 ${temp} 0.1 iso 5.68 5.68 0.5 mtk yes tchain 5 pchain 5
fix 1 all npt temp 1.25 1.65 0.1 iso 5.68 5.68 0.5 mtk yes tchain 5 pchain 5
run 2000
Per MPI rank memory allocation (min/avg/max) = 3.643 | 3.645 | 3.648 Mbytes
Step Temp E_pair E_mol TotEng Press Volume 
    2000    1.2516439   -5.8169213            0   -3.9399248    5.7560827    4346.0008 
    3000    1.4654414   -5.5807366            0   -3.3831241     5.643184    4479.8462 
    4000    1.6574847   -5.2439801            0   -2.7583746    5.7789687    4638.3331 
Loop time of 0.428725 on 48 procs for 2000 steps with 4000 atoms

Performance: 806110.671 tau/day, 4664.992 timesteps/s
99.7% CPU use with 48 MPI tasks x no OpenMP threads

MPI task timing breakdown:
Section |  min time  |  avg time  |  max time  |%varavg| %total
---------------------------------------------------------------
Pair    | 0.18678    | 0.20175    | 0.21376    |   1.2 | 47.06
Neigh   | 0.030715   | 0.031619   | 0.032786   |   0.3 |  7.38
Comm    | 0.13596    | 0.1467     | 0.15867    |   1.4 | 34.22
Output  | 4.598e-05  | 4.7086e-05 | 5.8641e-05 |   0.0 |  0.01
Modify  | 0.040045   | 0.044478   | 0.049303   |   1.1 | 10.37
Other   |            | 0.004136   |            |       |  0.96

Nlocal:        83.3333 ave          92 max          76 min
Histogram: 4 5 3 9 3 12 3 5 3 1
Nghost:        1484.33 ave        1515 max        1460 min
Histogram: 2 6 4 4 14 9 3 5 0 1
Neighs:        8193.69 ave        9143 max        7338 min
Histogram: 2 5 6 6 12 4 4 2 3 4

Total # of neighbors = 393297
Ave neighs/atom = 98.324250
Neighbor list builds = 143
Dangerous builds = 0

#############################
# F R E E Z E  S Y S T E M  #
#############################

# Define solid atoms. This closely follows ten Wolde  Ruiz-Montero and Frenkel  Faraday Discuss  1996  104  93-110
# Compute components of the per-atom q6 vector
compute q6 all orientorder/atom degrees 1 6 components 6 nnn NULL cutoff 1.3 # compute the Q6 parameter.
                                                                             # Use all neighbours within 1.3 unit cell.

# get number of connections
compute coord_number all coord/atom orientorder q6 0.5

# An atom is solid if it has 8 or more connections (of a possible 14)
variable is_solid atom c_coord_number>=8
group solid dynamic all var is_solid    # Must be dynamic to update
dynamic group solid defined

# do clustering
compute cluster solid cluster/atom 1.3 # Create a cluster where all atoms within are solid and max 1.3 units from another member

# define chunks one chunk per cluster
compute clus_chunks solid chunk/atom c_cluster nchunk every compress yes  # Says which atoms are in which chunk

# count the size of each chunk
compute size_chunks solid property/chunk clus_chunks count


# Find the maximum entry in the vector of chunk sizes
variable max_n equal max(c_size_chunks)


# Thermo style which includes this variable
thermo_style custom step temp pe vol v_max_n

thermo ${N}  # Print the thermo information every 100 steps
thermo 1000  

# Reset the npt fix at a lower temperature (below freezing)
fix 1  all npt temp  ${temp} ${temp}  0.1  iso  5.68  5.68  0.5  mtk yes tchain  5  pchain  5
fix 1  all npt temp  1.65 ${temp}  0.1  iso  5.68  5.68  0.5  mtk yes tchain  5  pchain  5
fix 1  all npt temp  1.65 1.65  0.1  iso  5.68  5.68  0.5  mtk yes tchain  5  pchain  5

dump dmp2 all dcd ${N} traj_${rand}.dcd
dump dmp2 all dcd 1000 traj_${rand}.dcd
dump dmp2 all dcd 1000 traj_462431.dcd


# fix rnuntil all halt ${N} v_max_n >= 3980 error soft message no   # Stop when solidified


run 1000000 # 5000000  # Run for this many steps
Neighbor list info ...
  update every 1 steps, delay 10 steps, check yes
  max neighbors/atom: 2000, page size: 100000
  master list distance cutoff = 3.8
  ghost atom cutoff = 3.8
  binsize = 1.9, bins = 9 9 9
  4 neighbor lists, perpetual/occasional/extra = 1 3 0
  (1) pair lj/cut, perpetual
      attributes: half, newton on
      pair build: half/bin/atomonly/newton
      stencil: half/bin/3d
      bin: standard
  (2) compute orientorder/atom, occasional
      attributes: full, newton on
      pair build: full/bin/atomonly
      stencil: full/bin/3d
      bin: standard
  (3) compute coord/atom, occasional
      attributes: full, newton on
      pair build: full/bin/atomonly
      stencil: full/bin/3d
      bin: standard
  (4) compute cluster/atom, occasional
      attributes: full, newton on
      pair build: full/bin/atomonly
      stencil: full/bin/3d
      bin: standard
Per MPI rank memory allocation (min/avg/max) = 9.335 | 9.341 | 9.347 Mbytes
Step Temp PotEng Volume v_max_n 
    4000    1.6574847   -5.2439801    4638.3331            3 
    5000    1.6644895   -5.2652108    4620.1842            2 
    6000    1.6355079   -5.2422286    4654.0805            2 
    7000    1.6618595   -5.2554221    4628.8009            1 
    8000    1.6537424   -5.2810974    4616.1847            2 
    9000    1.6877901   -5.2531006    4648.0142            1 
   10000    1.6348995   -5.2518663    4644.5754            2 
   11000    1.6561361   -5.2416725    4655.2447            1 
   12000    1.6089821   -5.2503677    4626.3424            2 
   13000    1.6508097   -5.2267069    4648.9677            2 
   14000    1.6749256   -5.2476112    4673.0187            2 
   15000    1.6825751      -5.2455    4657.4953            1 
   16000    1.6588978   -5.2514202    4652.8627            3 
   17000    1.6784797   -5.2373534    4645.6679            2 
   18000    1.6303861   -5.2131364    4659.9039            2 
   19000    1.6143202   -5.2639687    4643.8408            2 
   20000    1.6288373    -5.182265    4659.7293            1 
   21000    1.6773667   -5.2517152    4660.9195            2 
   22000    1.6398791    -5.242514    4633.0804            4 
   23000    1.6241127   -5.2442431    4636.9825            2 
   24000    1.6606218   -5.2277445    4661.0691            1 
   25000    1.6458549    -5.202423    4668.5221            2 
   26000    1.6522068   -5.2125002    4630.0325            1 
   27000    1.6916665   -5.2465459    4643.8023            1 
   28000     1.651652   -5.2301901    4651.8282            2 
   29000    1.6434372   -5.2417291    4611.3786            2 
   30000    1.6223351    -5.237361    4664.3175            2 
   31000    1.6461262   -5.2481585     4658.767            2 
   32000    1.6341321   -5.1966272    4697.5618            2 
   33000    1.6396622   -5.2520275    4629.0135            2 
   34000    1.6358031   -5.2232048     4660.157            3 
   35000    1.6474025   -5.2466646    4663.8062            1 
   36000    1.6594982   -5.2315593    4626.9309            2 
   37000    1.6523692   -5.2314641    4678.1833            2 
   38000    1.6745178   -5.2573697    4648.9218            3 
   39000     1.675229   -5.2827735    4667.7381            1 
   40000    1.6476257   -5.2507833    4643.7466            2 
   41000    1.6313159   -5.2486579    4672.8136            1 
   42000    1.6344759   -5.2263649    4660.8366            3 
   43000    1.6436075   -5.2479208    4642.0493            1 
   44000    1.6558779   -5.2469083    4643.8039            1 
   45000    1.6721427   -5.2620469    4665.1496            2 
   46000    1.6408376   -5.2646597    4638.6562            1 
   47000    1.6380367   -5.2503854    4646.0492            2 
   48000    1.6499899   -5.2402742    4637.4046            1 
   49000    1.6474334   -5.2179286    4644.0822            1 
   50000    1.6642298   -5.2485549    4634.6021            1 
   51000    1.6337516    -5.241976    4681.6799            1 
   52000    1.6245802   -5.2434625     4636.081            2 
   53000    1.6450512   -5.2294181    4665.7642            1 
   54000    1.6890471   -5.2333804    4659.3453            2 
   55000    1.6760427   -5.2349846    4647.5174            1 
   56000    1.6497911   -5.2236975    4657.0049            2 
   57000     1.611384   -5.2226882    4624.5143            2 
   58000    1.6279794   -5.2506786    4658.2647            1 
   59000    1.6516126   -5.2479502    4635.1253            2 
   60000    1.6572999   -5.2113124    4638.2239            3 
   61000    1.6635009   -5.2595308    4648.0638            1 
   62000     1.609373   -5.2418471    4639.7352            2 
   63000    1.7059918      -5.2141    4653.7775            3 
   64000     1.657991   -5.2383913    4664.8609            1 
   65000    1.6376264   -5.2436742    4653.0624            1 
   66000     1.639191   -5.2561277    4617.9974            1 
   67000    1.6740697   -5.2565204    4650.7527            1 
   68000    1.6754641   -5.2429367    4651.2052            1 
   69000    1.6321365   -5.1994523    4672.2664            1 
   70000    1.6452403   -5.2430176    4638.9481            2 
   71000    1.6790548   -5.2134035    4657.0376            1 
   72000    1.6716561   -5.2633057    4628.5828            2 
   73000     1.644212   -5.2094707    4677.4755            1 
   74000    1.6130909   -5.2016991    4657.9327            2 
   75000    1.6444255   -5.2616667    4637.9413            2 
   76000    1.6459068   -5.2047511     4657.545            1 
   77000    1.6457982   -5.2480219    4644.8257            2 
   78000    1.6595279   -5.2036838    4642.3236            1 
   79000    1.6144258   -5.2379783    4649.5062            1 
   80000    1.6216421   -5.2434993    4661.9674            1 
   81000    1.6479678   -5.2316481    4665.9782       -1e+20 
   82000    1.6730442   -5.2234662    4669.3023            1 
   83000    1.6609299   -5.2356785     4641.955            1 
   84000    1.6430142   -5.2680018    4652.2107            2 
   85000    1.6563396   -5.2822258    4630.6492            1 
   86000    1.6165657   -5.2544746    4642.4669            2 
   87000    1.6254191   -5.2577828    4631.8375            1 
   88000    1.6751683   -5.2918661     4652.971            2 
   89000    1.6686976   -5.2483371    4644.3654            1 
   90000    1.6234774   -5.2569595     4673.618            2 
   91000    1.6677988   -5.2138069    4649.6884            1 
   92000    1.6587459   -5.2108996    4641.9883            2 
   93000    1.6661501   -5.2398139    4627.4326            1 
   94000    1.6328726   -5.2250016    4662.0544            1 
   95000    1.6400313   -5.2424127     4646.183            1 
   96000    1.6768775   -5.2589724    4640.7624            2 
   97000    1.6377947   -5.2920686    4643.2354            2 
   98000     1.633057   -5.2159404       4673.5            1 
   99000    1.6328626   -5.2740453    4662.3549            1 
  100000    1.6382276   -5.2475452     4646.911            1 
  101000    1.6664863   -5.2259711    4666.2444            1 
  102000    1.6219435   -5.2146907    4696.8644            2 
  103000    1.6312018   -5.2551274    4632.2323            1 
  104000    1.6542067   -5.2331803    4640.4374            2 
  105000    1.6372385   -5.2295131    4649.2915            1 
  106000    1.6525824   -5.2516974    4620.5736            2 
  107000    1.6328033   -5.2289507    4654.8054            4 
  108000    1.6584214   -5.2329151    4656.7269            1 
  109000    1.6080639   -5.2289225    4643.0153       -1e+20 
  110000    1.6124947   -5.2575487    4657.7845            2 
  111000    1.5930301   -5.2650962    4652.1664            1 
  112000     1.636688   -5.3002586    4645.1977            1 
  113000    1.6335942   -5.2481136     4650.571            1 
  114000    1.6560721   -5.2427049    4651.3798            2 
  115000    1.6446453   -5.2032841    4625.3351            2 
  116000    1.6497148   -5.2042631    4662.8174            1 
  117000    1.6539407   -5.2569595     4666.013            4 
  118000    1.6734769   -5.2134753    4657.3654            1 
  119000    1.6149837   -5.2527501    4637.9504            1 
  120000     1.675192   -5.2477064    4671.5552            2 
  121000    1.6534785   -5.2326564    4654.3804            1 
  122000    1.6524047   -5.2636957    4626.6304            1 
  123000    1.6433381    -5.249278    4643.1656            2 
  124000    1.6690774   -5.2476129    4659.1673            1 
  125000    1.6083185   -5.2438814    4631.3162            3 
  126000    1.6546505    -5.217443    4686.3577            3 
  127000    1.6841835   -5.2182652    4625.3666            1 
  128000    1.7001654   -5.1983829    4657.3367            1 
  129000     1.682186   -5.2071602    4673.4868            1 
  130000    1.6693354   -5.2336523    4664.3276            1 
  131000       1.6684   -5.1963353    4698.6229            1 
  132000    1.6428845   -5.2980119    4650.8423            2 
  133000    1.5943915   -5.2844737    4664.6131            1 
  134000    1.6319928   -5.2675356    4666.5819            1 
  135000    1.6329557   -5.2405094    4659.4374            1 
  136000    1.6481946   -5.2206363    4677.0493            2 
  137000    1.6441343   -5.2732906    4657.8083            2 
  138000    1.6459402   -5.2815369    4634.3909            2 
  139000     1.617428   -5.2783143    4626.7008            1 
  140000    1.6597382   -5.2040774    4668.2388            1 
  141000    1.6474185   -5.2512341    4651.9582            1 
  142000    1.6576424   -5.2425745    4640.8022            2 
  143000    1.6135948   -5.2201561    4646.7561            4 
  144000    1.6444865   -5.2324477    4620.5519            1 
  145000    1.6151549    -5.238745     4651.467            2 
  146000    1.6451849    -5.276154    4621.6304            1 
  147000    1.6396981   -5.2581384    4642.1971            2 
  148000    1.6374435   -5.2237214    4638.7905            1 
  149000    1.6704246   -5.2793288    4648.0743            2 
  150000    1.6757549   -5.2213063    4646.6121            3 
  151000    1.6459821   -5.2742152    4648.9457            2 
  152000    1.6362378   -5.2314603    4661.6491            1 
  153000     1.633761   -5.2433611    4638.2234            2 
  154000    1.6681756   -5.2603958    4630.8609            3 
  155000    1.6128651   -5.2274692    4637.0055            4 
  156000    1.6705949   -5.2495412    4639.6017            1 
  157000    1.6331021   -5.2361062     4636.651            1 
  158000    1.6783242   -5.2771565    4611.8886            1 
  159000    1.6499899   -5.2545756    4653.6425            3 
  160000    1.6422912   -5.2778372    4651.3917            2 
  161000     1.641562     -5.23209     4622.704            1 
  162000    1.7015481   -5.2587908    4647.7949            2 
  163000     1.635636   -5.2426323     4649.323       -1e+20 
  164000    1.6645025   -5.2655611    4649.4209            1 
  165000    1.6518279   -5.2489231    4653.3365            1 
  166000    1.6857164   -5.2436919    4623.0782            3 
  167000    1.6882847   -5.2791339    4683.2627            2 
  168000    1.6706864   -5.2274922    4644.2809            3 
  169000    1.6583423   -5.2344474    4664.1922            1 
  170000    1.6069062   -5.2544934    4657.0061            2 
  171000    1.6169037   -5.2948792    4644.1245            2 
  172000    1.6360615   -5.2295154    4649.0522            2 
  173000    1.6900834   -5.2077717    4637.9788            1 
  174000     1.648943   -5.2433646    4651.9739            2 
  175000    1.6530196   -5.2049345    4675.5023            1 
  176000    1.6747342   -5.2269617    4663.2092            2 
  177000     1.661582   -5.2455778     4648.008            3 
  178000    1.6534694   -5.2581328    4657.1779            1 
  179000    1.6546356   -5.2554823    4670.2508            2 
  180000     1.645172   -5.2500139    4645.3134            2 
  181000    1.6839746   -5.2846813    4659.1143            1 
  182000    1.6583102   -5.2779797    4617.1852            2 
  183000    1.6565597   -5.2593193    4632.4812            2 
  184000    1.6701133   -5.2934393    4664.7902            1 
  185000    1.6348514   -5.2125206     4652.629            1 
  186000    1.6366192   -5.1939566    4676.4481            1 
  187000    1.6685838   -5.2389126    4679.7605            1 
  188000    1.6745183   -5.2508392    4665.1439            1 
  189000    1.6528177   -5.2526761    4643.0213            1 
  190000    1.6497667   -5.2564182    4654.2684            1 
  191000    1.6437821   -5.2645554    4605.2463            2 
  192000    1.6180247    -5.211166    4656.5076            2 
  193000    1.6582027   -5.2129379    4641.5272            2 
  194000    1.6703741   -5.2641959    4637.3198            1 
  195000    1.6554566   -5.2753627    4646.0308            1 
  196000    1.6151522   -5.2594179    4660.3191            1 
  197000    1.6349796   -5.2448568    4650.1414            1 
  198000    1.6821272   -5.2737473    4640.3102            1 
  199000    1.6292879   -5.3227948    4615.7568            2 
  200000    1.6445323   -5.2868035      4617.73            1 
  201000    1.6295113    -5.249344    4630.5006            2 
  202000    1.6157871    -5.241098    4663.3532            1 
  203000    1.6000137   -5.2377585    4652.2649            2 
  204000    1.6485255   -5.2348377    4652.6196            3 
  205000    1.6258861   -5.2390092    4650.2939            1 
  206000    1.6753134   -5.2346512    4639.2893            1 
  207000    1.6467304   -5.2478523    4637.7261            4 
  208000    1.6402383   -5.2970595    4608.2753            2 
  209000    1.6502247    -5.279461    4625.2376            1 
  210000    1.6531646   -5.2624123     4638.391            1 
  211000    1.6355027   -5.2561445    4658.8775            1 
  212000    1.6606678   -5.2461443    4657.7425            2 
  213000    1.6961611   -5.2523415    4644.0577            1 
  214000    1.6270678   -5.2733547    4622.5712            1 
  215000    1.6563178   -5.2474043    4617.2555            4 
  216000    1.6619405   -5.2243657    4655.4735            2 
  217000    1.6806366   -5.2087699    4644.7195            1 
  218000    1.6452869   -5.2268161     4682.727            2 
  219000    1.6311538   -5.2409621     4672.906            1 
  220000    1.6784157   -5.2591704    4669.9406            3 
  221000    1.6654461    -5.267344    4636.2179            1 
  222000    1.6027848    -5.237145    4638.1981            1 
  223000    1.6864736   -5.2400011    4664.0194       -1e+20 
  224000    1.6636568    -5.296981    4610.1701            1 
  225000    1.6553392   -5.2465726    4651.3595            3 
  226000    1.6270498   -5.2273267    4648.8931            1 
  227000    1.6962465   -5.2491894    4666.1044            1 
  228000    1.6629658   -5.2660891    4643.0329            2 
  229000    1.6621128   -5.2383957    4644.8617            3 
  230000     1.617965   -5.2541183    4619.8683            1 
  231000    1.6159214   -5.2827572    4641.2349            1 
  232000     1.683537   -5.2662387    4655.8828            4 
  233000    1.6534364    -5.200944    4664.7666            1 
  234000    1.6470475   -5.2384161    4658.6336            1 
  235000    1.6387956   -5.2698235    4631.5394            2 
  236000    1.6369335   -5.2522922    4625.7835            1 
  237000    1.6203317   -5.2480937    4654.7038            1 
  238000    1.6396868   -5.2171025    4649.7785            1 
  239000      1.64943   -5.2566582    4643.1971            1 
  240000    1.6503351   -5.2420473    4651.9355            1 
  241000    1.6764577   -5.2091234    4668.4555            3 
  242000    1.6262984   -5.2511246    4630.4114            3 
  243000    1.6476505   -5.2144346    4650.4748            4 
  244000    1.6201892   -5.2584338    4654.2286            1 
  245000    1.6594927   -5.2287421    4651.7763            2 
  246000    1.6695302    -5.271983    4660.7764            2 
  247000    1.6040396   -5.2546588    4657.2781            1 
  248000    1.6808763   -5.2594598    4649.1162            1 
  249000    1.6525011   -5.3221729    4630.0072            2 
  250000    1.6582199   -5.2848319    4613.6476            1 
  251000    1.6472171   -5.2395289    4639.0158            1 
  252000    1.6094392    -5.249966    4640.1237            2 
  253000    1.6371397   -5.2155694    4663.7486            1 
  254000    1.6483963   -5.1982334     4673.113       -1e+20 
  255000    1.6463146    -5.295495    4607.8965            1 
  256000    1.6562372   -5.2427225     4645.254            1 
  257000    1.6624037   -5.2388949    4647.3193            1 
  258000     1.636582   -5.2503785    4669.2964            2 
  259000    1.6634576   -5.3203987     4646.511            2 
  260000    1.6564854   -5.2271683    4627.5764            1 
  261000    1.6589982   -5.2128349    4645.9175            2 
  262000    1.6284818   -5.2773067    4657.5849            1 
  263000    1.6451205   -5.1820358    4658.6138            3 
  264000    1.6508019    -5.221593    4644.6738            1 
  265000    1.6642501   -5.2457282    4645.0594            1 
  266000    1.6315697   -5.2749793    4654.1069            2 
  267000    1.6418953   -5.2329888    4649.7157            2 
  268000    1.6702654   -5.2519857    4640.0506            4 
  269000    1.6826687   -5.2323967    4648.3937            1 
  270000    1.6740766   -5.2263906    4645.2341            2 
  271000    1.6232136   -5.2795208    4661.2989            1 
  272000    1.6573193   -5.2612797    4630.7074            2 
  273000    1.6381121   -5.2198998    4668.8206            2 
  274000    1.6196249   -5.2382996    4636.3191            1 
  275000    1.6585576   -5.2361668    4668.8858            1 
  276000     1.618783   -5.2498243    4632.6671            2 
  277000    1.6396698   -5.2276375    4657.8858            1 
  278000    1.6302657   -5.2048058    4664.7407            1 
  279000    1.6205081   -5.2471368    4659.0618       -1e+20 
  280000    1.6616768   -5.2508848    4654.7253            1 
  281000    1.6687439   -5.2405312    4662.8221            1 
  282000    1.6406559   -5.2561675    4646.6365            1 
  283000    1.6508832   -5.2759881    4633.8295            1 
  284000    1.6083713   -5.2184906     4660.966            1 
  285000    1.6418923    -5.262345    4648.3949            1 
  286000    1.6321261   -5.2817126    4654.5535            1 
  287000     1.665103     -5.27292    4644.7143            1 
  288000     1.668176   -5.2541147    4652.2791            1 
  289000    1.6428334   -5.2598504    4663.8988            2 
  290000     1.657492   -5.2156743    4685.1195            1 
  291000    1.6376849   -5.2406406    4666.0841            1 
  292000    1.6467962   -5.2615842    4656.8369            1 
  293000    1.6604394   -5.2254273    4668.5702            1 
  294000     1.692765   -5.2803958    4629.9661            1 
  295000     1.642666   -5.2074707    4660.5634            1 
  296000    1.6747801   -5.2481894    4682.5708            1 
  297000    1.6297524   -5.2270911    4659.4348            4 
  298000    1.6483757   -5.2490749     4667.793            1 
  299000    1.6491749   -5.2173683    4630.6241            1 
  300000    1.6220656   -5.2593119    4655.1513            1 
  301000    1.6484169   -5.2567447    4649.4687            2 
  302000    1.6195722   -5.2580136    4606.1064            1 
  303000    1.6076865   -5.2417996    4654.5751            1 
  304000     1.657907   -5.2360213    4666.3363            2 
  305000    1.6441322   -5.2414815    4658.2141            1 
  306000     1.675241   -5.2073285    4678.6147            2 
  307000    1.6749619    -5.218248    4689.0922            1 
  308000    1.6414631   -5.2483271    4657.0577            2 
  309000    1.6155436   -5.2413332    4643.7246            2 
  310000    1.6592812    -5.242041    4615.6473            1 
  311000    1.6430698   -5.2361001    4621.2766            5 
  312000    1.6750357   -5.1867353    4638.4305            1 
  313000    1.6449474   -5.2819784    4631.9204            2 
  314000    1.6356471   -5.2567461    4660.0347            3 
  315000    1.6469588   -5.2852987    4651.7986            3 
  316000    1.5965117   -5.2408281    4664.1326            2 
  317000    1.6656151   -5.1742136     4660.923            1 
  318000    1.6231553   -5.1826695    4643.3336            4 
  319000    1.6838521   -5.2910633     4632.642            1 
  320000     1.636287    -5.232329    4650.2443            2 
  321000    1.6220063   -5.2358367    4653.2226            1 
  322000    1.6216454   -5.2582356    4633.6344            2 
  323000    1.6840329   -5.2618506    4629.6834            1 
  324000    1.6197624   -5.2165846      4661.87            1 
  325000    1.6291699   -5.2373557    4640.4555            1 
  326000    1.6790984   -5.2494316    4644.3812            2 
  327000    1.6606098   -5.2646202    4623.4977            4 
  328000    1.6546523   -5.3217921     4622.604            2 
  329000    1.6471695     -5.25821    4614.9891            1 
  330000    1.6325547   -5.2169943    4656.4144            4 
  331000    1.6363771   -5.2344973    4643.5685            1 
  332000     1.640778   -5.1985559    4647.5377            2 
  333000    1.6694463   -5.2318371    4622.7379            3 
  334000    1.6647979   -5.2469857    4649.2103            1 
  335000    1.6535768   -5.2377974     4631.436            3 
  336000     1.667573   -5.2557401    4634.0643            1 
  337000    1.6651989   -5.2552683     4648.486            1 
  338000    1.6593349   -5.2339511    4659.6533            2 
  339000    1.6283279   -5.2815926    4654.6187            1 
  340000    1.6564892   -5.2312042    4655.1237            1 
  341000    1.6514972   -5.2574815    4645.6553            4 
  342000    1.6509332   -5.2357132    4626.8969            2 
  343000    1.6558458   -5.2387468    4652.1918            5 
  344000    1.6668094   -5.2288623    4648.0086            1 
  345000     1.635415   -5.2577981    4635.9952            1 
  346000    1.6359571   -5.2294824    4661.9545            1 
  347000    1.7109945   -5.2215103    4641.8534            3 
  348000    1.6634622   -5.2641431    4626.9802            2 
  349000    1.6280652   -5.2768061    4637.1704            1 
  350000    1.6619431   -5.2060452     4632.003            2 
  351000    1.6131592   -5.2204085    4664.6676            1 
  352000    1.6511061   -5.2408031     4666.428            1 
  353000    1.6176074   -5.2165675    4652.9298            2 
  354000    1.6676641   -5.2357535    4652.1541            1 
  355000    1.6766677   -5.2376695     4650.071            1 
  356000    1.6598533    -5.238949    4619.6641            1 
  357000    1.6487608   -5.2479231    4629.1888            1 
  358000    1.6590305   -5.2762957    4668.5302            1 
  359000    1.6580009   -5.1986433    4655.3729            2 
  360000     1.659145   -5.2706911    4623.3272            2 
  361000    1.6565039   -5.2391897    4663.1005            3 
  362000    1.6731311    -5.272523    4628.6505            3 
  363000    1.6673213   -5.2735584    4640.3245            1 
  364000    1.6516162   -5.2196159    4649.1699            1 
  365000    1.6458135   -5.2596337    4661.7323            2 
  366000    1.6714229   -5.2597437    4639.1332            1 
  367000    1.6848239   -5.2188735    4644.1209            1 
  368000    1.6300683   -5.2388078     4629.219            1 
  369000    1.6247083   -5.2269868    4638.9965            1 
  370000    1.6239679    -5.258073    4644.7503            2 
  371000     1.649552   -5.2692616    4635.8302            2 
  372000    1.6583417   -5.2427456     4659.514            2 
  373000    1.6493912   -5.2721818    4665.1089            1 
  374000    1.6377325   -5.2238091    4659.2323            1 
  375000    1.6119943   -5.2315801    4662.0556            1 
  376000    1.6532751   -5.2385525    4644.1589            1 
  377000    1.6649919   -5.2268165    4648.3302            1 
  378000    1.6653576   -5.2595544    4642.7406            4 
  379000    1.6999952   -5.2354581    4665.4718            4 
  380000    1.6651071    -5.217647    4644.3069            2 
  381000    1.6573747    -5.216107    4658.6067            1 
  382000    1.6297457   -5.2548752    4645.8501            2 
  383000    1.6576291   -5.2754736    4665.0945            1 
  384000    1.6508515   -5.2593099    4653.6341            1 
  385000    1.6330657   -5.2323497    4635.4809            1 
  386000    1.6723652   -5.2894276    4635.7092            2 
  387000     1.667795    -5.189153    4671.5685            1 
  388000    1.6561761    -5.247813    4662.6989            2 
  389000    1.6507469   -5.2411678    4639.4588            3 
  390000    1.6123521   -5.2292507    4619.8842            2 
  391000    1.6332803   -5.2762958    4643.1629            1 
  392000    1.6761873   -5.2672424     4630.492            2 
  393000    1.6427809   -5.2272979    4624.8288            3 
  394000    1.6540442   -5.2845463    4670.5478       -1e+20 
  395000    1.6651407   -5.2600968    4660.9315            1 
  396000    1.6540953   -5.2569261    4635.5957            1 
  397000    1.7029156   -5.2086353    4687.2245            1 
  398000     1.668699   -5.2377069    4650.9551            2 
  399000    1.6515505   -5.2208993    4664.1648            2 
  400000    1.6500869   -5.2511098    4634.2436            2 
  401000    1.6673906   -5.2496228    4632.0594            1 
  402000    1.6286688   -5.2793712    4641.3397            1 
  403000    1.6549126   -5.1994748    4648.3879            5 
  404000    1.6478708   -5.2657629    4650.4044            2 
  405000    1.6432423   -5.2952367    4647.2163            1 
  406000    1.6377968   -5.2587617     4672.499            2 
  407000    1.6966528   -5.2270138    4647.2765            2 
  408000    1.6817337   -5.2286471    4655.6562            1 
  409000    1.6184833   -5.2984496    4634.8935            2 
  410000    1.6675558   -5.2274588    4673.7609            1 
  411000    1.6515802   -5.2496842    4636.9253            2 
  412000    1.6579859      -5.2376    4650.2421            1 
  413000    1.6671677   -5.2150249    4660.3641            1 
  414000    1.6560663   -5.2342928    4657.3092            1 
  415000    1.6714027   -5.2329866    4636.7617            2 
  416000    1.6558543   -5.1950152    4691.9679            1 
  417000    1.6551068   -5.2401556    4667.9756            2 
  418000    1.6548913    -5.256558    4653.8937            1 
  419000    1.6373489   -5.2242007    4659.1995            1 
  420000    1.6487987   -5.3035444    4604.9042            1 
  421000    1.6751403   -5.2828246    4636.4211            5 
  422000    1.6581282   -5.2593275     4634.336            3 
  423000    1.6956236   -5.1984462    4669.8334            1 
  424000    1.6566624    -5.263279    4631.5176            2 
  425000    1.6344614   -5.2019958    4659.4329            1 
  426000     1.685247   -5.2525563    4647.8337            1 
  427000    1.6559437   -5.2824612    4646.3154            1 
  428000    1.6080086   -5.3309444    4622.4744            4 
  429000    1.6791642    -5.258369    4660.0808            1 
  430000    1.6371885   -5.2875828    4624.0578            3 
  431000    1.6591068    -5.253042    4644.4936            1 
  432000    1.6637715   -5.2668091    4654.4991            1 
  433000    1.6358629   -5.2261363    4672.1949            1 
  434000     1.647913    -5.277704    4621.4478            1 
  435000    1.6676143   -5.2479035    4640.9062            1 
  436000    1.6215443   -5.2544335    4658.2036            2 
  437000    1.6412544   -5.2334794    4689.4085            2 
  438000    1.6600828   -5.2252831    4666.1418            1 
  439000     1.650646   -5.2427051    4645.2744            2 
  440000    1.6825217   -5.2132623    4670.2359            1 
  441000     1.643812   -5.2261262    4645.5689            1 
  442000    1.6406491   -5.2674539    4645.9754            1 
  443000    1.6548192   -5.2485079    4635.7342            1 
  444000    1.6529059   -5.2837671    4635.3639            1 
  445000    1.6415822   -5.2758198    4665.2526            5 
  446000    1.6807609   -5.2381158    4636.9524            1 
  447000    1.6469391   -5.2144979    4637.3374            2 
  448000    1.6501916     -5.24515    4621.8453            1 
  449000    1.6583655   -5.2609708    4637.7707            1 
  450000    1.6518541   -5.2295249    4634.4169            1 
  451000    1.6426435   -5.1990004    4655.0433            1 
  452000    1.6524048   -5.2270769    4652.7184            2 
  453000    1.6778983   -5.2111829    4661.3753            2 
  454000    1.6649626   -5.2975051    4634.0687            1 
  455000     1.656915   -5.2455567    4657.7978            4 
  456000     1.637945   -5.2333549    4651.3956            3 
  457000      1.64552   -5.2051867    4683.0049            1 
  458000    1.6551037   -5.2199802    4659.5899            1 
  459000    1.6438108   -5.2349707    4664.3994            2 
  460000    1.6514737   -5.2478364    4624.2552            1 
  461000    1.6396556   -5.2662706    4653.0031            1 
  462000    1.6303082     -5.20599    4663.3511            1 
  463000     1.633077   -5.2043889    4666.6193            1 
  464000    1.6731918   -5.2614388    4682.4064            1 
  465000    1.6622035   -5.2579347    4667.3066            4 
  466000    1.6608902   -5.2371674    4649.0375            2 
  467000     1.654682   -5.2315561    4680.9699            1 
  468000    1.6883439    -5.263483    4633.4217            1 
  469000    1.6190197   -5.2348236    4662.7958            1 
  470000    1.6751191   -5.2721291    4634.9941            2 
  471000    1.6541134   -5.2862459    4629.6499            2 
  472000    1.6674992   -5.2830557     4620.158            1 
  473000    1.6397972   -5.2492411     4644.645            2 
  474000    1.6472469   -5.2907387    4631.9902            1 
  475000    1.6213214   -5.2294463    4678.4748            1 
  476000    1.6398396   -5.2791958     4595.957            1 
  477000    1.6691041   -5.2533539    4647.6311            1 
  478000    1.6741474   -5.2474093    4653.2177            1 
  479000    1.6548434   -5.2332595    4658.8059            4 
  480000    1.6438171   -5.2243786    4677.1743            1 
  481000    1.6506731   -5.2322484    4615.1108            2 
  482000    1.6664364    -5.215542    4651.0813            2 
  483000    1.6155544   -5.2589412    4635.9389            3 
  484000    1.6839705   -5.2341014    4623.5079            2 
  485000    1.6579888   -5.2568305    4620.9392            2 
  486000    1.6541754   -5.2444277    4646.2474            1 
  487000     1.612685   -5.2221641    4684.7816            2 
  488000    1.6540089   -5.2592851    4664.6337            1 
  489000     1.641212   -5.2647333      4625.74            1 
  490000    1.6388117   -5.2614655    4668.3661            1 
  491000    1.6330435   -5.2216639    4680.6403            1 
  492000    1.6739403   -5.2973867    4609.7321            1 
  493000    1.6689417   -5.2473056    4673.9238            2 
  494000     1.656184    -5.207434    4645.9981            1 
  495000     1.649016   -5.2745206    4623.5591            1 
  496000    1.6577933   -5.2702918    4620.9175            1 
  497000    1.6309159    -5.264761    4629.6242            1 
  498000    1.6221006   -5.2181309    4630.0195            2 
  499000    1.6967427   -5.2467886    4653.6733            1 
  500000    1.6237145    -5.247143    4663.2025            2 
  501000    1.6442165   -5.2741602    4607.4286            2 
  502000    1.6281215    -5.237793    4624.6939            1 
  503000    1.6599268   -5.2506407    4649.5405            1 
  504000    1.6363117   -5.3200634    4640.2662            1 
  505000    1.6458401   -5.2756114    4622.7841            2 
  506000    1.6478022   -5.2517436    4675.4002            1 
  507000    1.6816276   -5.2635595    4660.9194            1 
  508000    1.6239296   -5.2767236    4647.5022            2 
  509000    1.6314089   -5.2341616    4665.6798            2 
  510000    1.6335502   -5.2469466    4640.2143            2 
  511000    1.6649678   -5.1931797    4672.4069            1 
  512000    1.6486707   -5.2239285    4656.9213            1 
  513000    1.6700051   -5.2436575     4647.069            1 
  514000    1.6480222   -5.2147807    4628.1673            1 
  515000    1.6946252   -5.2877842    4636.7931            1 
  516000    1.6510143   -5.2306019    4640.1666            1 
  517000    1.6576218   -5.2343334    4661.9091            2 
  518000    1.6734071   -5.1688615    4662.8089            2 
  519000    1.6416723   -5.1941843    4661.0163            2 
  520000    1.6511395   -5.2517525    4624.2999            4 
  521000    1.6420434   -5.2614005    4664.2385            2 
  522000    1.6072053   -5.2121574    4653.1003            1 
  523000    1.6524754   -5.2758138    4638.8365            1 
  524000    1.6283666   -5.2073782     4654.587            1 
  525000    1.6818218   -5.2944496    4635.6548            2 
  526000    1.6336936   -5.2723044    4653.8138            1 
  527000    1.6248275   -5.2174694    4650.3423            1 
  528000    1.6439083    -5.234344    4653.8702            1 
  529000    1.6666647   -5.2769285    4648.5854            1 
  530000    1.6383415   -5.2834408    4663.0688            2 
  531000     1.648336   -5.2345118    4658.3721            2 
  532000    1.6532045   -5.2294018    4651.1186            1 
  533000     1.651046   -5.2671111    4639.8482            1 
  534000    1.6506085   -5.2491183    4659.6201            1 
  535000    1.6456487   -5.2274075    4655.5773            1 
  536000    1.6400415   -5.2735663    4623.0289            2 
  537000    1.6519708   -5.2124985    4669.2988            3 
  538000    1.6618235   -5.2698413    4652.3525            2 
  539000    1.6606342   -5.2731021    4634.7759            2 
  540000     1.647093   -5.2534725    4654.5211            1 
  541000    1.6516954   -5.2620017    4650.2825            1 
  542000      1.60769   -5.2184555    4663.5176            2 
  543000     1.654566   -5.2063945    4668.4909            1 
  544000    1.6504327   -5.2350963    4653.5064            1 
  545000    1.6414182   -5.2270453    4652.9617            1 
  546000    1.6255897   -5.2891885    4627.7622            1 
  547000    1.6900636   -5.2129053    4668.8027            1 
  548000    1.6458406   -5.2378872    4645.9143            1 
  549000    1.6629142   -5.1936031    4648.5541            1 
  550000    1.6329026   -5.2293284    4660.3705            1 
  551000    1.6504628   -5.2790333    4631.5714            1 
  552000    1.6455742   -5.2434462    4614.7886            2 
  553000    1.6729097   -5.2266736    4670.1427            1 
  554000    1.6762262    -5.210703    4685.7513            1 
  555000     1.647536   -5.2245375    4668.5835            1 
  556000    1.6231438   -5.2205527     4656.419            1 
  557000    1.6595177     -5.21197    4635.3575            3 
  558000    1.6676797   -5.2527979     4655.022            1 
  559000    1.6280307   -5.2819652    4650.1193            2 
  560000     1.639621   -5.2298593    4658.2768            3 
  561000    1.6563844   -5.2109113    4670.9227            2 
  562000    1.6351346     -5.23809    4639.9665            1 
  563000    1.6744765   -5.2619549    4680.8236            2 
  564000    1.6479466   -5.2270428    4639.0748            3 
  565000    1.6271737   -5.2719031    4656.9887            2 
  566000    1.6313928   -5.2514928    4661.7319       -1e+20 
  567000    1.6552413   -5.2408192    4667.9299            1 
  568000    1.6560678   -5.2741352     4633.483            2 
  569000    1.6641676   -5.2241173    4660.7147            1 
  570000    1.6589812   -5.2153689    4665.8678            2 
  571000    1.6028602   -5.2436048    4659.5554            3 
  572000    1.6346483   -5.2345876     4651.802            3 
  573000    1.6551812    -5.271596    4630.6323            1 
  574000    1.6668592   -5.2601157    4637.6341            1 
  575000    1.6625181   -5.2284705     4694.561            1 
  576000    1.6341613    -5.244471    4659.1428            1 
  577000       1.6418   -5.2163868     4636.969            2 
  578000    1.6620496   -5.2565174    4633.5495            1 
  579000    1.6526523   -5.2388601    4672.3398            1 
  580000    1.6518595   -5.2157719    4669.7676            1 
  581000    1.6712372   -5.2671904    4651.9127            4 
  582000    1.6621102   -5.2694443    4645.7704            2 
  583000    1.6582219   -5.2266495    4636.2873            1 
  584000    1.6444761   -5.2263271    4668.0453            1 
  585000    1.6653008   -5.2528197    4635.4634            1 
  586000    1.6261186   -5.1922883    4651.4143            1 
  587000    1.6116943   -5.2373972    4655.1006            2 
  588000    1.6791738   -5.1936472     4674.829            2 
  589000    1.6307941   -5.2221838    4660.2151            2 
  590000    1.6467312   -5.2380916    4678.8362            1 
  591000     1.655441     -5.28373    4627.3813            1 
  592000    1.6262645   -5.2370347    4650.4432            2 
  593000    1.6572027   -5.2812044    4640.6061            1 
  594000    1.6784398   -5.2085431     4636.968            2 
  595000    1.6939106   -5.2673575    4653.5273            2 
  596000    1.6347586   -5.2583692    4637.6929            3 
  597000    1.6336179   -5.2711091    4668.7022            3 
  598000    1.6487707   -5.1951622    4635.5338            2 
  599000    1.6467174   -5.2086851    4655.3021            1 
  600000    1.6403004   -5.2864546    4656.2502            3 
  601000    1.6475721     -5.28647    4621.2999            1 
  602000    1.6632191   -5.2507327    4636.6971            2 
  603000    1.6468764   -5.2220205    4644.3465            4 
  604000    1.6291821   -5.2274335    4657.5468            1 
  605000    1.6610913   -5.2404061    4648.6078            1 
  606000    1.6267152   -5.2452459    4632.7897            1 
  607000    1.6410862   -5.2612535    4654.9049            1 
  608000    1.6630617   -5.2009948    4662.5009            2 
  609000    1.6351261   -5.2537205    4624.2239            2 
  610000    1.6540942    -5.235096    4654.6608            1 
  611000    1.6592604   -5.2681914    4672.5606            1 
  612000    1.6688135   -5.2409759    4643.3549            2 
  613000    1.6583947   -5.2164606    4661.0066            1 
  614000    1.6530466   -5.2390981    4636.8394            2 
  615000    1.6540178   -5.2603873    4616.1419            2 
  616000    1.6498163   -5.2211357    4630.1974            1 
  617000    1.6364812   -5.2823659    4643.7268            2 
  618000    1.6092293   -5.2271863    4665.4733            1 
  619000     1.626408   -5.2231011    4667.3826            1 
  620000    1.6726687   -5.2621209    4640.0812            2 
  621000    1.6534538   -5.2292638    4654.2646            1 
  622000    1.6409619   -5.2370956    4666.8398            1 
  623000    1.6520491   -5.2529791    4641.1052            2 
  624000    1.6585226   -5.2435486    4665.4391            2 
  625000     1.662731   -5.2557717    4654.6526            1 
  626000    1.6198818   -5.2155455     4646.395            2 
  627000    1.6325298   -5.2587784    4642.9854            1 
  628000    1.6328125   -5.2366258     4674.744            1 
  629000    1.6430175   -5.2482469    4650.5488            2 
  630000    1.6691642   -5.2767919     4633.425            1 
  631000    1.6466951   -5.2484421    4662.4387            1 
  632000     1.645332   -5.2837913    4648.2899            1 
  633000    1.6579972   -5.2355207    4650.6973            1 
  634000    1.6467368   -5.2188931    4638.6443            2 
  635000    1.6673758   -5.2577922    4651.7315            2 
  636000    1.6435083   -5.2338427    4648.4958            1 
  637000    1.6803037   -5.2360362    4655.5428            1 
  638000    1.6680279   -5.2547206    4641.8345            2 
  639000    1.6549789     -5.23487    4641.4006            1 
  640000    1.6578871   -5.2311131    4668.3642            3 
  641000    1.6011307   -5.2701737     4674.087            3 
  642000    1.6213138   -5.2308621     4628.127            1 
  643000    1.6149544    -5.281005    4664.1796            1 
  644000    1.6706604    -5.283849    4636.3568            2 
  645000    1.6454498   -5.2513738    4617.6438            1 
  646000    1.6482697   -5.2517137    4625.0914            2 
  647000    1.6749453   -5.2514146    4632.2615            1 
  648000    1.6861632   -5.2178001    4659.4805            2 
  649000    1.6626972   -5.2407304    4638.8491            1 
  650000    1.6485004   -5.2575042    4657.0645            1 
  651000    1.6519448   -5.2734969    4644.2208            1 
  652000    1.6414837   -5.2635734    4630.5228            2 
  653000     1.675036   -5.2676327      4636.25            1 
  654000     1.659467   -5.2268798    4628.0755            1 
  655000    1.6331249   -5.2155401    4658.8181            1 
  656000    1.6274879   -5.2220796    4632.0251            1 
  657000    1.6344928    -5.204828    4662.4149            1 
  658000    1.6116664   -5.2352899    4658.1413            1 
  659000    1.6281166   -5.2590775    4651.1535            1 
  660000    1.6171893   -5.2209111    4664.5971            1 
  661000    1.6571882    -5.234175    4650.5257            1 
  662000     1.680593   -5.2163993    4641.3481            2 
  663000    1.6664606   -5.2288158    4643.0803            1 
  664000    1.6266717   -5.2740752    4644.1064            1 
  665000    1.6261176   -5.2499783     4646.261            1 
  666000    1.6605733   -5.2089609    4650.4266            1 
  667000    1.6691611   -5.2802535    4663.0709            1 
  668000    1.6395847   -5.2687217    4660.1527            1 
  669000    1.6579012    -5.276627    4626.4284            2 
  670000    1.6642944   -5.2641954    4647.2686            1 
  671000    1.6528527   -5.3214875    4629.7906            1 
  672000    1.6617124   -5.2796248    4647.3739            1 
  673000    1.6605141   -5.2290903    4662.2695            1 
  674000    1.6470714    -5.252418    4660.0914            2 
  675000    1.6545173    -5.223201    4666.7227            2 
  676000    1.6244037   -5.2250026    4628.9509            1 
  677000      1.64595   -5.2721635    4646.3494            1 
  678000    1.6546828   -5.2489627    4648.5284            1 
  679000    1.6481172   -5.2230398    4653.5506            1 
  680000    1.6412196   -5.2174794    4656.2472            1 
  681000    1.6688542   -5.2194538    4647.5131            3 
  682000    1.6293074   -5.2250004    4653.0273            2 
  683000    1.6722257   -5.2190625    4662.8818            3 
  684000     1.607659   -5.2210095    4662.7213            1 
  685000    1.6185225   -5.2236644    4664.2333            2 
  686000    1.6075403   -5.2288538    4683.1444            1 
  687000    1.6902453   -5.2042983    4682.5595            2 
  688000    1.6773241   -5.2261853    4654.0475            1 
  689000    1.6030983   -5.2450205    4652.2042            1 
  690000     1.612039   -5.2666083    4659.4248            2 
  691000    1.6599303   -5.2070201    4679.0924            1 
  692000    1.6874147   -5.2242065    4641.5927            2 
  693000    1.6450066   -5.2717902     4651.715            1 
  694000    1.6939114   -5.2613775     4663.874            1 
  695000    1.6699865   -5.2599954    4652.1922            2 
  696000    1.6233752   -5.2691499    4618.9701            1 
  697000     1.657228   -5.2242709    4619.3919            3 
  698000    1.6581187   -5.2758376     4666.729            1 
  699000    1.6317759      -5.2748    4641.5032            2 
  700000    1.6561673   -5.2273268    4636.8746            3 
  701000    1.6776729   -5.3092285    4646.4372            1 
  702000    1.6557119   -5.2087353    4663.9155            1 
  703000    1.6558853   -5.2304905    4653.0014            1 
  704000    1.6464937    -5.175959    4679.6705            1 
  705000    1.6538484    -5.258614    4663.3785            2 
  706000    1.6194182   -5.2357016    4641.8838            3 
  707000    1.6436878   -5.2325917    4643.9665            2 
  708000    1.6450663   -5.2510997    4673.2697            1 
  709000    1.6310317   -5.2415694    4649.6627            1 
  710000    1.6606736   -5.2263074    4677.1515            2 
  711000    1.6801022   -5.2807886    4648.7362            5 
  712000    1.6660652   -5.2571386    4671.2935            1 
  713000    1.6750182   -5.2328889    4652.4214            1 
  714000     1.623197   -5.2389936    4629.5577            1 
  715000     1.638286   -5.2340073     4663.203            1 
  716000    1.6953555   -5.2586019    4624.8118            2 
  717000    1.6742032   -5.2725893    4637.4464            2 
  718000    1.6261951   -5.2347126    4667.3613            1 
  719000    1.6549085   -5.2848441    4635.2197            1 
  720000    1.6356296    -5.248166    4644.1179            1 
  721000    1.6607557   -5.2451094     4638.027            2 
  722000    1.6637776   -5.2684154     4647.138            1 
  723000    1.6546508   -5.2342248    4652.0231            1 
  724000    1.6611466    -5.249756    4677.1319            1 
  725000    1.6541007   -5.2482834    4640.4239            1 
  726000    1.6577626   -5.2563736    4649.6463            3 
  727000    1.6602081   -5.2146668    4641.9018            1 
  728000    1.6636784    -5.262689     4650.904            1 
  729000     1.657474   -5.2234037    4638.0674            3 
  730000    1.6580166   -5.1966558    4643.2664            1 
  731000    1.6287993   -5.2271503    4635.2786            2 
  732000    1.6154748   -5.2563366    4655.4635            1 
  733000      1.68585   -5.2386209    4650.1481            1 
  734000    1.6652927   -5.2573115    4646.9608            2 
  735000    1.6173024    -5.216507    4641.7613            2 
  736000    1.6691597   -5.2549239    4635.6618            1 
  737000    1.6461123   -5.2306291    4659.0878            1 
  738000    1.6522789   -5.2574974    4645.5487            2 
  739000    1.6698093   -5.2008499    4647.5182            1 
  740000    1.6522904    -5.253759    4629.2022            1 
  741000     1.655078   -5.1903762    4682.8219            4 
  742000    1.6555394    -5.268965    4627.2255            1 
  743000    1.6208553   -5.2499116    4639.7986            1 
  744000    1.6230732    -5.200048    4671.8821            2 
  745000    1.6815647   -5.2307342    4649.1106            2 
  746000    1.6763369   -5.2157958    4686.0427            1 
  747000    1.6531693   -5.2840206    4627.9174            1 
  748000    1.6716171   -5.2399143    4669.6062            2 
  749000    1.6265283   -5.2726526    4640.5649            3 
  750000    1.6578455   -5.2512584    4662.9007            2 
  751000    1.6626707   -5.1959452    4675.0501            1 
  752000    1.6447491   -5.2440346    4668.9919            2 
  753000    1.6519699   -5.2206284    4643.8044            2 
  754000    1.6667627    -5.223018    4663.4809            2 
  755000    1.6419217   -5.2288163    4630.7816            1 
  756000    1.6446962   -5.2552413    4640.5706            1 
  757000    1.6499798   -5.2237243    4613.9186            3 
  758000    1.6436863   -5.2305917    4644.2501            2 
  759000    1.6773971   -5.2071614    4649.1295            1 
  760000    1.6255183   -5.2182035    4657.2391            1 
  761000    1.6228533   -5.2464659    4662.8722            2 
  762000    1.6243507   -5.2660316    4637.4907            1 
  763000    1.6605181   -5.2427734    4622.7944            1 
  764000    1.6360207   -5.2355868    4647.4538            1 
  765000    1.6568841    -5.252666    4667.1953            1 
  766000    1.6190867   -5.2634815    4656.4893            2 
  767000    1.6333792   -5.2615839    4645.6689            1 
  768000    1.6157628   -5.2095386    4671.3617            1 
  769000    1.6691531   -5.2625079    4617.2161            1 
  770000    1.6198621   -5.2854228    4661.9463            3 
  771000    1.6420716   -5.2415267    4660.9337            1 
  772000    1.6604476   -5.2425604    4659.8208            2 
  773000    1.6758626   -5.2484955     4645.454            1 
  774000    1.6660614   -5.2772226    4630.8558            2 
  775000    1.6235936   -5.2552006    4633.8874            2 
  776000    1.6369125   -5.2563033    4662.7599            1 
  777000    1.6812578   -5.1842862    4686.5724            1 
  778000     1.601653   -5.2255285    4658.2082            1 
  779000    1.6640176   -5.2416192    4621.1661            1 
  780000    1.6401827    -5.238098    4674.1242            1 
  781000    1.6597159    -5.236171    4660.9693            1 
  782000     1.648185   -5.2672927    4655.8362            1 
  783000     1.664161   -5.2890528    4628.1863            1 
  784000    1.6471178   -5.2603157    4631.4268            2 
  785000    1.6546478   -5.2803605    4652.2561            1 
  786000    1.6646383   -5.2182204    4648.4946            1 
  787000    1.6753247   -5.2395496    4651.4307            1 
  788000    1.6533257    -5.244483    4662.7237            2 
  789000    1.6089303   -5.2476399    4624.0691            3 
  790000    1.6511854   -5.2293229    4644.4184            2 
  791000    1.6292894    -5.206377    4637.7835            1 
  792000    1.6713825   -5.2340493    4644.9994            1 
  793000    1.6781144   -5.2554857     4637.456            2 
  794000    1.6758272   -5.2756972    4643.0437            1 
  795000    1.6530474    -5.248894    4645.1705            1 
  796000    1.6793341   -5.2464173    4634.4727            1 
  797000    1.6654833   -5.2235575      4661.66            1 
  798000    1.6492073   -5.2848694    4621.2813            5 
  799000    1.6540513   -5.2424575    4655.2805            2 
  800000    1.6652475   -5.2920695    4654.5022            2 
  801000    1.6430612   -5.2493598    4664.0677            3 
  802000    1.6550024   -5.2291313    4655.4742            2 
  803000     1.659081    -5.271384    4634.9699            1 
  804000    1.6573066   -5.2267851    4630.5202            1 
  805000    1.6955099   -5.2500403    4627.3719            2 
  806000    1.6437228    -5.298341    4634.5054            5 
  807000    1.6490273   -5.2687287     4652.896            1 
  808000    1.6468132   -5.2829041     4636.313            2 
  809000    1.6259265   -5.2226817    4644.9021            1 
  810000    1.6373338   -5.2653353    4629.4971            1 
  811000    1.6504415   -5.1916497    4689.0298            1 
  812000    1.6319475    -5.222572    4647.9073            3 
  813000    1.6428613   -5.2563021    4636.2653            1 
  814000     1.689716   -5.2678993    4662.2955            1 
  815000     1.669959   -5.2353243    4652.0049            1 
  816000    1.6661406   -5.2762702    4649.8932            1 
  817000     1.642745   -5.2497042    4659.0678            2 
  818000     1.641194   -5.2369685    4669.6528            1 
  819000    1.6611041   -5.2429974    4655.5019            1 
  820000    1.6257655   -5.2385176    4664.9034            3 
  821000    1.6561767   -5.2792949    4653.2619            2 
  822000     1.622594   -5.2338541    4647.5743            1 
  823000    1.6745486   -5.2571958    4667.0851            2 
  824000    1.6211151   -5.2672512    4649.0226            1 
  825000    1.6581547   -5.2513654    4638.3185            2 
  826000    1.6070234   -5.2373588    4653.2098            1 
  827000    1.6273012   -5.2982855    4615.2973            2 
  828000    1.6498384   -5.2107019    4652.6398            1 
  829000     1.582693   -5.2576142    4665.4503            5 
  830000    1.6582734   -5.2364233    4632.0272            1 
  831000    1.6433467   -5.3003717    4660.0017            3 
  832000    1.6409101   -5.2703933    4637.6515            1 
  833000    1.6699109   -5.2373836    4622.8974            1 
  834000    1.6459199   -5.2431245    4640.2156            2 
  835000    1.6411592   -5.2395925    4636.4668            1 
  836000    1.6565966   -5.2507261    4635.0608            2 
  837000    1.6429264   -5.2832023    4651.2711            1 
  838000    1.6434929   -5.2385694    4659.7766            2 
  839000     1.639404   -5.2347393    4652.1884            1 
  840000    1.6426181   -5.1894263    4658.1523            1 
  841000    1.7002217   -5.2433312    4641.9749            2 
  842000    1.6604361   -5.2585027    4643.1268            1 
  843000    1.6168726   -5.2479085    4653.2902            2 
  844000    1.6603038   -5.2854684    4647.2097            2 
  845000    1.6177614   -5.2474572    4659.5361            1 
  846000     1.602038   -5.2833688    4634.6823            2 
  847000    1.6737487   -5.2631222    4634.6257            1 
  848000    1.6383072   -5.2503015    4661.4203            2 
  849000    1.6544192   -5.2683026    4652.7867            2 
  850000    1.6472095   -5.2126271    4670.9247            1 
  851000    1.6535644   -5.2698153    4641.5672            2 
  852000    1.6564039   -5.2600663    4638.2015            2 
  853000    1.6359033    -5.233855    4649.8539            1 
  854000     1.675495   -5.2385553    4645.8015            1 
  855000    1.6408247   -5.2556655    4626.7723            4 
  856000    1.6868757   -5.2124743    4653.6144            1 
  857000    1.6221763   -5.2718015    4645.0183            1 
  858000    1.6208925   -5.2429664    4663.1391            3 
  859000    1.6361279   -5.2148634    4681.6947            1 
  860000    1.6407239   -5.2531376    4666.5397            1 
  861000    1.6281997   -5.2575856    4661.3113            1 
  862000    1.6718216   -5.2728925    4649.7668            1 
  863000    1.6423619   -5.2325472    4657.3963            1 
  864000    1.6249429   -5.2418988    4677.3056            1 
  865000    1.6318953   -5.2426166    4647.7179            3 
  866000     1.642681   -5.2282935    4635.9285            1 
  867000    1.6633651   -5.2578722    4645.4506            3 
  868000      1.68782   -5.2182286    4653.8731            1 
  869000    1.6504461   -5.2857974    4631.6704            1 
  870000    1.6311285   -5.2414758    4629.0273            2 
  871000    1.6532889   -5.2150664    4651.2976            1 
  872000    1.6593416   -5.2617362    4663.2211            1 
  873000    1.6568839   -5.2616281    4662.0265            2 
  874000    1.6706343   -5.2267818    4653.7221            1 
  875000    1.6623827   -5.2023724    4661.8322            1 
  876000    1.6705497   -5.2237101    4669.5508            1 
  877000    1.6274301   -5.2611076    4643.7181            2 
  878000    1.6591311   -5.2906281    4635.0143            1 
  879000    1.6635312   -5.2579539    4633.8562            5 
  880000    1.6601246   -5.2086005    4679.5317            2 
  881000    1.6570374   -5.1912574     4655.318            1 
  882000    1.6519839    -5.216377     4663.387            2 
  883000    1.6004822   -5.2819623    4647.2041            1 
  884000    1.6250678    -5.268795    4640.5548            1 
  885000    1.6426811    -5.266781    4643.8589            1 
  886000    1.6665316   -5.2431207    4631.5563            2 
  887000    1.6738277   -5.2652136     4656.416            2 
  888000      1.67683   -5.2372717    4698.6291            1 
  889000    1.5987217   -5.2581981    4655.3473            1 
  890000    1.6516711   -5.2710579    4642.9624            1 
  891000    1.6418969   -5.2160523    4633.8375            3 
  892000    1.6350318   -5.2493273    4639.3066            1 
  893000    1.6170262   -5.2098255    4654.7213            2 
  894000    1.6805881   -5.2490911    4651.7715            1 
  895000    1.6477696   -5.2446752    4674.6647       -1e+20 
  896000    1.6356114   -5.2319798    4681.7005            2 
  897000    1.6431233   -5.2404725    4650.4096       -1e+20 
  898000     1.631554    -5.249615    4639.0879            1 
  899000    1.6640125   -5.2690494     4649.065            1 
  900000    1.6353469   -5.2708466    4636.2989            1 
  901000    1.6432606   -5.2611037    4647.7822            2 
  902000    1.6289625   -5.2464753    4654.2255            3 
  903000    1.6948746   -5.2320819    4660.3097            2 
  904000    1.6483049   -5.2715885    4614.3015            1 
  905000    1.6504583   -5.2598277    4644.3146            2 
  906000    1.6493167   -5.2640913    4630.6595            1 
  907000     1.616278   -5.2508065     4659.062            1 
  908000    1.6588905   -5.2796955     4656.995            1 
  909000    1.6354133   -5.2639373    4652.7666            1 
  910000    1.6475939   -5.2792735    4649.9494            1 
  911000    1.6208259   -5.2242591    4634.6487            1 
  912000    1.6786106   -5.2355921    4653.6527            1 
  913000    1.6588581   -5.2239341    4658.9781            1 
  914000    1.6640942   -5.2433065     4613.883            2 
  915000    1.6674619   -5.2256448    4667.1526            2 
  916000    1.6573444   -5.2715815    4634.0741            1 
  917000      1.64639   -5.2895934    4641.1724            3 
  918000    1.6413495   -5.2715996    4638.5838            1 
  919000    1.6277105   -5.2211088    4681.5192            1 
  920000    1.6199489   -5.2493327    4638.8859            1 
  921000    1.6679104    -5.295499    4639.9104            1 
  922000    1.6231138   -5.2611878    4662.2484            1 
  923000     1.640911   -5.2160859    4661.8371            2 
  924000    1.6782105   -5.2227266     4651.494            4 
  925000      1.67982   -5.2333745    4661.3745            1 
  926000    1.6727888   -5.2846119    4632.4442            1 
  927000    1.6291016   -5.2616187    4620.5264            2 
  928000    1.6726831   -5.2482985    4671.8352            2 
  929000    1.6405651   -5.2367767    4674.3425       -1e+20 
  930000    1.6186026   -5.2447013    4640.7572            1 
  931000    1.6501955   -5.2278846      4653.98            2 
  932000    1.6207872   -5.2003783     4660.337            2 
  933000    1.6258192   -5.2720975    4660.6757            4 
  934000    1.6348282   -5.2534239    4666.7277            2 
  935000    1.6630525   -5.2690797    4667.5268            1 
  936000    1.6288906   -5.2372038    4635.6443            3 
  937000    1.6571069   -5.2538451    4630.6446       -1e+20 
  938000    1.6105048   -5.2409052    4683.4886            1 
  939000    1.6435355   -5.2525746    4652.5151            1 
  940000     1.650815   -5.2268228    4666.5622            1 
  941000    1.6479082   -5.2333406    4653.3391            3 
  942000    1.6731379   -5.2197824    4636.9779            2 
  943000    1.6327297   -5.1996815    4651.2851            2 
  944000    1.6587361   -5.2280203    4637.0729            1 
  945000    1.6556159   -5.2141982    4665.2689            1 
  946000    1.6323589   -5.2718608    4676.5006            2 
  947000    1.6070806   -5.2124981    4668.8104            2 
  948000    1.6716819   -5.2229593    4651.8807            1 
  949000    1.6240744   -5.2596156    4638.6561            3 
  950000    1.6432767   -5.2552703     4650.721            1 
  951000    1.6362513   -5.2285544    4651.7917            1 
  952000    1.6649132   -5.2491917    4677.2937            2 
  953000     1.617581   -5.2231371    4664.3758            1 
  954000    1.6855886   -5.2504566    4643.4823            2 
  955000    1.6584374   -5.2659286     4656.112            2 
  956000    1.6207671   -5.2453395    4647.9936            2 
  957000    1.6709964   -5.2530705    4664.5645            1 
  958000    1.6363169   -5.2135329    4665.3552            2 
  959000    1.6335225   -5.2853398    4638.9195            1 
  960000    1.6342554   -5.1970999    4654.6863            1 
  961000    1.6386295   -5.2772267     4677.615            2 
  962000      1.66964    -5.225585    4655.0113            1 
  963000    1.6646144   -5.1972497    4648.9195            1 
  964000    1.6432541   -5.2598948    4665.7725            2 
  965000    1.6501876   -5.2282123    4635.6403            1 
  966000    1.6287783   -5.2287905    4632.1568            1 
  967000    1.6884001   -5.2306422    4648.3169            1 
  968000    1.6605353   -5.2456054    4649.7594            2 
  969000    1.6409162   -5.2489876    4642.0196            1 
  970000    1.6300551   -5.2367024    4631.5177            3 
  971000    1.6389356   -5.2247134      4651.02            1 
  972000    1.6419482   -5.2945938    4648.6854            1 
  973000    1.6363416   -5.2794725    4672.3067            1 
  974000     1.628232    -5.227913    4670.5373            2 
  975000    1.6402519   -5.2656103    4644.2836            1 
  976000    1.6648254   -5.2181031    4688.6704            3 
  977000    1.6227121   -5.2721203    4629.7949            1 
  978000    1.6517171   -5.2595102    4668.9559            2 
  979000    1.6547247   -5.1946803    4667.7588            1 
  980000    1.6265765   -5.2524766    4629.3083            1 
  981000     1.673459   -5.2558241    4652.7132            2 
  982000    1.6629152   -5.2316212    4664.3458            1 
  983000    1.6799975   -5.2254772    4628.0211            2 
  984000    1.6468878   -5.2602128    4650.9765            1 
  985000    1.6694127   -5.2545026    4652.3964            2 
  986000    1.5956709   -5.2779034    4638.0787            1 
  987000    1.6735974   -5.2535416    4668.8703            3 
  988000    1.6849753    -5.248406    4664.9728            1 
  989000    1.6528227   -5.2560364     4640.343            2 
  990000     1.640417   -5.2602743     4640.483            3 
  991000    1.6484559   -5.2161803      4640.11            1 
  992000    1.6785148   -5.2767264    4633.1091            4 
  993000     1.636811   -5.2716689    4640.2341            1 
  994000     1.661065   -5.2992884    4635.4289            2 
  995000      1.62369   -5.2741227    4679.9247            1 
  996000    1.6306809   -5.2457316    4647.7488            2 
  997000    1.6021723   -5.2433412     4656.017            1 
  998000    1.6410167   -5.2510004     4648.118            2 
  999000    1.6796576   -5.2410078    4640.6563            1 
 1000000     1.636175    -5.231122     4668.254            1 
 1001000    1.6556538   -5.2693813    4646.5079            2 
 1002000    1.6610904    -5.195365    4644.2602            1 
 1003000    1.6795682     -5.23961    4646.1892            2 
 1004000    1.6573103   -5.2944972    4640.7753            1 
Loop time of 2004.92 on 48 procs for 1000000 steps with 4000 atoms

Performance: 86187.884 tau/day, 498.772 timesteps/s
99.4% CPU use with 48 MPI tasks x no OpenMP threads

MPI task timing breakdown:
Section |  min time  |  avg time  |  max time  |%varavg| %total
---------------------------------------------------------------
Pair    | 109.49     | 114.03     | 119.54     |  19.3 |  5.69
Neigh   | 18.625     | 18.884     | 19.184     |   3.2 |  0.94
Comm    | 111.01     | 115.81     | 121.52     |  25.0 |  5.78
Output  | 1.458      | 1.4588     | 1.4768     |   0.2 |  0.07
Modify  | 1734.8     | 1740.9     | 1747.2     |   6.5 | 86.83
Other   |            | 13.81      |            |       |  0.69

Nlocal:        83.3333 ave          91 max          78 min
Histogram: 3 6 6 15 4 1 8 2 1 2
Nghost:        1483.29 ave        1505 max        1460 min
Histogram: 3 3 5 3 8 5 9 4 6 2
Neighs:        8196.83 ave        9050 max        7601 min
Histogram: 5 8 4 10 8 0 5 4 0 4
FullNghs:      16392.1 ave       18233 max       15234 min
Histogram: 6 6 8 11 3 2 6 3 1 2

Total # of neighbors = 786823
Ave neighs/atom = 196.70575
Neighbor list builds = 76114
Dangerous builds = 224

#clear
#
#next RN
#
#jump SELF
Total wall time: 0:33:26
