
units lj                  # Use reduced LJ style units
atom_style atomic         # Uncharged point particles
atom_modify map hash      # Needed for indexing of clusters etc
                          # Used to be able to find where atoms are in relation to each other.

# Define a lattice with which to populate the simulation cell. With units
# set to 'lj' the second argument to the lattice command is the reduced
# density rho* and the spacings are multiples of that required to acheive
# that density. Also define a simulation cell called 'box' in lattice units
# and fill it with atoms. Here we're creating a box which is ten lattice
# constants in each direction.
lattice fcc 1.0 spacing 1 1 1                 # All equal sizes - gives the right reduced density.
Lattice spacing in x,y,z = 1.5874011 1.5874011 1.5874011

region box block 0 10 0 10 0 10 units lattice # Defines a region, "box", in lattice units
create_box 1 box                              # Creates a simulation box as specified above,
Created orthogonal box = (0.0000000 0.0000000 0.0000000) to (15.874011 15.874011 15.874011)
  4 by 4 by 4 MPI processor grid
                                              # with one type of atom
create_atoms 1 box                            # Creates particles on lattice points
Created 4000 atoms
  using lattice units in orthogonal box = (0.0000000 0.0000000 0.0000000) to (15.874011 15.874011 15.874011)
  create_atoms CPU = 0.002 seconds


# Set the mass of the first (and only) atom type.
mass 1 1.0

# Lennard-Jones interactions between particles, 3.5 sigma cut-off. Apply
# long range tail corrections to energy and pressure and set all coefficients
# to unity since we work in reduced units here. Note that this doesn't shift
# the potential such that it goes to zero at the cutoff. That would require
# pair_modify('shift', 'yes').
pair_style lj/cut  3.5      # non-GPU version
pair_modify tail  yes
pair_coeff 1  1  1.0  1.0   # Intearaction between 1 and 1 set with epsilon = 1 and sigma = 1

write_data data.*
System init for write_data ...
Neighbor list info ...
  update every 1 steps, delay 10 steps, check yes
  max neighbors/atom: 2000, page size: 100000
  master list distance cutoff = 3.8
  ghost atom cutoff = 3.8
  binsize = 1.9, bins = 9 9 9
  1 neighbor lists, perpetual/occasional/extra = 1 0 0
  (1) pair lj/cut, perpetual
      attributes: half, newton on
      pair build: half/bin/atomonly/newton
      stencil: half/bin/3d
      bin: standard

#############################
#   M E L T   S Y S T E M   #
#############################

velocity all create 2.4 5300450 mom yes dist gaussian # Assign velocities
                                                    # Temperature 2.4, random number seed, zero linear momentum
						                                                        # Gaussian distribution

timestep 0.002   # simulation timestep
thermo 100       # output thermodynamic data every 100 steps

# Define a fix  in this case with index 1 applied to all
# particles in the simulation. This fix is for simulations
# in the anisotropic NPT ensemble. Note that we use the MTK
# correction.
fix 1 all npt temp 2.4 2.4 0.1 iso 5.68 5.68 0.5 mtk yes tchain 5 pchain 5 # Use NPT ensemble
                                                                         # Set temperature and pressure and damping
                                                                         # Numbers of thermostats in chain and in barostat
run 1000         # run for 10000 steps
Per MPI rank memory allocation (min/avg/max) = 3.630 | 3.630 | 3.630 Mbytes
Step Temp E_pair E_mol TotEng Press Volume 
       0          2.4   -8.3859253            0   -4.7868253   -2.2405722         4000 
     100    1.2568457    -6.520638            0   -4.6358408    5.4054415    4090.5418 
     200    1.4749962   -6.3123998            0   -4.1004586    5.9706789    4139.2832 
     300    1.6124068   -6.0569481            0   -3.6389426    5.7397492    4264.5301 
     400    1.7168752   -5.7431758            0   -3.1685069    5.9205944    4390.8204 
     500    1.7900089   -5.4300953            0   -2.7457532    5.8244207    4548.9907 
     600    1.8749878   -5.1356604            0   -2.3238818    5.7834378    4705.6354 
     700    1.9882515   -4.8678934            0   -1.8862617    5.9915018     4837.506 
     800    2.1327811   -4.6988753            0   -1.5005035    5.7798366    4974.3967 
     900    2.2952123   -4.5871705            0   -1.1452128    5.7568633    5062.5276 
    1000    2.3419515   -4.4435081            0  -0.93145903    5.7034406     5160.776 
Loop time of 0.199273 on 64 procs for 1000 steps with 4000 atoms

Performance: 867152.336 tau/day, 5018.243 timesteps/s
99.2% CPU use with 64 MPI tasks x no OpenMP threads

MPI task timing breakdown:
Section |  min time  |  avg time  |  max time  |%varavg| %total
---------------------------------------------------------------
Pair    | 0.058635   | 0.062727   | 0.067128   |   0.7 | 31.48
Neigh   | 0.013912   | 0.014652   | 0.015497   |   0.3 |  7.35
Comm    | 0.088398   | 0.092904   | 0.097618   |   0.7 | 46.62
Output  | 0.00030096 | 0.00030657 | 0.00046937 |   0.0 |  0.15
Modify  | 0.024587   | 0.02679    | 0.028876   |   0.6 | 13.44
Other   |            | 0.001892   |            |       |  0.95

Nlocal:        62.5000 ave          69 max          56 min
Histogram: 7 2 3 12 7 7 13 5 2 6
Nghost:        1253.14 ave        1273 max        1234 min
Histogram: 2 7 6 8 11 5 9 8 7 1
Neighs:        5540.11 ave        6253 max        4768 min
Histogram: 2 5 5 12 10 8 5 5 7 5

Total # of neighbors = 354567
Ave neighs/atom = 88.641750
Neighbor list builds = 87
Dangerous builds = 24

# Equilibrate just above the melting temperature to avoid step fn in T

fix 1 all npt temp 1.25 1.25 0.1 iso 5.68 5.68 0.5 mtk yes tchain 5 pchain 5
run 1000
Per MPI rank memory allocation (min/avg/max) = 3.631 | 3.631 | 3.631 Mbytes
Step Temp E_pair E_mol TotEng Press Volume 
    1000    2.3419515   -4.4435081            0  -0.93145903    5.7034406     5160.776 
    1100    1.9505664   -4.6860744            0   -1.7609562    5.6875043    4990.5455 
    1200    1.7145364   -4.9478458            0   -2.3766842    5.6803952    4813.9806 
    1300    1.5789627   -5.2178493            0   -2.8499973     5.626771    4671.2595 
    1400     1.466042   -5.4083802            0    -3.209867    5.7430009    4553.7478 
    1500    1.3483489   -5.5238765            0   -3.5018588    5.7608991    4484.5069 
    1600    1.3065005   -5.6674797            0   -3.7082189    5.6719356    4427.5375 
    1700    1.2613667   -5.7293973            0   -3.8378202     5.676448    4393.2208 
    1800    1.2706154   -5.8058844            0   -3.9004378    5.6537836    4362.5534 
    1900    1.2416506   -5.8085169            0   -3.9465067    5.6540218    4357.9646 
    2000    1.2530204     -5.85012            0   -3.9710592    5.4158949    4363.6997 
Loop time of 0.19248 on 64 procs for 1000 steps with 4000 atoms

Performance: 897755.355 tau/day, 5195.343 timesteps/s
99.9% CPU use with 64 MPI tasks x no OpenMP threads

MPI task timing breakdown:
Section |  min time  |  avg time  |  max time  |%varavg| %total
---------------------------------------------------------------
Pair    | 0.057969   | 0.061739   | 0.065546   |   0.7 | 32.08
Neigh   | 0.01191    | 0.012619   | 0.013271   |   0.3 |  6.56
Comm    | 0.085918   | 0.090849   | 0.095084   |   0.7 | 47.20
Output  | 0.00029802 | 0.00030696 | 0.00042757 |   0.0 |  0.16
Modify  | 0.023032   | 0.024561   | 0.026176   |   0.5 | 12.76
Other   |            | 0.002405   |            |       |  1.25

Nlocal:        62.5000 ave          68 max          53 min
Histogram: 1 1 3 0 5 10 20 8 12 4
Nghost:        1399.92 ave        1420 max        1382 min
Histogram: 6 4 6 9 5 11 12 6 2 3
Neighs:        6535.45 ave        7153 max        5253 min
Histogram: 1 0 2 4 2 9 13 19 7 7

Total # of neighbors = 418269
Ave neighs/atom = 104.56725
Neighbor list builds = 74
Dangerous builds = 4


# Small amount of linear quench

fix 1 all npt temp 1.25 ${temp} 0.1 iso 5.68 5.68 0.5 mtk yes tchain 5 pchain 5
fix 1 all npt temp 1.25 1 0.1 iso 5.68 5.68 0.5 mtk yes tchain 5 pchain 5
run 2000
Per MPI rank memory allocation (min/avg/max) = 3.631 | 3.631 | 3.631 Mbytes
Step Temp E_pair E_mol TotEng Press Volume 
    2000    1.2530204     -5.85012            0   -3.9710592    5.4158949    4363.6997 
    2100    1.2148577   -5.8532794            0   -4.0314484    5.4550693    4354.3108 
    2200    1.2395913   -5.8742533            0   -4.0153311    5.5268055    4340.4767 
    2300    1.2284926   -5.8968215            0   -4.0545432    5.6586743    4317.7453 
    2400    1.2029277   -5.8935397            0   -4.0895993    5.6155109    4323.6321 
    2500    1.1984602   -5.9462968            0   -4.1490559    5.5526832    4308.3701 
    2600    1.1774729   -5.9392075            0   -4.1734397    5.6758489    4297.8309 
    2700    1.1625266   -5.9742185            0   -4.2308645    5.7848482    4274.5753 
    2800    1.1473557   -5.9934725            0   -4.2728692    5.7023735    4271.9998 
    2900    1.1489171   -6.0176109            0    -4.294666    5.6316544    4265.7578 
    3000     1.130484   -6.0423565            0   -4.3470544    5.6687723    4250.6451 
    3100    1.0944475   -6.0445194            0   -4.4032586    5.6297378    4252.4643 
    3200    1.1128165   -6.0866708            0   -4.4178633    5.6486119    4234.5261 
    3300     1.104635   -6.1006567            0   -4.4441185     5.616738    4231.1806 
    3400    1.0786622    -6.119898            0   -4.5023092    5.6429184    4219.3958 
    3500    1.0576637   -6.1236945            0   -4.5375956    5.7052993    4213.1268 
    3600    1.0638698   -6.1664599            0   -4.5710542    5.8721773    4183.5017 
    3700    1.0339399   -6.1860959            0   -4.6355737    5.7321553    4184.9569 
    3800   0.99834679   -6.1775589            0   -4.6804131    5.6157895    4192.9294 
    3900    1.0085356   -6.2311628            0   -4.7187377    5.6951101     4167.711 
    4000    1.0171981   -6.2265175            0   -4.7011019    5.8324481    4159.2473 
Loop time of 0.401485 on 64 procs for 2000 steps with 4000 atoms

Performance: 860804.260 tau/day, 4981.506 timesteps/s
100.0% CPU use with 64 MPI tasks x no OpenMP threads

MPI task timing breakdown:
Section |  min time  |  avg time  |  max time  |%varavg| %total
---------------------------------------------------------------
Pair    | 0.12459    | 0.13249    | 0.14142    |   0.8 | 33.00
Neigh   | 0.021452   | 0.022394   | 0.023645   |   0.3 |  5.58
Comm    | 0.17783    | 0.18797    | 0.19603    |   0.8 | 46.82
Output  | 0.00061605 | 0.00063288 | 0.00090974 |   0.0 |  0.16
Modify  | 0.048734   | 0.051989   | 0.054102   |   0.6 | 12.95
Other   |            | 0.006015   |            |       |  1.50

Nlocal:        62.5000 ave          68 max          56 min
Histogram: 2 1 3 10 7 18 10 5 2 6
Nghost:        1449.45 ave        1469 max        1433 min
Histogram: 5 4 4 10 11 12 10 4 3 1
Neighs:        6877.44 ave        7809 max        6118 min
Histogram: 1 3 8 15 13 11 6 4 2 1

Total # of neighbors = 440156
Ave neighs/atom = 110.03900
Neighbor list builds = 125
Dangerous builds = 0

#############################
# F R E E Z E  S Y S T E M  #
#############################

# Define solid atoms. This closely follows ten Wolde  Ruiz-Montero and Frenkel  Faraday Discuss  1996  104  93-110
# Compute components of the per-atom q6 vector
compute q6 all orientorder/atom degrees 1 6 components 6 nnn NULL cutoff 1.3 # compute the Q6 parameter.
                                                                             # Use all neighbours within 1.3 unit cell.

# get number of connections
compute coord_number all coord/atom orientorder q6 0.5

# An atom is solid if it has 8 or more connections (of a possible 14)
variable is_solid atom c_coord_number>=8
group solid dynamic all var is_solid    # Must be dynamic to update
dynamic group solid defined

# do clustering
compute cluster solid cluster/atom 1.3 # Create a cluster where all atoms within are solid and max 1.3 units from another member

# define chunks one chunk per cluster
compute clus_chunks solid chunk/atom c_cluster nchunk every compress yes  # Says which atoms are in which chunk

# count the size of each chunk
compute size_chunks solid property/chunk clus_chunks count


# Find the maximum entry in the vector of chunk sizes
variable max_n equal max(c_size_chunks)


# Thermo style which includes this variable
thermo_style custom step temp pe vol v_max_n

thermo ${N}  # Print the thermo information every 100 steps
thermo 100  

# Reset the npt fix at a lower temperature (below freezing)
fix 1  all npt temp  ${temp} ${temp}  0.1  iso  5.68  5.68  0.5  mtk yes tchain  5  pchain  5
fix 1  all npt temp  1 ${temp}  0.1  iso  5.68  5.68  0.5  mtk yes tchain  5  pchain  5
fix 1  all npt temp  1 1  0.1  iso  5.68  5.68  0.5  mtk yes tchain  5  pchain  5

dump dmp2 all dcd ${N} traj_${rand}.dcd
dump dmp2 all dcd 100 traj_${rand}.dcd
dump dmp2 all dcd 100 traj_462431.dcd


# fix rnuntil all halt ${N} v_max_n >= 3980 error soft message no   # Stop when solidified


run 100000 # 5000000  # Run for this many steps
Neighbor list info ...
  update every 1 steps, delay 10 steps, check yes
  max neighbors/atom: 2000, page size: 100000
  master list distance cutoff = 3.8
  ghost atom cutoff = 3.8
  binsize = 1.9, bins = 9 9 9
  4 neighbor lists, perpetual/occasional/extra = 1 3 0
  (1) pair lj/cut, perpetual
      attributes: half, newton on
      pair build: half/bin/atomonly/newton
      stencil: half/bin/3d
      bin: standard
  (2) compute orientorder/atom, occasional
      attributes: full, newton on
      pair build: full/bin/atomonly
      stencil: full/bin/3d
      bin: standard
  (3) compute coord/atom, occasional
      attributes: full, newton on
      pair build: full/bin/atomonly
      stencil: full/bin/3d
      bin: standard
  (4) compute cluster/atom, occasional
      attributes: full, newton on
      pair build: full/bin/atomonly
      stencil: full/bin/3d
      bin: standard
Per MPI rank memory allocation (min/avg/max) = 9.327 | 9.332 | 9.339 Mbytes
Step Temp PotEng Volume v_max_n 
    4000    1.0171981   -6.2265175    4159.2473            4 
    4100   0.99029767   -6.2382814    4158.0128            9 
    4200    1.0330265   -6.2686384    4165.4681            7 
    4300   0.97823553   -6.2240936    4170.3474            4 
    4400   0.99407476   -6.2115939    4169.0434            5 
    4500   0.98375899   -6.2487677    4156.4152            7 
    4600    1.0002378   -6.2825164    4159.5065            4 
    4700   0.98341417   -6.2503977     4159.589            3 
    4800    1.0136411   -6.2491669    4162.4781            7 
    4900    1.0026259   -6.2801506     4156.295            5 
    5000    1.0012315   -6.2656925    4156.9447           12 
    5100   0.98280188   -6.2472089    4165.6344           11 
    5200   0.98396625   -6.2863942    4147.5217            9 
    5300   0.99791138   -6.3151333    4149.0202            6 
    5400   0.99994954   -6.2873971    4150.5711           14 
    5500    1.0123704   -6.2787447    4151.7066           11 
    5600   0.98931221   -6.2915636    4137.2547            8 
    5700   0.97955515   -6.3037368    4131.0487            7 
    5800   0.99292928   -6.2574248    4139.9914            7 
    5900    1.0124643   -6.2563624    4150.8718            9 
    6000    1.0029208   -6.2689439    4153.0764            6 
    6100   0.99184329   -6.2983845    4143.8553            9 
    6200   0.99145994     -6.28713    4147.7598            6 
    6300    1.0009259   -6.2681918     4154.443           11 
    6400    1.0008076   -6.2689545    4136.8257            5 
    6500    1.0042481   -6.2854213    4139.2675            5 
    6600    1.0202288   -6.2444662    4145.8009            3 
    6700    1.0064203   -6.2356136    4141.1565            4 
    6800   0.99125381    -6.251474    4131.9411            4 
    6900    1.0027833   -6.2717601    4140.4901           12 
    7000   0.99096523   -6.2860379    4137.5129            4 
    7100    1.0252225   -6.2941638    4141.3689            5 
    7200    1.0070209   -6.2813919    4139.7803           11 
    7300    1.0019612   -6.2829582    4132.5953            8 
    7400    1.0026792   -6.2642184    4146.4894            5 
    7500   0.98971785   -6.2402135    4154.2189            7 
    7600   0.98215677   -6.2932049    4146.9847            8 
    7700    1.0042077   -6.2777259    4155.1955            6 
    7800   0.99502161   -6.2745756     4153.896            6 
    7900   0.98152496   -6.2956172    4149.6858            5 
    8000    1.0091773   -6.2950206    4152.3154            9 
    8100    1.0076731   -6.2676719    4155.9763            4 
    8200   0.98766042   -6.2902153    4151.1919            4 
    8300   0.99996798   -6.2697712    4159.3202            6 
    8400   0.98980238   -6.2794903    4154.0331            2 
    8500    1.0044159   -6.3012277     4143.713            5 
    8600   0.99922538   -6.3203634    4135.2383            5 
    8700    1.0038777   -6.2754409    4143.9129            9 
    8800    1.0100971   -6.2720709    4148.1177           16 
    8900    1.0351861   -6.2560984    4154.9717           10 
    9000   0.99082599    -6.241151    4151.5027           12 
    9100   0.99819386   -6.2419628    4151.4909           12 
    9200     1.001566   -6.2968471    4142.9592            8 
    9300   0.99436262   -6.2648698    4139.0734           14 
    9400   0.97979612   -6.2685159    4145.5358            7 
    9500   0.99870735   -6.3311254    4133.3382           10 
    9600    1.0066232   -6.2949331    4136.0561            8 
    9700    1.0273736   -6.2874669    4144.2116           11 
    9800    1.0103377   -6.2763767    4140.0425            5 
    9900    1.0157242   -6.2599044    4140.0173            9 
   10000    1.0092846   -6.2789704    4143.8171           12 
   10100   0.99403047   -6.2627457    4156.0733           10 
   10200    1.0056722   -6.2667211    4147.3197            3 
   10300    1.0027292   -6.2765996    4137.3401            5 
   10400   0.98061052   -6.3048542    4131.3175            5 
   10500   0.98944197   -6.2767488    4149.0083            5 
   10600    1.0015002   -6.2841408    4159.2032            4 
   10700    1.0161011   -6.2828393    4160.9003            5 
   10800   0.98300925   -6.2877864    4152.9113            4 
   10900    1.0058895   -6.2919473    4158.2347            9 
   11000    1.0086654    -6.257945    4169.7678            4 
   11100    1.0040511   -6.2415301    4170.9197            6 
   11200    1.0086794   -6.2524296    4159.4601            9 
   11300    1.0109172   -6.2868246    4143.1981           11 
   11400   0.99377201   -6.2933313    4148.9083            4 
   11500    1.0188064   -6.2801972    4161.2311            3 
   11600    1.0125113   -6.2756322    4167.4444            5 
   11700   0.97399577   -6.2663306    4156.3235            9 
   11800    1.0034915   -6.2760855    4160.3352            7 
   11900   0.97974646   -6.2697291     4152.759            7 
   12000   0.99902097   -6.2732568     4146.004            4 
   12100   0.99660725   -6.2504883    4153.3203            7 
   12200     1.023945    -6.284194    4157.4345            6 
   12300   0.99002369   -6.2869127    4144.3081            8 
   12400   0.98171757   -6.2474472    4154.2467            3 
   12500    1.0240452   -6.2663647     4151.729            8 
   12600   0.99045263   -6.2663049    4153.1892            5 
   12700    1.0232307   -6.2819175    4160.6488            7 
   12800   0.99198118   -6.2839614    4156.3556            7 
   12900   0.97779423   -6.2573488    4147.2689            4 
   13000    1.0265276   -6.2749468      4151.97            6 
   13100     1.006588    -6.282292    4155.0352            4 
   13200    1.0076113   -6.2340344    4160.4967            4 
   13300    1.0040027    -6.234746    4164.1451            5 
   13400    1.0168784   -6.3016222    4157.9042            4 
   13500   0.97653596   -6.2850018    4158.6427            8 
   13600    1.0019108    -6.305248     4160.084            4 
   13700   0.99240561   -6.2884763    4150.7721            7 
   13800   0.96287967   -6.2918155    4143.5844            4 
   13900    0.9857786   -6.2942391     4146.076            9 
   14000    1.0093412   -6.2787361    4142.0689            8 
   14100   0.99285695   -6.2624411    4140.7297           10 
   14200    1.0047511   -6.2588332    4136.9728           10 
   14300    1.0173639   -6.2457802    4149.1217           16 
   14400    1.0331998   -6.2433903    4154.7363           18 
   14500   0.99736594    -6.262567    4158.9635           14 
   14600    0.9869284   -6.2872174    4147.2983           10 
   14700    1.0083116   -6.3013972     4144.955            5 
   14800   0.99664687   -6.2696003    4144.5654            9 
   14900     1.025572   -6.2862522    4134.3479            7 
   15000    1.0089225   -6.3147547    4133.9545            5 
   15100   0.97645606   -6.3137518     4138.844            4 
   15200   0.99982544   -6.3060332    4151.5624            5 
   15300    1.0133074   -6.3126035    4153.5848            5 
   15400   0.96559642   -6.2907009    4144.9352            2 
   15500    1.0034236   -6.3024664    4154.0521            5 
   15600   0.99467415   -6.2810325    4147.6044            9 
   15700     1.002185   -6.3080852    4151.9367           10 
   15800    1.0094351   -6.2925866    4154.4921           13 
   15900   0.99187408   -6.3015179    4150.4488            4 
   16000   0.99981778   -6.2697525    4155.2187            4 
   16100   0.98932761   -6.2841476    4147.3637            5 
   16200   0.98233703   -6.2793211    4155.1419            5 
   16300    0.9915908   -6.2767334     4167.128            7 
   16400   0.99745019   -6.2743078    4171.1949            6 
   16500   0.98563486   -6.2924882    4156.5525            5 
   16600    1.0175289   -6.2891191    4157.3716            6 
   16700    1.0087731   -6.2879156    4161.7915            8 
   16800   0.99164972   -6.3044044    4146.1868           13 
   16900    1.0006527    -6.292078    4144.9983           10 
   17000   0.99745764   -6.2671856     4158.488           12 
   17100   0.99890926   -6.2501825    4156.0978            6 
   17200   0.98220885   -6.2555297    4148.1072           12 
   17300   0.99309867   -6.2875766    4140.8723            9 
   17400   0.98280096   -6.2467578    4166.1359            5 
   17500   0.99909654   -6.2965455    4171.1597            5 
   17600   0.97499927   -6.2599676    4163.9194            9 
   17700    1.0192725   -6.2672067    4159.9281            7 
   17800   0.99443062   -6.2739505    4170.2296            7 
   17900    1.0020458   -6.2823417    4155.9539            8 
   18000   0.98528895   -6.2912903    4139.3567            7 
   18100    1.0112095   -6.2717485    4138.1649           10 
   18200    1.0047478   -6.2427508    4150.8142           10 
   18300    1.0157368   -6.2792637    4161.4261            8 
   18400   0.97225937   -6.2654268    4153.0951           10 
   18500   0.99104151   -6.2797179    4154.0578           11 
   18600   0.99108627   -6.2699284    4153.6877            4 
   18700    1.0033946   -6.2473378    4158.4605            4 
   18800    1.0211334   -6.2588111     4161.913            5 
   18900   0.99627152    -6.250359    4153.2733            9 
   19000   0.99330116   -6.2716451    4160.2318           16 
   19100   0.98749344   -6.2793524    4175.8481            6 
   19200    1.0148251   -6.2671196    4175.1538            3 
   19300   0.97677496   -6.2487401    4167.8076            4 
   19400    1.0176876   -6.2825135    4150.6386            6 
   19500      1.01981   -6.2869689    4148.9331            3 
   19600   0.98029799    -6.267815    4137.8612            9 
   19700   0.99595616   -6.2472101    4151.9119           10 
   19800    1.0169353   -6.2794062    4138.6705           11 
   19900   0.98586699   -6.2741052     4139.944            5 
   20000    1.0133393   -6.2690357    4152.4775            5 
   20100    1.0036623   -6.2463266    4158.4023            4 
   20200   0.99686223   -6.2558409    4147.5673            4 
   20300    1.0000408   -6.2788248    4158.4248            9 
   20400    1.0216614    -6.286325    4173.0937            5 
   20500   0.97156547   -6.2563478    4165.4585            4 
   20600   0.99475866   -6.2872228    4163.6714            4 
   20700    1.0034261   -6.2635498    4171.6463            9 
   20800   0.98581569   -6.2827194    4163.7973            8 
   20900   0.98714096   -6.2965274    4163.5714           10 
   21000   0.98846977   -6.2503725    4154.9652            6 
   21100    1.0343513   -6.2533316    4145.6671            6 
   21200    1.0105477   -6.2856289    4144.1705            4 
   21300    1.0085405    -6.289264    4144.9827            7 
   21400    1.0124188   -6.2657335    4146.9852            6 
   21500    1.0197728   -6.2756005    4139.1678           11 
   21600   0.98513528   -6.2654643    4141.8711            8 
   21700    1.0011927   -6.2609484     4157.907            3 
   21800    1.0098751   -6.2368985    4152.0499           12 
   21900    1.0051122   -6.2391118    4142.7958            8 
   22000   0.99582148   -6.2578943    4145.9014            5 
   22100   0.99422906   -6.2485766    4146.8703           11 
   22200    1.0087432   -6.2533164    4156.1402            4 
   22300    1.0049213   -6.2609847    4158.2659            5 
   22400   0.99969155   -6.2353562    4167.7112            5 
   22500   0.99185247    -6.237989    4162.1424            7 
   22600   0.96906189   -6.2695692     4149.099            7 
   22700   0.98349734   -6.2628875    4155.7581            6 
   22800     1.018016   -6.2877965    4153.3162           18 
   22900   0.98363065   -6.2733559    4140.0481           18 
   23000    1.0096051   -6.2830074    4149.9208           14 
   23100    1.0091527   -6.2794272    4161.6746           11 
   23200    1.0009751   -6.2749006     4172.795            6 
   23300   0.98368685   -6.2627317    4165.8754            5 
   23400    1.0073405   -6.2669058    4159.6433            3 
   23500    1.0247719   -6.2519435    4163.1025            2 
   23600   0.98685603   -6.2462898    4152.1892            3 
   23700   0.98308921   -6.2805333    4153.5465            3 
   23800   0.99705706   -6.2480047    4165.3907            7 
   23900   0.99981469    -6.254072    4160.5985            7 
   24000   0.98700534   -6.2681043    4152.4778            7 
   24100   0.99192722   -6.2766214    4138.8936           13 
   24200    1.0117401   -6.3035108    4146.4815            7 
   24300    1.0112825   -6.2671115    4139.3217            5 
   24400    1.0077981   -6.2693085    4140.9691            5 
   24500    1.0154619   -6.2379084    4159.5835            5 
   24600    1.0122107   -6.2665024    4156.0829            3 
   24700    1.0106548   -6.2935245    4154.6035            4 
   24800   0.98412452   -6.2803458    4154.9332            4 
   24900    1.0052492   -6.2649341    4159.8078            7 
   25000   0.98286148    -6.269145    4150.8006            3 
   25100    1.0106966   -6.3059884    4147.7895            7 
   25200    1.0251337   -6.2834593    4160.1461            5 
   25300    1.0019257   -6.2903209    4150.7777            6 
   25400   0.99083246   -6.3017549    4151.3579            6 
   25500    0.9991667   -6.2801519    4155.8117            5 
   25600    1.0075538   -6.2513671    4168.3918            3 
   25700   0.99201045   -6.2582773    4159.7002            4 
   25800   0.99047812    -6.292078    4143.7487            5 
   25900   0.98181777   -6.3048868     4143.145            9 
   26000   0.99586163   -6.2741212    4146.4207            5 
   26100    1.0159887   -6.2780952    4150.6949            8 
   26200    1.0046981   -6.2637784    4149.0132            5 
   26300    1.0104107   -6.3074445    4141.1098            8 
   26400    1.0059629   -6.2749877    4154.5468            9 
   26500    1.0152646   -6.2644201    4163.9475            4 
   26600   0.99051822   -6.2798672    4153.4207            8 
   26700    1.0095012    -6.284716    4146.7798            3 
   26800    1.0028738   -6.2739583     4168.803            9 
   26900    1.0025383   -6.2775143    4160.8555           14 
   27000    1.0108992   -6.2838406    4162.5474            4 
   27100   0.97269671   -6.2593884    4164.8644            9 
   27200   0.97108619   -6.3033489    4160.1156           10 
   27300   0.99414939   -6.2833131    4154.7856           14 
   27400    1.0107142   -6.2656084    4146.6263           10 
   27500    1.0104671   -6.2454503    4154.8819           10 
   27600   0.99188922   -6.2359384    4159.4974            4 
   27700    1.0128189   -6.2655341    4143.8276            6 
   27800   0.99979878   -6.2585867    4147.5406            6 
   27900    1.0058079   -6.2529618    4161.3343            6 
   28000     1.000698   -6.2639217    4164.7556            7 
   28100    0.9790034   -6.2590586    4151.7162            5 
   28200    1.0116056   -6.2619001    4154.3546            5 
   28300   0.99109459   -6.2497121    4149.9506            8 
   28400   0.98408528   -6.2826388    4137.9247            8 
   28500    1.0019572   -6.2601316    4155.4847            8 
   28600    1.0074953   -6.2426841    4165.5298            8 
   28700    1.0123275   -6.2713074    4160.2077            5 
   28800   0.99594733   -6.2547328    4155.5298            4 
   28900    1.0186863   -6.2527689    4170.5953            7 
   29000    1.0088989   -6.2764907    4164.2132            5 
   29100    1.0043078   -6.3087232    4155.0867            7 
   29200    1.0055852   -6.2902762    4161.6758            4 
   29300   0.98762774   -6.2583338    4163.9464            9 
   29400    0.9956292   -6.2766682     4160.962           10 
   29500   0.98779634   -6.3017745    4152.1915           11 
   29600    1.0016415   -6.2829523    4157.2294           15 
   29700    1.0022904   -6.2924497     4155.487           11 
   29800    1.0016329   -6.2930842    4155.0072           13 
   29900    1.0022668   -6.2514875    4156.5339           20 
   30000    1.0110271   -6.2205149    4167.2132            7 
   30100    0.9975517   -6.2500183    4152.0899            6 
   30200    1.0183155   -6.2434473    4152.1691            7 
   30300   0.99940187   -6.2370532    4156.9724            6 
   30400   0.98021489   -6.2614285    4145.5127            9 
   30500   0.99792208   -6.2497862    4153.7058            5 
   30600    1.0120565    -6.268291    4162.1086           14 
   30700   0.98640163   -6.2796291    4159.0723            4 
   30800   0.99817673   -6.2737406    4156.6494            5 
   30900    1.0010035   -6.2448186     4163.771            4 
   31000   0.98247078   -6.2186019    4166.2049            6 
   31100   0.98244241   -6.2532823    4167.9811            5 
   31200   0.98494032   -6.2944898    4161.6538            3 
   31300    0.9905629   -6.2790822    4156.4796            7 
   31400   0.99756392   -6.2415349    4163.7089            3 
   31500   0.98983414   -6.2391734     4159.808            7 
   31600    1.0018831   -6.2887633    4145.9487            9 
   31700    1.0257731    -6.297681     4140.396            7 
   31800   0.99030378    -6.225087    4144.4927            5 
   31900    1.0294939   -6.2239891    4163.7499            3 
   32000    1.0086497   -6.2342433    4160.0839            3 
   32100   0.99329414   -6.2448492    4152.5259            3 
   32200    1.0137204   -6.2398711    4147.8623            8 
   32300   0.99619826   -6.2520761    4144.2671            4 
   32400     1.004163   -6.3057661    4133.5275            5 
   32500   0.97881926   -6.2714051    4137.8734            5 
   32600    1.0229478   -6.2930586    4149.3497           10 
   32700   0.98761654   -6.2747881     4135.745           10 
   32800    1.0027331   -6.2925862    4140.3426            8 
   32900    1.0117646   -6.2569834    4151.1248            7 
   33000     1.000558   -6.2421923    4142.7884           11 
   33100   0.99722767   -6.2640274    4137.2312           10 
   33200   0.98481111   -6.2647569    4142.7864           11 
   33300    1.0075594    -6.280995    4142.1679           13 
   33400   0.98596612   -6.2629762    4154.3473            7 
   33500    1.0098544   -6.2443566    4170.3763            7 
   33600   0.99969717   -6.2641416    4156.6139            6 
   33700   0.99530121   -6.2838642    4148.0335            4 
   33800    1.0150993   -6.2798208     4152.906           13 
   33900   0.99873265   -6.2566968    4154.9817            7 
   34000   0.99521484   -6.2918891     4147.485            9 
   34100    1.0208877    -6.275144    4154.3956            6 
   34200   0.99026038   -6.2557989     4158.381            8 
   34300    1.0059649   -6.2379726    4158.2689            8 
   34400     1.009928   -6.2550814    4156.4294            9 
   34500    1.0001534   -6.2731317    4143.1782           13 
   34600   0.99140317   -6.2653105    4145.6187           11 
   34700    1.0000638   -6.2450157     4157.378           12 
   34800   0.99890571   -6.2452656    4157.2815            5 
   34900    1.0094696   -6.2363441    4167.3391            9 
   35000   0.99183948   -6.2677599    4163.4963           13 
   35100   0.98601809   -6.2777329    4163.2979           15 
   35200   0.96812318   -6.2959167    4147.4259           19 
   35300   0.99767093   -6.2900342    4149.4155           10 
   35400    1.0025588   -6.2632775    4157.7049           13 
   35500   0.99440554    -6.274102    4154.3133            7 
   35600   0.99365607   -6.2928418    4145.9247            9 
   35700     1.011807   -6.2883432    4147.6229            8 
   35800    1.0118189   -6.2518966    4162.6617           17 
   35900    1.0124676   -6.2766203    4156.8325            8 
   36000    1.0059145   -6.2871736    4165.6703           10 
   36100   0.99084558    -6.254729    4168.7461           10 
   36200   0.99708586   -6.2818679     4165.358            8 
   36300   0.97839539   -6.2847724    4154.9762           11 
   36400   0.99436025   -6.2573936    4156.0667            7 
   36500    1.0059137   -6.2609505    4157.7937            9 
   36600    0.9823065   -6.2636766    4136.0123            6 
   36700     1.016452   -6.2760301    4150.5637            7 
   36800   0.98977445   -6.2690927    4146.7683            5 
   36900   0.98762163   -6.2700899    4146.9768            7 
   37000   0.99777655    -6.246318    4162.6569            6 
   37100   0.99232895   -6.2833942    4160.0954            8 
   37200   0.99684927   -6.2740952    4152.3825            5 
   37300    1.0021613   -6.2456107    4159.8645            5 
   37400    1.0071916   -6.2558354    4157.5407           13 
   37500   0.97836945   -6.2484388    4152.8717            9 
   37600    1.0173894   -6.2682344    4167.3439           10 
   37700    1.0165677   -6.3035081    4173.9651            5 
   37800   0.98412549   -6.2587079    4161.4824            3 
   37900    1.0133753   -6.2597333     4163.282            2 
   38000   0.97652672   -6.2553949     4155.415            4 
   38100   0.97428395   -6.2387596    4162.2397            5 
   38200    1.0188521   -6.2690539    4162.5656            4 
   38300   0.99701496   -6.2718422    4158.5926            7 
   38400    1.0072797   -6.2558116    4159.2403            5 
   38500   0.98789829   -6.2735708    4156.5557            5 
   38600   0.96992084   -6.2798034    4157.0041            4 
   38700   0.98825499    -6.269961    4157.0914           13 
   38800   0.99750688   -6.2414405    4154.4154            7 
   38900    1.0010994   -6.2672496    4152.5866            6 
   39000    1.0204778   -6.3004338     4157.214            7 
   39100   0.99610064   -6.2823807    4158.5108            4 
   39200   0.98040953   -6.2952178     4150.059            4 
   39300   0.98855581   -6.2562489    4150.7773            6 
   39400    1.0008477   -6.2383872    4162.6945            7 
   39500    1.0066146   -6.2355305    4158.1155            3 
   39600   0.99317816   -6.2679123    4152.9427            8 
   39700    1.0105133   -6.2666416    4160.2497            5 
   39800    1.0071906   -6.2429308    4167.5387            4 
   39900   0.99034953   -6.2365709    4176.8268            6 
   40000   0.98570506   -6.2294804    4171.0701            4 
   40100    1.0165345   -6.2334432    4162.6889            3 
   40200   0.99559594   -6.2434523     4155.152            3 
   40300   0.98364175    -6.261824    4160.9487            3 
   40400    1.0098691    -6.244333     4168.057            8 
   40500   0.99424382   -6.2599786    4150.4194            5 
   40600    1.0085753   -6.2606791    4154.8051            4 
   40700    1.0418239   -6.2646328    4166.6324            3 
   40800   0.99940978   -6.2286068    4157.3023            5 
   40900    1.0056902   -6.2770994    4149.3564            4 
   41000   0.99622678   -6.2662463    4141.7315           10 
   41100    1.0063879   -6.2817491    4146.3597            7 
   41200    1.0028524   -6.2453939    4169.1214            6 
   41300    0.9960351   -6.2688654    4169.6839           11 
   41400   0.99632882   -6.2726901    4165.2235            7 
   41500   0.99292996   -6.3242223    4158.3477            7 
   41600   0.96835043    -6.280789    4155.8641            5 
   41700    1.0151023   -6.2918225    4152.2908            3 
   41800   0.99597253   -6.3048747    4147.7189            7 
   41900    1.0067496    -6.303049    4147.0981            9 
   42000      1.01592   -6.2642431    4147.4931            8 
   42100    1.0050417   -6.2582848    4155.9909            6 
   42200    0.9976051   -6.2844934     4140.108            6 
   42300    1.0110767   -6.3021404    4140.5032            4 
   42400   0.99793061   -6.2810003    4153.6403            9 
   42500   0.98800464    -6.263282    4157.8603           11 
   42600   0.99937417   -6.2711623    4166.5467            5 
   42700    1.0101503   -6.2786663    4160.9243            7 
   42800   0.99215471   -6.2796101    4162.4667            6 
   42900   0.99050328   -6.2962244    4159.9881            5 
   43000   0.96874622    -6.272608    4152.1182            4 
   43100    1.0083388   -6.2731569    4153.6501            7 
   43200    1.0007758   -6.2628619    4158.2205            8 
   43300    1.0205876   -6.2466448    4162.3729            3 
   43400   0.99476123   -6.2537585    4160.5743            5 
   43500    1.0058997   -6.2863586    4158.1343            8 
   43600   0.96739834   -6.2866233    4165.2592            7 
   43700   0.98920381   -6.2672525    4176.2973            6 
   43800   0.98704274   -6.2566335    4167.4939            9 
   43900   0.99635923   -6.2832507    4149.8965            7 
   44000    1.0125764   -6.2990881    4134.9451           14 
   44100    0.9855396   -6.3012054    4127.5341           12 
   44200    1.0013109    -6.283599    4138.7907            8 
   44300    1.0113923   -6.2719607    4147.9945            7 
   44400    0.9780989   -6.2805637    4153.3074            7 
   44500   0.98019062   -6.2806754     4161.199           13 
   44600    1.0033536   -6.2892388     4154.164            7 
   44700   0.98302102   -6.2722101    4149.1523            4 
   44800   0.98737251   -6.2763933    4152.2583            9 
   44900    1.0140244   -6.2944334     4143.811           17 
   45000    1.0086671   -6.2822166    4139.8293            4 
   45100   0.98375826   -6.2750066    4137.3481            4 
   45200    1.0082163   -6.2659797    4154.9958           10 
   45300    1.0121402    -6.289365    4159.1362            9 
   45400   0.97039305   -6.2671149    4149.2105           11 
   45500    1.0072581   -6.2868177    4158.1948            6 
   45600   0.98093994   -6.2722555    4161.2421            7 
   45700     1.007058   -6.2685756    4160.6781            3 
   45800    1.0013767   -6.2652263      4154.18            8 
   45900   0.98684195   -6.2827435      4157.31           15 
   46000    1.0121136   -6.2856908     4161.396            8 
   46100    1.0191901   -6.3190136    4151.8713            7 
   46200    1.0028239   -6.2670118    4145.4714            5 
   46300    1.0015143   -6.2787871    4160.5222            7 
   46400    1.0204018   -6.2566544    4161.8102            6 
   46500    0.9847427   -6.2507808    4156.9867            5 
   46600   0.99899735   -6.2441438    4161.0497            9 
   46700    1.0183108   -6.2252218    4175.4496            7 
   46800   0.99803119   -6.2292705     4165.705           12 
   46900   0.99698556    -6.260089    4156.2866            9 
   47000    1.0111949   -6.2603604    4163.7467            7 
   47100     1.020892   -6.2834156    4158.6073            7 
   47200   0.99324664   -6.2916191    4146.7697            8 
   47300    1.0054287   -6.2671287     4152.886            6 
   47400   0.99525579   -6.2643187    4158.5616            5 
   47500    1.0233264   -6.2332446     4155.688            5 
   47600    1.0036225   -6.2390365    4161.1928            8 
   47700    1.0126305   -6.2889685    4156.8972            4 
   47800   0.98101975   -6.2893216    4154.0077           10 
   47900   0.98865658   -6.2776614    4165.8116            5 
   48000    1.0144779   -6.2822864    4163.7465            6 
   48100   0.97457157   -6.2535711    4160.3335           16 
   48200    1.0013388   -6.2381184    4168.1903            7 
   48300    0.9991345   -6.2611002     4159.836            7 
   48400    1.0008848   -6.2729912    4153.1782           18 
   48500    1.0205974   -6.2760686    4154.3869            6 
   48600   0.98517411   -6.2753518    4149.5152            6 
   48700    1.0240532   -6.2919065    4149.2423            4 
   48800    1.0053574   -6.2918238    4146.7904            7 
   48900   0.97648956   -6.2790175    4149.8677            4 
   49000   0.99617045   -6.2713188     4154.363            4 
   49100    1.0069496    -6.254909    4152.4589            5 
   49200   0.99735527   -6.2672767    4154.8899            3 
   49300    0.9858093   -6.2655585    4154.7254            5 
   49400    1.0054807   -6.2576368    4159.5088           14 
   49500   0.98765346   -6.2843755    4150.8149            7 
   49600    1.0077088   -6.2910049    4155.5679           13 
   49700     1.014044   -6.3006503    4158.8164           12 
   49800   0.99030021    -6.320066    4159.9332            6 
   49900   0.98982961   -6.2746623    4166.4949            4 
   50000   0.99166703    -6.290348    4162.2253            4 
   50100    1.0127187   -6.2830478    4152.4727            4 
   50200    1.0091196   -6.2306714    4161.2566            6 
   50300   0.99522769   -6.2592687    4162.9251            7 
   50400    1.0024739   -6.2934399    4159.9526            6 
   50500    1.0066396   -6.2932194    4151.1948            9 
   50600   0.98321338   -6.2611922    4161.5671           13 
   50700   0.99485285   -6.2538034    4163.4365           15 
   50800    1.0180375   -6.2678212    4168.1555            6 
   50900    1.0065693   -6.2931451    4153.0755            5 
   51000    1.0090903   -6.2832035    4145.2108            5 
   51100    1.0073059   -6.2780713    4157.7318            7 
   51200   0.97745207   -6.2712976    4155.6559            3 
   51300    1.0043108   -6.2845592    4150.9627            5 
   51400   0.99132187   -6.2874819    4155.4908            5 
   51500    1.0074229   -6.2705801    4162.4844            5 
   51600     1.021032   -6.2538557    4171.6033            6 
   51700    1.0019404    -6.248692    4177.5062            6 
   51800   0.98973278   -6.2748821    4155.5115            6 
   51900   0.99798649   -6.2901621    4152.0848            6 
   52000    1.0103112   -6.2543156    4158.0041            5 
   52100    1.0039217   -6.2852616    4150.0368           15 
   52200    1.0001529   -6.2804957    4153.0115           12 
   52300   0.99991005   -6.2836812    4158.0973            8 
   52400   0.97048747    -6.288689    4146.2254           12 
   52500   0.98086645   -6.2536605    4159.0714            4 
   52600    1.0106085   -6.2635917    4162.0005           10 
   52700   0.98750874   -6.2781981    4144.3055           12 
   52800   0.99995081   -6.3006983    4142.7226           11 
   52900    1.0022735   -6.2706041    4145.4356            6 
   53000    1.0294399    -6.256377    4154.4353            8 
   53100    1.0046542   -6.2644611    4140.5271            5 
   53200   0.99639068   -6.2815189     4134.798           11 
   53300    1.0179198   -6.2850779    4145.4871            4 
   53400   0.99784024   -6.2512715    4152.6563           12 
   53500   0.99738567   -6.2476495    4145.9893            6 
   53600     1.012209   -6.2633008    4147.7588            6 
   53700      1.00288   -6.2468516    4155.5585            3 
   53800    1.0011759   -6.2773142    4148.0756            6 
   53900   0.99179925   -6.2769089    4142.2976            8 
   54000     1.002547   -6.2630997      4157.01           10 
   54100   0.99253109   -6.2859741    4152.2173            3 
   54200   0.99788988   -6.3095251    4140.4453            5 
   54300   0.99783259   -6.2799183    4143.2522           13 
   54400    1.0253083   -6.2816262    4160.4423            5 
   54500    1.0033276    -6.260818    4157.5942            5 
   54600   0.97935468   -6.2615497    4152.9766            4 
   54700    1.0058529   -6.2534315    4159.0951            4 
   54800    1.0162457    -6.283549     4152.044            5 
   54900    1.0061194   -6.2612842    4151.6222            5 
   55000   0.99541538    -6.267324    4151.9751            5 
   55100   0.98529171   -6.2693059    4152.1451            5 
   55200    1.0043429   -6.2471442    4171.7224            3 
   55300   0.99870903   -6.2818803    4159.2247            4 
   55400   0.98124383   -6.2737166    4153.7655            6 
   55500    1.0101393   -6.2730585    4161.3624            8 
   55600    1.0014377   -6.2766934    4165.9046            8 
   55700   0.99702214    -6.243387    4163.1999            6 
   55800    1.0032312   -6.2830884    4162.5175            6 
   55900    0.9876015   -6.2776634     4162.017            4 
   56000   0.96885679   -6.2849582    4169.6864            5 
   56100   0.98753826   -6.2574397    4164.2229            6 
   56200   0.99582823   -6.2786111    4156.0607            3 
   56300    0.9975018   -6.3078016    4160.0061            5 
   56400    1.0021603   -6.2831294    4162.5454            4 
   56500    1.0025517   -6.2363602    4157.5037           12 
   56600    1.0022712   -6.2787917    4149.2603            6 
   56700   0.99077005     -6.26354    4142.3297            6 
   56800    1.0135798   -6.2518331    4157.2729           10 
   56900    1.0212194   -6.2951913    4157.2752            7 
   57000    1.0050338   -6.2949787      4153.09           11 
   57100   0.99996789   -6.2625058    4158.6911            8 
   57200    1.0132361   -6.2768163    4161.9894           15 
   57300   0.98914225   -6.2735839    4145.2684           13 
   57400    1.0102594   -6.2718368    4149.8491            4 
   57500    1.0125738   -6.2675125    4147.8778            9 
   57600     1.008179    -6.280869    4139.6091            5 
   57700    1.0124249   -6.2823394    4145.7027            7 
   57800    1.0127238   -6.2458147     4156.185            3 
   57900    1.0146535   -6.2835285    4152.7147            4 
   58000   0.99313596   -6.2847658     4150.274            4 
   58100    1.0211052   -6.2712179    4154.0315            4 
   58200    1.0031074   -6.2746345    4148.5203            4 
   58300    1.0041912   -6.2765311     4153.418            9 
   58400   0.98893485   -6.2582672    4157.9586            3 
   58500      1.00417   -6.2816655    4162.9992            7 
   58600    1.0050578   -6.2461281     4164.143            5 
   58700   0.98238287   -6.2629985    4162.6838           10 
   58800    1.0019267   -6.2761194    4156.7696            7 
   58900    1.0059161   -6.2311213    4171.8563            7 
   59000     1.014784   -6.2760982    4158.5384           20 
   59100   0.98474958   -6.2565447     4155.174            4 
   59200    1.0010152   -6.2851558    4157.9261            8 
   59300    1.0179208   -6.2760398    4151.0664           10 
   59400   0.99448307   -6.2776974    4150.6187            5 
   59500    0.9933603   -6.3029276    4135.9795            8 
   59600    1.0114658   -6.2835525     4133.209            8 
   59700    1.0158705   -6.2854648    4142.2337            9 
   59800   0.99449396   -6.2372838    4134.4547            4 
   59900    1.0148366   -6.2731295    4131.6406            5 
   60000   0.99165004   -6.2740563    4142.4624            7 
   60100    1.0119131   -6.2717925    4155.2933            6 
   60200   0.99875557   -6.2666562    4148.8191            7 
   60300   0.98075892   -6.2752062    4147.3627            3 
   60400    1.0098329   -6.2764501    4157.6069            6 
   60500     1.011954   -6.2687355    4164.7829            5 
   60600     1.028841   -6.2605891    4178.0337           10 
   60700   0.97915346   -6.2424699    4172.1037            5 
   60800   0.99894527   -6.2452541    4167.8207            6 
   60900   0.98108608   -6.2634909    4142.3357            5 
   61000   0.99860963   -6.2511886    4153.4827            7 
   61100    0.9983439   -6.2474755    4156.3432            9 
   61200   0.98763171   -6.2722322    4160.5407            5 
   61300   0.98499285   -6.2791529    4163.3297            4 
   61400    1.0206831   -6.2896758    4173.4877            7 
   61500    1.0003332   -6.2951415    4155.3419            6 
   61600   0.99206255   -6.2925104     4156.084            4 
   61700   0.99940972   -6.2564978    4165.0179            5 
   61800    1.0024849   -6.2815531    4163.8996            7 
   61900    1.0065456   -6.2937046    4166.7729            4 
   62000    1.0099074   -6.2758818    4154.4313            5 
   62100    1.0003078   -6.2906642    4140.7532            5 
   62200   0.96615924    -6.297548    4130.4755            8 
   62300    0.9966562   -6.2842062    4133.1383            8 
   62400   0.98858429   -6.2514857    4145.2565            9 
   62500    1.0232728   -6.2830951    4156.3478           10 
   62600     1.005738   -6.2932498    4144.1365           11 
   62700    1.0005212   -6.2812256    4153.1664            4 
   62800    1.0066277   -6.2622118    4169.2897            4 
   62900   0.96937426   -6.2590328    4170.4438            5 
   63000   0.99917533   -6.2767362    4153.2257           19 
   63100    1.0005551   -6.2697587    4146.0153            5 
   63200    1.0064517   -6.2768036    4160.9798            7 
   63300    1.0043126   -6.2846077    4151.7806           12 
   63400    1.0075017   -6.2973443    4141.4751           16 
   63500    1.0132037   -6.2969591    4129.8059            6 
   63600   0.98187167   -6.2862652    4134.6083           10 
   63700    1.0077461   -6.2787926    4141.5304            5 
   63800     1.010809   -6.2746049    4149.1784            4 
   63900   0.99780501   -6.2354249    4152.4147            7 
   64000   0.99223618   -6.2617548    4145.7735            5 
   64100   0.98068097   -6.2549653    4140.9799            6 
   64200    1.0124856   -6.2642142    4152.4477            3 
   64300    0.9814972   -6.2544825    4147.0527            6 
   64400    1.0052959   -6.3082218    4142.7128            4 
   64500   0.99927095   -6.2494388    4164.2025            4 
   64600    1.0206263   -6.2588185    4164.8522            8 
   64700   0.99707935   -6.2600281    4142.9131            6 
   64800    1.0101997   -6.2860398    4146.2889            5 
   64900   0.99768358    -6.285497    4154.8712            6 
   65000    1.0035265   -6.2867105    4161.1316            4 
   65100   0.96339143   -6.2472976    4148.1886            6 
   65200    1.0000675   -6.2662599    4163.3739            4 
   65300   0.99251171   -6.2536031    4171.6048            4 
   65400   0.98123762   -6.2779557    4160.6903            4 
   65500     1.002248    -6.279393    4157.1585            5 
   65600    1.0188673    -6.277771    4169.0319            6 
   65700   0.99913627    -6.257888    4172.6522            7 
   65800   0.97803567   -6.2667074    4153.5779            6 
   65900    0.9962143   -6.2829811    4162.7454            4 
   66000     1.009625   -6.2529454    4163.1182            5 
   66100    0.9925088    -6.260882    4165.9609            7 
   66200   0.99933051   -6.2743934    4164.4126            6 
   66300    1.0022036   -6.2605016    4156.0311            3 
   66400   0.99102446   -6.2751058    4145.6323            5 
   66500    1.0022001   -6.2623872    4144.8709            3 
   66600    1.0137523   -6.2699307     4143.541            6 
   66700     1.016738   -6.2687669    4146.3691            8 
   66800    1.0146564   -6.2702627    4142.7187            7 
   66900   0.98515653   -6.2629158    4152.7431            5 
   67000    1.0075915   -6.2692878    4154.3382            7 
   67100    1.0076621   -6.2596744    4155.3474            7 
   67200    1.0171784   -6.2499171    4161.4474            4 
   67300    1.0075897   -6.2889813    4153.7257            4 
   67400   0.99677963   -6.2698637    4151.0612            5 
   67500    1.0215871   -6.2819294    4168.4198            9 
   67600   0.99270814   -6.2734198    4161.3097            4 
   67700   0.96915389   -6.2902239    4150.4226            4 
   67800    0.9817315   -6.2620025    4147.6194            3 
   67900   0.99342312   -6.2452003     4163.945            5 
   68000   0.98942016   -6.2432096    4171.3349            5 
   68100   0.98663499   -6.2679124    4165.7957            4 
   68200    1.0134728   -6.2752158    4161.7967            5 
   68300    1.0176017   -6.2909376    4164.5444            9 
   68400   0.97918564   -6.2760212    4163.5641           11 
   68500   0.99528741    -6.253957    4165.5058           14 
   68600    1.0256383   -6.2423635    4176.8041            7 
   68700    1.0067838   -6.2586928    4158.9361            5 
   68800    1.0048159   -6.2613701    4159.3915           10 
   68900    1.0245293   -6.2697342    4164.0373            9 
   69000   0.99268079   -6.2821877    4167.2812            8 
   69100   0.99323523   -6.2755278    4164.1489            4 
   69200    1.0103648   -6.2799295    4157.5077            5 
   69300    1.0153329    -6.253866    4166.4963            5 
   69400   0.99619108   -6.2738957    4145.4337            6 
   69500    1.0085974   -6.2921385    4139.8105            3 
   69600    1.0093888   -6.2336309    4149.3853            3 
   69700   0.99634358   -6.2564468    4157.8504            4 
   69800   0.98362227   -6.2812794    4150.3256            7 
   69900   0.98818802   -6.2970819    4151.8959            4 
   70000   0.98420098   -6.2521225    4167.9526            8 
   70100   0.99922062   -6.2669669    4167.2804           14 
   70200   0.99132546   -6.3007553    4166.2899           14 
   70300    1.0159078   -6.2920862    4176.0828           10 
   70400   0.98520978   -6.2622603    4179.0262            9 
   70500   0.98114441   -6.2612264    4170.0983           11 
   70600   0.96783589   -6.2705928    4170.1298           17 
   70700    1.0029607   -6.2675005    4165.8634           15 
   70800   0.98286954   -6.2711553    4157.0757           12 
   70900   0.98506106   -6.2795685    4149.6692            6 
   71000   0.99251447   -6.2516124    4166.5944            6 
   71100   0.98726661   -6.2632902    4157.5829            9 
   71200    1.0062946   -6.2917342     4155.929            4 
   71300    1.0117895   -6.2524161    4157.1795            8 
   71400   0.98939852   -6.2753661    4158.0599            7 
   71500   0.99936948   -6.2995713    4164.5386           14 
   71600    1.0079459   -6.2962757    4156.6518           11 
   71700   0.99384195   -6.2963517    4140.7114           19 
   71800    1.0010065   -6.2694124    4145.5896           10 
   71900   0.98593608   -6.2495704    4154.8626            7 
   72000    1.0178719   -6.2614159    4160.7002            6 
   72100    1.0018388   -6.2998676    4159.1432            6 
   72200    1.0033789   -6.2698248    4166.0179            6 
   72300   0.98714481    -6.244991    4176.1286            9 
   72400   0.99584944   -6.2500667    4156.2385            3 
   72500   0.98941342    -6.256099    4146.8462            3 
   72600    1.0216309    -6.262303    4140.7035            5 
   72700   0.98695638    -6.277753    4135.6865            7 
   72800     1.023928   -6.3006054    4149.0371           13 
   72900     1.007002   -6.2829065    4157.6492            6 
   73000   0.97150295   -6.2754474    4159.5748            8 
   73100    1.0195928   -6.2766645    4152.0785            7 
   73200    1.0147737   -6.2736757    4151.7034            4 
   73300    1.0083726   -6.2780367    4151.5208            7 
   73400    1.0207034   -6.2452133    4159.7938            8 
   73500    1.0068952   -6.2357541    4155.0418            7 
   73600    1.0032381   -6.2776315    4149.2057            7 
   73700   0.98410804   -6.2373657    4152.9163           11 
   73800    1.0168529     -6.27233    4172.3729            5 
   73900   0.99357742   -6.2764751    4152.4208            5 
   74000    1.0102648   -6.2735095    4157.3837            6 
   74100    1.0127141   -6.2517078     4153.324            8 
   74200    1.0106787   -6.2741869    4141.0323            7 
   74300    0.9951403   -6.2692458    4152.4762           10 
   74400   0.97758983   -6.2503986    4167.4742           12 
   74500    0.9884244   -6.2622077    4163.8164           17 
   74600   0.99758559   -6.2923389     4151.366            8 
   74700   0.97591402   -6.3027115    4143.0391            8 
   74800    1.0030377   -6.3016071    4157.0686            7 
   74900   0.98675778   -6.2685143    4163.1996            7 
   75000    1.0222349   -6.2737643    4166.9831           10 
   75100   0.98473856   -6.2712621      4157.35            7 
   75200    1.0033811   -6.2757034     4163.866            4 
   75300    1.0131057   -6.2661381    4159.5898            9 
   75400    1.0119014   -6.2976425    4147.1071            8 
   75500    1.0122553   -6.2822888     4139.883           10 
   75600   0.99160635   -6.2458196    4155.6903            5 
   75700    1.0044229   -6.2380466    4166.6224            6 
   75800   0.97355028   -6.2372003    4166.2199            4 
   75900   0.99915466   -6.2592232    4154.7285            4 
   76000   0.97582441   -6.2741124    4150.0827            9 
   76100   0.99846802   -6.2768719    4157.7906            7 
   76200    1.0081916   -6.2718954    4158.8836            7 
   76300    1.0085056   -6.2674659    4154.5832            8 
   76400    1.0041997   -6.2507964    4164.0521            8 
   76500   0.99949789   -6.2439631    4168.8049            6 
   76600    1.0090977   -6.3063719    4161.3809            9 
   76700   0.97992615   -6.3022227    4146.4247            6 
   76800   0.98397741   -6.2872787    4154.1565           10 
   76900   0.99438768   -6.2906686    4157.6463           11 
   77000   0.98682601    -6.284439    4158.0734            6 
   77100    1.0177288   -6.2847997    4158.3843            4 
   77200   0.99385665   -6.2836116    4149.5417            3 
   77300    1.0104816   -6.2693446    4149.0418            6 
   77400   0.98948205   -6.2389665    4148.5767            9 
   77500    1.0169584   -6.2503081    4158.7491            3 
   77600    1.0002158    -6.277403    4136.4038            2 
   77700   0.99586894   -6.2867507    4138.7569            7 
   77800    1.0159798   -6.2452417    4142.8125            5 
   77900   0.99777597   -6.2354721    4134.0439            6 
   78000   0.99678991   -6.2814479    4132.9043            8 
   78100    1.0038889   -6.2599949    4148.4482            7 
   78200    1.0010326   -6.2612937    4153.6961            6 
   78300    1.0011789   -6.2735599    4152.7877            2 
   78400    1.0126794   -6.2459118      4160.77            4 
   78500    1.0058406   -6.2767005    4147.8415            3 
   78600   0.98858267     -6.24698    4141.5298            3 
   78700    1.0011653   -6.2602209    4145.4211            5 
   78800     1.004603   -6.2889524    4142.3212            4 
   78900    1.0014706   -6.2943676    4136.1789            4 
   79000    1.0112446    -6.277616      4153.34            5 
   79100    1.0015549   -6.2885388    4148.5893           10 
   79200   0.96848994   -6.2944359    4157.4645            8 
   79300   0.98605717   -6.2978458    4166.3429            6 
   79400   0.99511313   -6.2783793    4169.0983            5 
   79500    1.0084618   -6.2554953     4164.645            4 
   79600     1.008125   -6.2593079    4162.4536            8 
   79700   0.99985265   -6.2908662    4162.0435            9 
   79800   0.99331148   -6.3241323    4145.4948            5 
   79900    1.0049205   -6.2957532    4140.6287            6 
   80000    1.0070541   -6.2580004    4150.9478            4 
   80100   0.99167857   -6.2525191    4158.2069            5 
   80200    1.0020413   -6.2799744    4165.0905            4 
   80300   0.99140008   -6.3066689    4161.0378            5 
   80400   0.98405223   -6.3194028    4152.5393            3 
   80500   0.98546472   -6.2701194    4147.6897            4 
   80600   0.98404571   -6.2276828    4160.4556            6 
   80700    1.0084392    -6.233832    4165.1239            9 
   80800   0.99977813   -6.2599528    4153.6592            3 
   80900   0.99608087   -6.2566646    4159.0562            3 
   81000   0.99908976   -6.2475687    4160.1335            8 
   81100   0.98766002   -6.2588553    4147.5906            7 
   81200   0.99761572   -6.2544123     4159.601            7 
   81300     1.003898   -6.2728528    4163.5092            5 
   81400   0.99671255   -6.2844873    4157.7092            6 
   81500    0.9856379   -6.2795203    4158.9255            6 
   81600    1.0114681   -6.2743534     4168.016            4 
   81700   0.96899869   -6.2508091    4161.3728            4 
   81800   0.98801839   -6.2880258    4157.3778            5 
   81900   0.98457317   -6.3208981    4151.2015            4 
   82000   0.98547721   -6.3104735    4160.9869            3 
   82100   0.98940891   -6.2854645    4166.5048            3 
   82200    1.0035498   -6.3249741    4161.5455            3 
   82300   0.96673746   -6.3339287    4163.9947            3 
   82400   0.98610676   -6.3090142    4158.6093            6 
   82500    1.0072292   -6.2984746    4161.5532            5 
   82600    1.0213796   -6.2736977    4162.3494            6 
   82700   0.98030916   -6.2597692    4146.8191           14 
   82800    1.0004117   -6.2703714    4152.1677            8 
   82900    1.0100518   -6.2656554    4151.2909            9 
   83000   0.99283515   -6.2829068    4141.5639            7 
   83100    1.0089256   -6.2874844    4147.5801            3 
   83200    1.0221502   -6.2810678    4145.1453            5 
   83300   0.99727038   -6.2780621    4145.2538            5 
   83400    1.0087916   -6.2603877    4144.2399            5 
   83500    1.0144599   -6.2599472    4149.7777            3 
   83600    1.0012334   -6.2974944    4147.5078            5 
   83700    1.0052344   -6.2690466    4156.9382            9 
   83800     1.005065   -6.2907706    4156.3813            4 
   83900   0.99736828   -6.3096061    4143.9996            5 
   84000   0.99557479   -6.2861262    4151.4411            2 
   84100    1.0082609   -6.2943387    4157.2598            3 
   84200   0.98914267   -6.2913979    4153.7933            3 
   84300     0.998293   -6.2999588    4149.2234            5 
   84400   0.98702777   -6.2653377    4158.9566            5 
   84500    1.0034973   -6.2434529    4164.5626            4 
   84600     1.011497   -6.2584163    4149.7973           12 
   84700    0.9875721   -6.2525397    4145.0536            3 
   84800    1.0159008   -6.2503033    4153.6551            4 
   84900   0.98958182     -6.25282    4147.0414            4 
   85000     1.015263   -6.2671247    4137.5864            4 
   85100    1.0386938   -6.2530985    4155.4537            7 
   85200    1.0012747   -6.2535831    4151.1028            6 
   85300    1.0087243   -6.2757994    4140.8591            5 
   85400    1.0018837   -6.2943617    4133.5716            6 
   85500   0.98638497   -6.2443674    4139.5379            2 
   85600    1.0108875   -6.2587786    4154.3958            5 
   85700    0.9859612   -6.2475755    4151.8723            6 
   85800   0.99299526   -6.2537681    4156.8635            3 
   85900    1.0161106   -6.2550314    4168.8747           10 
   86000   0.99783567   -6.2403372    4168.5472            6 
   86100   0.99681056   -6.2928877    4165.6306            7 
   86200   0.99762346   -6.2750265    4165.7743            5 
   86300   0.99251384   -6.2606533    4176.4724           11 
   86400    1.0040284   -6.2485882    4181.8461           18 
   86500    0.9881934   -6.2713083     4171.882            7 
   86600    1.0078392    -6.268747    4169.9661           10 
   86700    1.0210348   -6.2308538    4173.7156           10 
   86800    1.0065018   -6.2594971    4166.2746            6 
   86900   0.99840087   -6.2699203    4146.2792            8 
   87000    1.0102592   -6.2947877    4153.2993            8 
   87100    1.0030563   -6.2883356    4159.6104            9 
   87200   0.97682782   -6.2630733    4155.4142           11 
   87300    1.0014299   -6.2607703    4154.7702           17 
   87400    1.0106477    -6.256663    4161.1981           14 
   87500    1.0086017   -6.2966834    4138.9366            9 
   87600   0.99662217    -6.261967     4141.382            6 
   87700   0.98935063   -6.2333341     4156.878            5 
   87800    1.0060483   -6.2642387    4161.5739            6 
   87900   0.99340494   -6.2553075    4153.6577            8 
   88000   0.96880647   -6.2568946    4148.7826            4 
   88100    1.0000499   -6.2881903    4148.5994            7 
   88200    1.0195664   -6.2821671    4153.4717            9 
   88300   0.98746197   -6.2875496    4158.3097            4 
   88400    0.9995066   -6.2935142    4156.1095            8 
   88500    1.0304337   -6.2817931    4153.3777            9 
   88600    1.0076332   -6.2823071    4141.5256            6 
   88700   0.99430825   -6.2674768    4138.5571            7 
   88800    1.0236718   -6.2653827     4141.118            6 
   88900    1.0203444   -6.2444752    4148.0457            3 
   89000    0.9975254   -6.2718501    4146.7777            5 
   89100    1.0076156   -6.3002097    4143.2553            6 
   89200   0.99786572   -6.3186578    4142.9369            8 
   89300   0.98248774   -6.2935691    4150.2294            8 
   89400      1.00525   -6.2892716    4145.5293            6 
   89500    1.0284954   -6.2594688    4133.1508            8 
   89600    1.0062177   -6.2665398    4143.1874            6 
   89700   0.96858372   -6.2483169    4140.2961            7 
   89800    1.0294568   -6.2872401    4142.3204            5 
   89900    1.0220058   -6.2864551    4149.3889            8 
   90000   0.98098738   -6.2820513    4136.5376            6 
   90100    1.0059106   -6.2715753    4136.2352            7 
   90200      1.02246   -6.2777366    4149.1668            5 
   90300    1.0004084   -6.2660446    4150.3827            8 
   90400    1.0054061    -6.299257    4147.0971            5 
   90500   0.99239281   -6.2705638    4154.3408            9 
   90600     1.009117   -6.2530163    4171.7705            3 
   90700   0.98502611   -6.2605142    4152.4389            4 
   90800   0.98888457   -6.2550669    4164.9826            8 
   90900   0.99141013   -6.2497746     4173.129            4 
   91000   0.99593908   -6.2127911    4171.1762            7 
   91100    1.0135845   -6.2617862    4163.7714            4 
   91200   0.99466569   -6.2774965    4153.6513            7 
   91300    1.0059177   -6.2821861    4156.7993            4 
   91400     1.001018   -6.2659252    4169.7022            7 
   91500   0.99282749     -6.30464    4150.0123            6 
   91600   0.98103561   -6.2498345    4152.5485            4 
   91700    1.0032903   -6.2711331    4142.7725            6 
   91800    1.0057641   -6.2831337    4146.5991            7 
   91900    1.0159254   -6.2594466    4165.2766            7 
   92000    1.0074047    -6.287499    4152.7444            9 
   92100   0.98570011    -6.253481    4145.4579            5 
   92200    1.0342851   -6.2773554    4152.9182            8 
   92300   0.98531503   -6.2544377    4138.7479            5 
   92400   0.99718924   -6.2509816    4142.6829            5 
   92500    1.0027097   -6.2314287    4156.9271            5 
   92600   0.99951678   -6.2497444    4154.7173            8 
   92700     1.004099   -6.2861941    4149.9621            5 
   92800   0.98149497   -6.2889405    4135.6412           10 
   92900     1.003922   -6.2693613    4143.6327            6 
   93000    1.0091048   -6.2610927    4149.8526           11 
   93100   0.99932056   -6.2549061    4156.0615            7 
   93200    1.0183614   -6.2732735     4156.273            7 
   93300   0.99240826   -6.2837115    4149.0733            8 
   93400   0.99893776   -6.2636568    4158.1697            9 
   93500    1.0080956   -6.2401557    4157.9955            3 
   93600     1.001012   -6.2394378    4157.9658           10 
   93700    1.0040399   -6.2547521    4156.5297            4 
   93800   0.98900233    -6.269157    4142.3187            5 
   93900   0.99793113   -6.2700169    4147.3109            4 
   94000    1.0180674   -6.2721659    4158.7968            6 
   94100   0.97633822    -6.269562    4159.3177            7 
   94200   0.98896349   -6.2520764    4155.6922            6 
   94300    1.0397666   -6.2900735    4146.1852           12 
   94400    1.0031077   -6.2912909    4146.9145           12 
   94500   0.97864213   -6.2923757    4154.0476            5 
   94600   0.99691997   -6.2564553    4151.8144            5 
   94700   0.99860295   -6.2480525    4156.4199            9 
   94800   0.98899073    -6.237798    4166.8994            5 
   94900   0.98956691   -6.2819136    4153.4987            7 
   95000    1.0126686   -6.3183042    4144.7379           20 
   95100    1.0057435   -6.3127275    4150.0417            9 
   95200   0.99893376   -6.2962198    4164.9427           13 
   95300    1.0204081   -6.2964692    4171.1818            5 
   95400   0.98792783   -6.2289989    4172.9669            7 
   95500    1.0129723   -6.2695057    4154.9889           20 
   95600   0.99157756   -6.2665865    4150.2917            8 
   95700    1.0122911   -6.2698884    4154.4392           10 
   95800    0.9927393   -6.2780652    4166.7041           16 
   95900   0.98698821   -6.2896095    4158.0651           10 
   96000    0.9982587   -6.2739918    4160.1223            6 
   96100      1.00729    -6.260821    4166.5307            7 
   96200    1.0043209   -6.2762345    4156.9919            5 
   96300    0.9969489   -6.3085412    4152.7581           15 
   96400    1.0030959   -6.2791783    4162.6797            9 
   96500   0.99730553    -6.288605    4149.1174            8 
   96600    1.0003096   -6.2846077    4158.2035            7 
   96700   0.98101697   -6.2683897    4162.7481            7 
   96800   0.98004068   -6.2785939    4157.2977            9 
   96900   0.97480449   -6.3039176    4151.8138            5 
   97000    1.0201599   -6.3104481    4153.0033            4 
   97100   0.97777616   -6.2798416    4161.0826            8 
   97200   0.99732668   -6.2740659    4164.9352            8 
   97300   0.96754147   -6.2511984    4158.0367            5 
   97400    1.0212528   -6.2882245    4161.3697            6 
   97500    1.0072354   -6.2861413    4158.2843            6 
   97600   0.99229501   -6.2826454    4156.7033            8 
   97700   0.97663315   -6.2695657    4157.7993            4 
   97800   0.99582641   -6.3005913    4148.5466            8 
   97900    0.9933205   -6.2913727    4147.4556            5 
   98000    1.0198069    -6.276678     4159.981            7 
   98100   0.99818983   -6.2819375    4151.8968           11 
   98200   0.98292069    -6.288604    4150.8988            7 
   98300   0.99846932   -6.2856434    4155.6614            7 
   98400   0.98762914     -6.27665    4158.3955           17 
   98500    1.0049034   -6.2688279    4167.2219            7 
   98600   0.97424544   -6.2736524    4156.4945            5 
   98700    1.0029211   -6.2942923    4151.0861            5 
   98800   0.98130147   -6.3208047    4155.7365            7 
   98900   0.98099548   -6.2622741    4153.2066            9 
   99000    1.0121202   -6.2743744    4163.7098            5 
   99100    1.0097516   -6.2926093    4169.6491            4 
   99200    0.9909087   -6.3118291    4157.5883            5 
   99300   0.98813793   -6.3046152    4163.5856           11 
   99400    1.0137454   -6.2927232    4166.9363            5 
   99500   0.99257459   -6.2972479    4161.1865            4 
   99600   0.98268669   -6.2861499    4160.5034            8 
   99700    1.0007937   -6.2763519    4156.7757           12 
   99800    1.0027902   -6.2920095    4150.2886            4 
   99900   0.97821341   -6.2595033    4158.0804            4 
  100000    1.0019802    -6.273727    4165.8904            4 
  100100   0.98547864   -6.2955455    4143.4589            7 
  100200   0.99463356   -6.2735471    4145.8319            4 
  100300    1.0131172   -6.2704185    4149.0813            5 
  100400   0.99958806   -6.2746663    4144.1286           10 
  100500    1.0128575   -6.2594723    4149.3151            4 
  100600    1.0114638   -6.2588589    4148.3147            5 
  100700     1.002568   -6.2935825    4149.6666            6 
  100800    0.9991408   -6.2673525    4159.0872            6 
  100900    1.0088147   -6.2309548    4152.9362            3 
  101000    1.0069275   -6.2612773    4141.8452            6 
  101100   0.98419291   -6.2631593    4144.6466            8 
  101200    1.0058002   -6.2694793    4157.1205           10 
  101300    1.0264838   -6.2498733    4168.9678            5 
  101400    0.9868719   -6.2434426     4161.708            5 
  101500    1.0022641   -6.2560101    4167.2274            4 
  101600   0.98019125   -6.2437652    4176.2697            6 
  101700   0.99060408   -6.2781447    4160.2912            7 
  101800   0.98971425   -6.2622616    4156.1551            8 
  101900   0.99978694   -6.2220426     4156.461            5 
  102000   0.99720763    -6.228299    4161.9421            3 
  102100    1.0018011   -6.2777535    4157.8168            4 
  102200    1.0010396    -6.284318    4155.8611            3 
  102300    1.0149123   -6.2658334    4169.9662            4 
  102400   0.99756611   -6.2872791    4151.7078            3 
  102500   0.98101082   -6.2916935    4142.9231            7 
  102600   0.99430493   -6.2682719    4147.5207            3 
  102700   0.99013039   -6.2532745    4155.0852            6 
  102800   0.98095752   -6.2859924    4149.8891            7 
  102900   0.98288959   -6.2863315    4148.0079            6 
  103000   0.98097518   -6.2479215    4175.1579            4 
  103100   0.99372996   -6.2810955    4176.7239           10 
  103200   0.97622954   -6.2724443    4162.9644            9 
  103300    1.0186044   -6.2768749     4158.957            6 
  103400    1.0058781    -6.261752    4151.3053           14 
  103500   0.98879811    -6.266192    4146.8341           11 
  103600     1.001305   -6.2725408    4147.1223            6 
  103700    1.0016865   -6.2211464    4154.2845            9 
  103800     1.010775   -6.2496914    4146.8822           15 
  103900    1.0054872   -6.2645141    4144.2898           10 
  104000    1.0224856   -6.2622555    4143.0961            9 
Loop time of 125.76 on 64 procs for 100000 steps with 4000 atoms

Performance: 137404.596 tau/day, 795.165 timesteps/s
99.9% CPU use with 64 MPI tasks x no OpenMP threads

MPI task timing breakdown:
Section |  min time  |  avg time  |  max time  |%varavg| %total
---------------------------------------------------------------
Pair    | 7.3199     | 7.4798     | 8.0486     |   6.2 |  5.95
Neigh   | 1.0787     | 1.0974     | 1.1499     |   1.5 |  0.87
Comm    | 9.5966     | 13.741     | 18.929     |  62.7 | 10.93
Output  | 5.6961     | 5.697      | 5.7129     |   0.1 |  4.53
Modify  | 84.178     | 93.694     | 99.828     |  41.9 | 74.50
Other   |            | 4.05       |            |       |  3.22

Nlocal:        62.5000 ave          70 max          53 min
Histogram: 1 0 6 4 9 20 9 10 3 2
Nghost:        1446.36 ave        1462 max        1426 min
Histogram: 1 3 2 14 2 10 12 10 6 4
Neighs:        6897.83 ave        7770 max        5624 min
Histogram: 1 0 1 4 14 6 22 12 2 2
FullNghs:      13795.7 ave       15401 max       11677 min
Histogram: 1 0 4 9 10 11 11 10 6 2

Total # of neighbors = 882924
Ave neighs/atom = 220.73100
Neighbor list builds = 5977
Dangerous builds = 0

#clear
#
#next RN
#
#jump SELF
Total wall time: 0:02:06
