
units lj                  # Use reduced LJ style units
atom_style atomic         # Uncharged point particles
atom_modify map hash      # Needed for indexing of clusters etc
                          # Used to be able to find where atoms are in relation to each other.

# Define a lattice with which to populate the simulation cell. With units
# set to 'lj' the second argument to the lattice command is the reduced
# density rho* and the spacings are multiples of that required to acheive
# that density. Also define a simulation cell called 'box' in lattice units
# and fill it with atoms. Here we're creating a box which is ten lattice
# constants in each direction.
lattice fcc 1.0 spacing 1 1 1                 # All equal sizes - gives the right reduced density.
Lattice spacing in x,y,z = 1.5874011 1.5874011 1.5874011

region box block 0 10 0 10 0 10 units lattice # Defines a region, "box", in lattice units
create_box 1 box                              # Creates a simulation box as specified above,
Created orthogonal box = (0.0000000 0.0000000 0.0000000) to (15.874011 15.874011 15.874011)
  2 by 2 by 5 MPI processor grid
                                              # with one type of atom
create_atoms 1 box                            # Creates particles on lattice points
Created 4000 atoms
  using lattice units in orthogonal box = (0.0000000 0.0000000 0.0000000) to (15.874011 15.874011 15.874011)
  create_atoms CPU = 0.001 seconds


# Set the mass of the first (and only) atom type.
mass 1 1.0

# Lennard-Jones interactions between particles, 3.5 sigma cut-off. Apply
# long range tail corrections to energy and pressure and set all coefficients
# to unity since we work in reduced units here. Note that this doesn't shift
# the potential such that it goes to zero at the cutoff. That would require
# pair_modify('shift', 'yes').
pair_style lj/cut  3.5      # non-GPU version
pair_modify tail  yes
pair_coeff 1  1  1.0  1.0   # Intearaction between 1 and 1 set with epsilon = 1 and sigma = 1

write_data data.*
System init for write_data ...
Neighbor list info ...
  update every 1 steps, delay 10 steps, check yes
  max neighbors/atom: 2000, page size: 100000
  master list distance cutoff = 3.8
  ghost atom cutoff = 3.8
  binsize = 1.9, bins = 9 9 9
  1 neighbor lists, perpetual/occasional/extra = 1 0 0
  (1) pair lj/cut, perpetual
      attributes: half, newton on
      pair build: half/bin/atomonly/newton
      stencil: half/bin/3d
      bin: standard

#############################
#   M E L T   S Y S T E M   #
#############################

velocity all create 2.4 5833274 mom yes dist gaussian # Assign velocities
                                                    # Temperature 2.4, random number seed, zero linear momentum
						                                                        # Gaussian distribution

timestep 0.002   # simulation timestep
thermo 100       # output thermodynamic data every 100 steps

# Define a fix  in this case with index 1 applied to all
# particles in the simulation. This fix is for simulations
# in the anisotropic NPT ensemble. Note that we use the MTK
# correction.
fix 1 all npt temp 2.4 2.4 0.1 iso 5.68 5.68 0.5 mtk yes tchain 5 pchain 5 # Use NPT ensemble
                                                                         # Set temperature and pressure and damping
                                                                         # Numbers of thermostats in chain and in barostat
run 1000         # run for 10000 steps
Per MPI rank memory allocation (min/avg/max) = 3.681 | 3.682 | 3.682 Mbytes
Step Temp E_pair E_mol TotEng Press Volume 
       0          2.4   -8.3859253            0   -4.7868253   -2.2405722         4000 
     100    1.2560543   -6.5166947            0   -4.6330842    5.4738617     4090.264 
     200    1.4620147   -6.2944328            0    -4.101959    6.0489469    4141.8953 
     300    1.5805517   -6.0148662            0   -3.6446313    5.8775706    4268.7287 
     400    1.6834669   -5.7107066            0   -3.1861375    5.9071358    4403.4982 
     500    1.7905016   -5.4263411            0   -2.7412601    5.8268731    4549.0839 
     600    1.8978346    -5.162881            0   -2.3168407    5.7228626    4703.0892 
     700    1.9845484    -4.865807            0   -1.8897287     6.002426    4840.6855 
     800    2.1384022    -4.696791            0   -1.4899895    5.9101296    4967.4306 
     900    2.2534752   -4.5516747            0    -1.172307    5.7523082    5085.8653 
    1000    2.3409821   -4.4247023            0  -0.91410702    5.7016656    5179.7126 
Loop time of 0.479738 on 20 procs for 1000 steps with 4000 atoms

Performance: 360196.496 tau/day, 2084.470 timesteps/s
99.8% CPU use with 20 MPI tasks x no OpenMP threads

MPI task timing breakdown:
Section |  min time  |  avg time  |  max time  |%varavg| %total
---------------------------------------------------------------
Pair    | 0.26288    | 0.28076    | 0.29715    |   2.0 | 58.52
Neigh   | 0.050467   | 0.053134   | 0.057233   |   0.8 | 11.08
Comm    | 0.10011    | 0.11899    | 0.13774    |   3.5 | 24.80
Output  | 0.00020099 | 0.00020756 | 0.00027434 |   0.0 |  0.04
Modify  | 0.021817   | 0.023342   | 0.02552    |   1.0 |  4.87
Other   |            | 0.003298   |            |       |  0.69

Nlocal:        200.000 ave         214 max         185 min
Histogram: 1 1 2 4 1 2 4 2 2 1
Nghost:        2060.35 ave        2080 max        2025 min
Histogram: 1 0 0 1 4 0 5 5 0 4
Neighs:        17663.0 ave       19553 max       16156 min
Histogram: 1 3 2 3 4 1 1 4 0 1

Total # of neighbors = 353260
Ave neighs/atom = 88.315000
Neighbor list builds = 87
Dangerous builds = 21

# Equilibrate just above the melting temperature to avoid step fn in T

fix 1 all npt temp 1.25 1.25 0.1 iso 5.68 5.68 0.5 mtk yes tchain 5 pchain 5
run 1000
Per MPI rank memory allocation (min/avg/max) = 3.682 | 3.683 | 3.683 Mbytes
Step Temp E_pair E_mol TotEng Press Volume 
    1000    2.3409821   -4.4247023            0  -0.91410702    5.7016656    5179.7126 
    1100    1.9394202   -4.6489983            0   -1.7405953    5.7043192    5010.4975 
    1200    1.7538302   -4.9709308            0   -2.3408432    5.7068483    4807.0107 
    1300    1.5722219   -5.1950829            0   -2.8373396    5.6802724    4673.3381 
    1400    1.4568845   -5.4057081            0   -3.2209276    5.5567683    4573.8845 
    1500    1.3503547   -5.5212706            0   -3.4962449    5.7302676    4490.7966 
    1600    1.3147643   -5.6482764            0   -3.6766229    5.6898925    4434.2315 
    1700    1.2716924   -5.7297408            0   -3.8226791    5.6958397    4391.1098 
    1800    1.2648862   -5.7893213            0   -3.8924664    5.8003465    4355.9343 
    1900    1.2354209   -5.8175189            0   -3.9648509     5.800932    4342.1233 
    2000    1.2349334    -5.850737            0      -3.9988    5.7262948    4335.4701 
Loop time of 0.474047 on 20 procs for 1000 steps with 4000 atoms

Performance: 364521.086 tau/day, 2109.497 timesteps/s
100.0% CPU use with 20 MPI tasks x no OpenMP threads

MPI task timing breakdown:
Section |  min time  |  avg time  |  max time  |%varavg| %total
---------------------------------------------------------------
Pair    | 0.25878    | 0.27791    | 0.30309    |   2.2 | 58.62
Neigh   | 0.043906   | 0.04636    | 0.049112   |   0.8 |  9.78
Comm    | 0.095538   | 0.12175    | 0.14357    |   3.8 | 25.68
Output  | 0.00019962 | 0.00020654 | 0.00026917 |   0.0 |  0.04
Modify  | 0.022182   | 0.024119   | 0.027742   |   1.2 |  5.09
Other   |            | 0.003707   |            |       |  0.78

Nlocal:        200.000 ave         208 max         193 min
Histogram: 3 2 2 0 3 2 4 1 0 3
Nghost:        2288.05 ave        2299 max        2264 min
Histogram: 1 0 0 2 0 3 2 3 5 4
Neighs:        21066.1 ave       22634 max       19412 min
Histogram: 1 2 3 1 3 1 2 4 2 1

Total # of neighbors = 421322
Ave neighs/atom = 105.33050
Neighbor list builds = 76
Dangerous builds = 7


# Small amount of linear quench

fix 1 all npt temp 1.25 ${temp} 0.1 iso 5.68 5.68 0.5 mtk yes tchain 5 pchain 5
fix 1 all npt temp 1.25 1.72 0.1 iso 5.68 5.68 0.5 mtk yes tchain 5 pchain 5
run 2000
Per MPI rank memory allocation (min/avg/max) = 3.683 | 3.683 | 3.684 Mbytes
Step Temp E_pair E_mol TotEng Press Volume 
    2000    1.2349334    -5.850737            0      -3.9988    5.7262948    4335.4701 
    2100      1.26716   -5.8402242            0   -3.9399594    5.5710476    4353.3697 
    2200    1.2756966   -5.8024177            0   -3.8893512     5.591042    4367.7372 
    2300    1.3112451   -5.7930715            0   -3.8266956    5.4756127    4385.8411 
    2400    1.3063745   -5.7240429            0    -3.764971    5.5133807    4413.1668 
    2500    1.3757947   -5.7121824            0   -3.6490062    5.7259706    4406.2917 
    2600    1.3978342   -5.6383103            0   -3.5420832    6.1398583    4403.9791 
    2700    1.4157208    -5.630671            0   -3.5076206    5.7557783    4442.2033 
    2800    1.4293453   -5.6324997            0   -3.4890177    5.4602956    4466.7766 
    2900    1.4247575   -5.5555841            0   -3.4189822    5.5876527    4492.6366 
    3000    1.4706675   -5.5214412            0   -3.3159914    5.6974352    4498.3201 
    3100     1.465572   -5.4640398            0   -3.2662313    5.5849117    4538.9822 
    3200    1.5089074   -5.4239702            0   -3.1611749    5.7993138    4540.5756 
    3300    1.5601914   -5.4313669            0   -3.0916648    5.5977035    4559.3099 
    3400    1.5704371   -5.3861077            0    -3.031041    5.5297294    4586.9937 
    3500    1.5961473   -5.3680787            0   -2.9744563    5.4355212    4611.3184 
    3600    1.6033529   -5.2834294            0   -2.8790014     5.670161    4623.1452 
    3700    1.6891923   -5.2920138            0   -2.7588588    5.8985147    4606.7742 
    3800    1.6353265   -5.2484354            0   -2.7960589    5.7181149     4643.755 
    3900    1.6708515   -5.2134777            0    -2.707827    5.6875672    4666.8475 
    4000    1.7183859   -5.1870786            0   -2.6101442    5.6095245    4694.5441 
Loop time of 0.931923 on 20 procs for 2000 steps with 4000 atoms

Performance: 370846.286 tau/day, 2146.101 timesteps/s
100.0% CPU use with 20 MPI tasks x no OpenMP threads

MPI task timing breakdown:
Section |  min time  |  avg time  |  max time  |%varavg| %total
---------------------------------------------------------------
Pair    | 0.53119    | 0.56253    | 0.59667    |   2.5 | 60.36
Neigh   | 0.087094   | 0.090761   | 0.095389   |   0.7 |  9.74
Comm    | 0.1889     | 0.22499    | 0.25617    |   4.2 | 24.14
Output  | 0.00038645 | 0.00040016 | 0.00051823 |   0.0 |  0.04
Modify  | 0.042506   | 0.045751   | 0.050372   |   1.2 |  4.91
Other   |            | 0.007492   |            |       |  0.80

Nlocal:        200.000 ave         211 max         192 min
Histogram: 3 2 2 3 3 1 3 1 0 2
Nghost:        2179.25 ave        2206 max        2157 min
Histogram: 2 1 2 4 4 2 2 0 2 1
Neighs:        19433.7 ave       20951 max       17631 min
Histogram: 1 1 2 0 5 2 4 1 3 1

Total # of neighbors = 388673
Ave neighs/atom = 97.168250
Neighbor list builds = 147
Dangerous builds = 3

#############################
# F R E E Z E  S Y S T E M  #
#############################

# Define solid atoms. This closely follows ten Wolde  Ruiz-Montero and Frenkel  Faraday Discuss  1996  104  93-110
# Compute components of the per-atom q6 vector
compute q6 all orientorder/atom degrees 1 6 components 6 nnn NULL cutoff 1.3 # compute the Q6 parameter.
                                                                             # Use all neighbours within 1.3 unit cell.

# get number of connections
compute coord_number all coord/atom orientorder q6 0.5

# An atom is solid if it has 8 or more connections (of a possible 14)
variable is_solid atom c_coord_number>=8
group solid dynamic all var is_solid    # Must be dynamic to update
dynamic group solid defined

# do clustering
compute cluster solid cluster/atom 1.3 # Create a cluster where all atoms within are solid and max 1.3 units from another member

# define chunks one chunk per cluster
compute clus_chunks solid chunk/atom c_cluster nchunk every compress yes  # Says which atoms are in which chunk

# count the size of each chunk
compute size_chunks solid property/chunk clus_chunks count


# Find the maximum entry in the vector of chunk sizes
variable max_n equal max(c_size_chunks)


# Thermo style which includes this variable
thermo_style custom step temp pe vol v_max_n

thermo ${N}  # Print the thermo information every 100 steps
thermo 100  

# Reset the npt fix at a lower temperature (below freezing)
fix 1  all npt temp  ${temp} ${temp}  0.1  iso  5.68  5.68  0.5  mtk yes tchain  5  pchain  5
fix 1  all npt temp  1.72 ${temp}  0.1  iso  5.68  5.68  0.5  mtk yes tchain  5  pchain  5
fix 1  all npt temp  1.72 1.72  0.1  iso  5.68  5.68  0.5  mtk yes tchain  5  pchain  5

dump dmp2 all dcd ${N} traj_${rand}.dcd
dump dmp2 all dcd 100 traj_${rand}.dcd
dump dmp2 all dcd 100 traj_462431.dcd


# fix rnuntil all halt ${N} v_max_n >= 3980 error soft message no   # Stop when solidified


run 100000 # 5000000  # Run for this many steps
Neighbor list info ...
  update every 1 steps, delay 10 steps, check yes
  max neighbors/atom: 2000, page size: 100000
  master list distance cutoff = 3.8
  ghost atom cutoff = 3.8
  binsize = 1.9, bins = 9 9 9
  4 neighbor lists, perpetual/occasional/extra = 1 3 0
  (1) pair lj/cut, perpetual
      attributes: half, newton on
      pair build: half/bin/atomonly/newton
      stencil: half/bin/3d
      bin: standard
  (2) compute orientorder/atom, occasional
      attributes: full, newton on
      pair build: full/bin/atomonly
      stencil: full/bin/3d
      bin: standard
  (3) compute coord/atom, occasional
      attributes: full, newton on
      pair build: full/bin/atomonly
      stencil: full/bin/3d
      bin: standard
  (4) compute cluster/atom, occasional
      attributes: full, newton on
      pair build: full/bin/atomonly
      stencil: full/bin/3d
      bin: standard
Per MPI rank memory allocation (min/avg/max) = 9.492 | 9.496 | 9.500 Mbytes
Step Temp PotEng Volume v_max_n 
    4000    1.7183859   -5.1870786    4694.5441            1 
    4100    1.7263966   -5.1325828    4700.0805            1 
    4200     1.693282   -5.0927743    4715.7835            2 
    4300    1.7387489   -5.1079396    4700.5889            1 
    4400    1.6904675   -5.1224185    4745.0836            4 
    4500    1.7286008   -5.1909988    4685.1458            1 
    4600    1.7337027   -5.1683686    4685.3137            1 
    4700    1.7040062   -5.1676658    4716.3867            1 
    4800    1.7578948   -5.1352166    4704.9614            1 
    4900    1.7263515   -5.1191709     4701.654            2 
    5000     1.705434   -5.1635884     4719.101            2 
    5100    1.7143097    -5.174214    4700.0367            1 
    5200    1.7384416   -5.1165988    4703.8018            2 
    5300    1.7268236   -5.1488101    4701.6473            1 
    5400    1.6722892    -5.138947    4706.7225            1 
    5500    1.7318952   -5.1431894    4692.0165            1 
    5600    1.7186477   -5.1203315     4707.944            1 
    5700    1.6875407   -5.1782498    4711.0172            1 
    5800    1.7403285   -5.1812885    4703.3951            1 
    5900    1.7200759   -5.1832358    4700.0332            2 
    6000    1.7197465   -5.1814513    4691.9511            1 
    6100    1.7452367   -5.1861415    4723.1666            1 
    6200    1.7067798   -5.1588555    4700.1405            1 
    6300    1.7244166   -5.1630335    4679.1564            1 
    6400    1.7372756   -5.1294135    4718.1128            1 
    6500      1.70449   -5.1164689    4729.7323            1 
    6600    1.7450289   -5.1637926    4706.3549            2 
    6700    1.7329873   -5.1695676    4720.1049            1 
    6800    1.6682115   -5.1646207    4727.4545            1 
    6900    1.7447834   -5.1381007    4663.2804            2 
    7000    1.7739757   -5.1296749    4712.8834            2 
    7100    1.7183764   -5.1777523    4727.5535            1 
    7200    1.7072804   -5.1495298    4695.8774            1 
    7300    1.7251084    -5.172613    4665.7191            1 
    7400    1.7029653   -5.1164279    4737.1395            1 
    7500    1.7435603   -5.1752113    4708.1677            2 
    7600    1.7463262   -5.1818525    4702.2959            1 
    7700    1.6973292   -5.1615433    4695.8957            2 
    7800    1.7089279   -5.1824853    4661.3283            1 
    7900    1.7182559   -5.1719247    4694.2671            3 
    8000    1.7216548   -5.1818909    4719.2948            3 
    8100    1.6850776   -5.1447069    4687.6366            2 
    8200     1.718243   -5.1347004    4661.2971            1 
    8300    1.6996564   -5.1298599    4708.3313            1 
    8400    1.7156842    -5.140286    4717.8238            1 
    8500    1.7622338   -5.1318263    4710.3348            1 
    8600    1.6791605   -5.1136254     4718.154            1 
    8700    1.7290444   -5.1725133    4695.4014            1 
    8800    1.7155893   -5.1767355    4667.8634            2 
    8900    1.7258606   -5.1618444    4718.0123            5 
    9000    1.7395975   -5.1676815    4702.7452            3 
    9100    1.7069223   -5.1641607    4681.1238            3 
    9200    1.7061553   -5.1415375      4699.65            1 
    9300    1.7152421   -5.1417912     4695.162            1 
    9400    1.7035178   -5.1510925     4698.717            1 
    9500    1.7501362   -5.1443791    4722.4481            2 
    9600    1.7049174   -5.1085199    4727.0506            1 
    9700    1.7722012   -5.1426408    4724.0809            1 
    9800    1.7230138   -5.1342066    4704.0357            2 
    9900    1.6400291   -5.1463985    4720.9015            1 
   10000    1.7344809   -5.1423523    4674.7096            1 
   10100    1.7179516   -5.1130958    4697.5465            1 
   10200    1.6697097   -5.1640315    4728.6872            3 
   10300    1.7509618   -5.1658317    4684.6631            3 
   10400    1.7158847   -5.1528614     4693.155            2 
   10500    1.7340969   -5.1497564    4731.1964            1 
   10600    1.7133599   -5.1607428    4706.2143            1 
   10700    1.7285968    -5.165976     4685.766            1 
   10800    1.7254393   -5.1575933     4683.652            1 
   10900    1.7358937   -5.1463548    4726.7186            3 
   11000    1.6964453   -5.1255763    4727.0715            3 
   11100    1.7179721   -5.1590103    4669.6477            5 
   11200    1.7310433   -5.1646089    4691.7582            2 
   11300    1.7319534   -5.1533768    4734.7537            1 
   11400    1.7084493   -5.1518919    4697.7866            1 
   11500    1.7070951   -5.1666431    4672.7008            1 
   11600     1.698576   -5.1758022    4687.5398            1 
   11700    1.7420856   -5.1803846    4698.0483            1 
   11800    1.6964428   -5.1697092    4691.1774            1 
   11900    1.7125412   -5.1724596     4705.444            1 
   12000    1.7011219   -5.1064362    4714.9608            1 
   12100    1.7032152   -5.1126197    4711.9877            1 
   12200    1.7363978   -5.1252171    4708.8949            1 
   12300    1.7409648   -5.1583066    4712.8082            4 
   12400    1.6914984   -5.1649403    4733.5023            1 
   12500    1.7194362   -5.1142944    4698.9912            1 
   12600    1.7557649   -5.0755411     4705.567            2 
   12700    1.6840344   -5.0824585    4719.4692            1 
   12800    1.7028894   -5.1307636    4709.6387            1 
   12900    1.7229186   -5.1244566    4713.2072            1 
   13000    1.7150341   -5.1210353    4717.5414            1 
   13100    1.7154947   -5.1212484     4715.733            1 
   13200    1.7415002   -5.1203672    4733.1551            1 
   13300    1.7453799   -5.1621426    4688.3613            2 
   13400    1.7338685   -5.2015043    4702.8649            2 
   13500    1.6990418   -5.1214141    4717.8692            2 
   13600    1.7300625   -5.1382491    4696.1619            1 
   13700     1.733671   -5.1562483    4687.2241            2 
   13800     1.644827   -5.1274223    4711.0229            1 
   13900    1.7468889   -5.1560604     4685.359            1 
   14000    1.7456079   -5.1176556    4716.3544            1 
   14100    1.7101985   -5.1337904    4719.1812            2 
   14200    1.7206821   -5.1331437    4722.9688            4 
   14300    1.6999332    -5.162095    4699.1071            2 
   14400      1.73398   -5.1694303    4683.5429            1 
   14500    1.6810244   -5.2074798    4688.3662            2 
   14600    1.7269998   -5.1942862    4675.7696            2 
   14700    1.7234633   -5.1547733    4711.0978            1 
   14800    1.7090127   -5.1452312    4728.1094            1 
   14900    1.7585067    -5.126872     4696.414            1 
   15000    1.7533333   -5.1072818    4714.2202            1 
   15100    1.6785018   -5.1149068    4722.6916            1 
   15200    1.7087851   -5.1154011    4705.6358            1 
   15300    1.7435777   -5.1117809    4717.3864       -1e+20 
   15400    1.7092795   -5.1403074    4712.9999            1 
   15500    1.6959873   -5.1326705    4706.1535            1 
   15600    1.7416861   -5.1139098    4714.5837            1 
   15700    1.7151363   -5.1248792    4708.4648            1 
   15800    1.7304828   -5.1261879    4696.2583            1 
   15900    1.6748093    -5.149174    4712.8681            1 
   16000    1.7103485   -5.1254568    4713.3302            1 
   16100    1.7297426   -5.0827184    4691.0696            1 
   16200    1.6857327   -5.1337612     4709.994            3 
   16300    1.6787112   -5.1361095    4703.3657            2 
   16400    1.7889212   -5.1814018    4695.3802            3 
   16500    1.7024728   -5.1556568    4713.4545       -1e+20 
   16600    1.7373258   -5.1998722    4692.0721            2 
   16700    1.7184911   -5.1493562    4694.6276            1 
   16800    1.7278327   -5.1490639      4723.01            4 
   16900    1.6879432   -5.1473492    4702.6335            1 
   17000     1.735187   -5.1534015    4688.4887            2 
   17100    1.7064347   -5.1133081    4721.7439            2 
   17200    1.7339317   -5.1155452    4717.1988            1 
   17300    1.7094822   -5.1504979    4715.6197            1 
   17400    1.7360198   -5.1057177    4726.5871            1 
   17500     1.761268   -5.1657463    4700.8681            2 
   17600    1.6750427   -5.1454434    4703.6761            1 
   17700    1.7537865   -5.1612155    4664.4861            1 
   17800    1.6790517   -5.1472578    4680.5616            1 
   17900    1.6916958   -5.1547367    4715.2896            2 
   18000    1.7251572   -5.1478152    4704.3353            1 
   18100     1.729153   -5.1457155    4705.2438            1 
   18200    1.7075771   -5.1922465    4716.0949            1 
   18300    1.7472607   -5.1523167    4708.5778            1 
   18400    1.7435049   -5.1336062     4734.808            1 
   18500    1.7087274   -5.1455954    4709.2154            1 
   18600    1.7249519   -5.1543174    4710.1328            1 
   18700    1.7304466     -5.07354    4739.2021            2 
   18800     1.732415   -5.1120125    4737.5441            2 
   18900    1.7231144   -5.1371804    4703.9297            1 
   19000    1.7060676   -5.1678113    4692.6335            1 
   19100    1.7190079   -5.1228445    4700.5729            1 
   19200    1.7350883   -5.1378002    4740.6033            2 
   19300    1.7315331   -5.1314268    4721.3306            1 
   19400    1.7526752   -5.1661356    4706.6104            2 
   19500    1.6975571   -5.1668896    4687.2238            1 
   19600    1.6912987   -5.1339066    4703.0669            1 
   19700    1.7335352    -5.138429    4709.0769            2 
   19800    1.7072855   -5.1423583    4705.1484            2 
   19900    1.7051235   -5.1615194    4666.8804            1 
   20000    1.6989538   -5.1420807    4710.2636            1 
   20100    1.7216594   -5.1539819     4728.323            1 
   20200    1.7002375   -5.1211056    4697.5666            1 
   20300     1.745572    -5.136926    4684.3487            1 
   20400    1.7141633   -5.1287686    4725.1694            1 
   20500    1.7350837   -5.1041593    4737.7752            1 
   20600    1.6956684   -5.0977001    4704.7163            1 
   20700    1.7607354   -5.0957516    4716.5425            4 
   20800    1.7312026   -5.1314814    4733.7754            1 
   20900    1.7069624   -5.1676329    4735.8698            1 
   21000    1.7694382   -5.1529033    4717.1322            1 
   21100    1.7279327   -5.1439275    4701.5544            1 
   21200    1.7005372   -5.1566775    4712.9185            2 
   21300    1.7666968   -5.1628156    4716.7927            1 
   21400    1.7155986    -5.134627    4686.7232            2 
   21500    1.6858407   -5.1089398     4697.692            2 
   21600    1.7167751   -5.1252102    4722.2695            1 
   21700    1.7602634   -5.1502138     4730.972            1 
   21800    1.6998955   -5.1173081    4728.4087            2 
   21900    1.7269421   -5.1739207    4680.1271            3 
   22000    1.7213838   -5.1875696    4681.3193       -1e+20 
   22100    1.6764214   -5.1388533    4710.5013            3 
   22200    1.7272223   -5.1578802    4685.4983            1 
   22300    1.7471558    -5.155308    4679.7503            2 
   22400    1.6967803   -5.1862586    4703.1202            1 
   22500    1.7222085    -5.201222    4720.7521            2 
   22600    1.7156794   -5.1158995    4706.5777            2 
   22700    1.7159097   -5.1018467    4693.5922            1 
   22800    1.7013112   -5.1590215    4695.6026            2 
   22900    1.7423498   -5.1701297    4715.2206            1 
   23000    1.7143527   -5.1507529    4690.8863            1 
   23100    1.7294949   -5.1498047     4686.595            1 
   23200    1.7078715    -5.200962    4691.6536            1 
   23300    1.7210544   -5.1601313    4703.7884            1 
   23400    1.7488099   -5.1488712    4706.0444            1 
   23500    1.6679049    -5.126134    4714.0955            2 
   23600    1.7355601   -5.1610593    4696.3205            1 
   23700    1.7528059   -5.1172427    4709.8232            1 
   23800    1.7115212   -5.1308639    4737.8205            3 
   23900    1.7108569    -5.126603    4717.1271            2 
   24000    1.7409217    -5.076627    4684.3207            2 
   24100    1.6826451   -5.1072185    4728.0763            1 
   24200    1.7196564   -5.1519486    4711.7331            2 
   24300     1.696919   -5.1293544    4690.4689            1 
   24400    1.6871468   -5.0896288    4700.9764            3 
   24500    1.7359968   -5.1023893    4719.1419            1 
   24600    1.6956762   -5.1448162    4714.9941            2 
   24700     1.747056   -5.1973284    4713.9873            1 
   24800    1.7040087   -5.1415569    4696.4958            2 
   24900    1.7511623   -5.1113042    4711.9501            4 
   25000    1.7328165   -5.1277222    4733.3208            1 
   25100    1.6817072   -5.1363795    4687.5522            1 
   25200    1.7355207   -5.1325423    4688.4828            1 
   25300    1.7158127   -5.1421706    4734.6862            1 
   25400    1.7102375   -5.1696032    4717.3651            1 
   25500    1.7669218   -5.1682784    4703.3761            1 
   25600    1.6895322   -5.1409679     4720.929            1 
   25700    1.7532231   -5.1646332    4709.7528            2 
   25800    1.7310191   -5.1383602    4708.1162            2 
   25900    1.7303407   -5.1446792    4730.9828            1 
   26000    1.7018204   -5.1489047    4705.4731            1 
   26100    1.7625213   -5.1907535    4686.5145            1 
   26200     1.755731   -5.1655345    4737.3565            1 
   26300    1.7223438   -5.1597324    4682.2999       -1e+20 
   26400    1.7230837   -5.1650184    4692.1908            3 
   26500    1.7485284   -5.1736269    4729.4608            1 
   26600    1.7257831   -5.1296381    4719.2022            2 
   26700    1.7214039   -5.1577909    4686.4023            1 
   26800    1.7109546   -5.1813595    4693.0663            1 
   26900    1.7246356   -5.1195377    4709.1429            1 
   27000    1.7052334   -5.1301382    4707.2692            1 
   27100    1.7454907   -5.1481916    4690.8859            1 
   27200    1.6825686   -5.1570173    4702.2893            1 
   27300     1.728172   -5.1816774    4713.3112            2 
   27400    1.7355947   -5.1510005    4683.8203            1 
   27500     1.697404   -5.1361512    4690.0065            1 
   27600    1.7047146   -5.1479993    4723.5323       -1e+20 
   27700    1.7517905   -5.1794861      4682.26            1 
   27800    1.7308594   -5.1906472    4679.8217            1 
   27900    1.6670424   -5.1994515    4704.2362            1 
   28000    1.7265724   -5.1711159    4696.6176            1 
   28100    1.7528892   -5.1335284    4694.4702            1 
   28200    1.6978231   -5.1025481    4722.1655            1 
   28300    1.7364408   -5.1380406    4701.8657            1 
   28400    1.7144722   -5.1335024    4728.1451            3 
   28500    1.7395966   -5.1415584    4717.3927            1 
   28600     1.730102   -5.1610371    4724.7708            2 
   28700    1.7046999   -5.1005708    4745.3641            1 
   28800    1.7349862   -5.0990206    4698.9904            1 
   28900    1.6997262   -5.1019956    4705.1238            2 
   29000    1.6792652   -5.1192246    4715.7159            2 
   29100     1.740438   -5.1584434    4705.6418            2 
   29200    1.6769321   -5.1522507    4700.4485            1 
   29300    1.7026409    -5.163537     4667.283            2 
   29400    1.6922784   -5.1323375    4712.4883            1 
   29500     1.740492    -5.140593    4711.1241            1 
   29600    1.7242641   -5.1363693    4710.5651            1 
   29700    1.7045948   -5.1794306    4724.4293            1 
   29800    1.7128586   -5.2210966    4672.8209            4 
   29900    1.7227182   -5.1904417    4674.8117            2 
   30000     1.707151   -5.1594376    4711.0135            2 
   30100    1.7354901   -5.1649606    4708.1117            1 
   30200    1.7276497   -5.1741731     4676.344            1 
   30300    1.6984049   -5.1442026    4707.6836            1 
   30400    1.7337427   -5.1579801    4705.7302            1 
   30500    1.6967939   -5.1685874    4709.3322       -1e+20 
   30600     1.703611   -5.1198572    4699.9164            1 
   30700    1.7544673   -5.1294948    4707.5347            1 
   30800    1.6858216   -5.1105915    4720.6929            2 
   30900    1.7391761   -5.1883901    4693.0654            2 
   31000      1.68702    -5.120546    4693.0106            1 
   31100    1.7228485   -5.1451828    4718.8174            1 
   31200     1.732047   -5.1409168    4703.4084            1 
   31300    1.7279434   -5.1683279    4698.7754            2 
   31400    1.6958356   -5.1738068    4713.1294            2 
   31500     1.738998   -5.1559683    4696.3087            3 
   31600    1.7030048   -5.1229247    4691.4799            1 
   31700     1.718208   -5.1205419    4704.2128            2 
   31800    1.6906021   -5.1260044    4698.7538            1 
   31900    1.7224367   -5.1903981    4702.2016            1 
   32000    1.7624742   -5.1484659      4712.72            1 
   32100    1.7032073   -5.0996523    4713.9124            1 
   32200    1.7499654   -5.1149334    4735.1685            2 
   32300    1.7333111   -5.1668818    4705.9438            1 
   32400    1.7327422   -5.1784035    4713.6625            1 
   32500    1.7473015   -5.2005505    4702.5508            1 
   32600    1.7305895   -5.2052899    4679.9711            1 
   32700    1.7243364   -5.1810129    4690.9426            7 
   32800    1.7007135    -5.152626    4714.8235            1 
   32900    1.7443274   -5.1397694    4719.0907            3 
   33000    1.7057906   -5.1213106    4690.7573            1 
   33100    1.6986287   -5.1467152    4692.5143            1 
   33200    1.7352974   -5.1642396     4684.671            1 
   33300    1.6854422   -5.1820116    4685.4833            2 
   33400    1.7221194   -5.1374585    4717.3319            2 
   33500    1.7752085   -5.1643575    4687.9078            1 
   33600    1.7018027   -5.1589576    4709.4383            1 
   33700    1.7430914   -5.1769283    4720.9936            2 
   33800    1.7175963   -5.1733255    4688.0422            1 
   33900    1.7247142   -5.1639387    4695.8145            1 
   34000    1.7567509   -5.2205756    4718.5447            3 
   34100    1.7007233   -5.1634399    4710.0725            1 
   34200    1.7546678   -5.1915143    4684.6635            1 
   34300     1.699136   -5.1137123    4720.4831            1 
   34400    1.7592777   -5.1506353      4713.09            1 
   34500    1.7136104   -5.1558124    4704.1659            1 
   34600     1.710926   -5.1606175    4726.9052            2 
   34700    1.7510784   -5.1566083    4723.7088            1 
   34800    1.6988652   -5.1196471    4710.4788            1 
   34900    1.7469163   -5.1467679    4692.4536            1 
   35000    1.7196284   -5.1717381    4695.6944            1 
   35100    1.7176373   -5.2005516    4727.1317            2 
   35200    1.7183209   -5.1207825    4693.9033            2 
   35300    1.7488232   -5.1696721    4696.8405            1 
   35400     1.700533   -5.1259551     4734.016            1 
   35500    1.7409136   -5.1697089    4692.6853            1 
   35600    1.7273673   -5.1933737    4687.5667            1 
   35700    1.7131987   -5.1814324    4695.7257            1 
   35800     1.722579   -5.1727366    4675.9089            1 
   35900    1.7252057   -5.1373476    4736.5803            1 
   36000    1.7410843   -5.1817865    4710.6988            1 
   36100     1.733323   -5.1469206    4703.2694            2 
   36200    1.6936978   -5.0953363     4718.359            2 
   36300    1.7131209   -5.1048521    4702.1175            1 
   36400    1.7320293   -5.1791159    4694.1889            1 
   36500    1.6981552   -5.1755657    4734.6836            1 
   36600    1.7604273   -5.1691291    4707.0504            1 
   36700    1.7252991   -5.1206851    4707.5769            1 
   36800    1.7270848   -5.1275241     4725.627            2 
   36900    1.7019181   -5.1544757     4685.738            1 
   37000     1.699073   -5.1439446    4701.7365            2 
   37100    1.7060476   -5.1386795    4716.8427            3 
   37200    1.7406303   -5.1333174     4733.998            1 
   37300    1.7902973   -5.1107135    4689.4913            3 
   37400    1.7078326   -5.1454966    4724.7604            1 
   37500    1.7268421   -5.1471679    4732.5604            1 
   37600    1.6950809   -5.1331942    4679.3462            2 
   37700    1.7296068   -5.1168428    4701.7015            1 
   37800    1.7411422   -5.1467845    4712.6375            2 
   37900    1.7060249   -5.1778313     4717.855            2 
   38000    1.7629244    -5.180668    4707.2204            2 
   38100    1.6992523   -5.1799978     4685.815            3 
   38200    1.6894754   -5.1363545    4701.2349            2 
   38300    1.7282917   -5.1471331    4690.9164            2 
   38400    1.7121806   -5.1797699    4687.6718            1 
   38500    1.7300403   -5.1306476    4717.4379            1 
   38600    1.7278828   -5.1424211    4698.3225            1 
   38700    1.6989522   -5.1673041    4692.2773            1 
   38800    1.7077745   -5.1775623     4678.635            1 
   38900    1.7333146   -5.1393503     4702.963            1 
   39000    1.7219722   -5.1463838    4727.9291            1 
   39100    1.7414021   -5.1422385    4717.1145            1 
   39200    1.7250541   -5.1643078    4720.9584            2 
   39300    1.7357967   -5.1121099    4726.6703            1 
   39400    1.7202284   -5.1231058      4718.98            1 
   39500    1.7220136   -5.1445819    4715.2304            2 
   39600    1.7190867   -5.1668733    4705.6633            2 
   39700    1.7024503   -5.1899723    4699.3889            2 
   39800    1.7340509   -5.1538481    4710.6176            1 
   39900    1.7491776   -5.1383255    4698.8555            1 
   40000    1.7039851   -5.1662179    4705.4609            2 
   40100    1.6622665   -5.1924013     4707.315            1 
   40200    1.7486473   -5.1796493    4683.3846            2 
   40300    1.7271892   -5.1505905    4686.6102            2 
   40400    1.6756768   -5.1693886    4690.2557            2 
   40500    1.7504807   -5.2052916    4702.4752            1 
   40600     1.742981   -5.0964278    4715.0129            1 
   40700    1.7133428   -5.1366433    4717.1856            1 
   40800    1.7239734   -5.1806594    4711.2592            1 
   40900    1.7456179   -5.1476485    4706.8669            1 
   41000    1.7038207   -5.1326203    4725.3727            2 
   41100    1.7523674   -5.1222085    4729.9967            1 
   41200     1.737235   -5.1491143     4690.719            1 
   41300     1.734792   -5.1808888    4690.2223            1 
   41400    1.6661526   -5.1814575    4701.1969            2 
   41500    1.7273932   -5.1716282    4690.2205            1 
   41600    1.7177506   -5.1477607    4687.3546            6 
   41700    1.6949092   -5.1300446    4704.0714            2 
   41800    1.7615893   -5.1699986     4718.269            1 
   41900    1.7348151   -5.2231427    4691.6115            1 
   42000    1.7075789   -5.1652191    4701.1546            2 
   42100    1.7194939   -5.1090479    4709.8527            1 
   42200    1.7310404   -5.1233655    4695.3662            1 
   42300    1.7003831   -5.1903472    4698.3776            2 
   42400    1.7042001   -5.2011426    4698.1004            1 
   42500     1.756956   -5.2063952    4672.0498            1 
   42600    1.6676936    -5.167929    4694.9326            1 
   42700    1.7221757   -5.1667059    4680.2476            3 
   42800    1.7078104   -5.1220476    4726.6995            1 
   42900    1.7313659   -5.1368038    4730.2999            1 
   43000    1.7145753    -5.087758    4701.0174            1 
   43100    1.7314688   -5.1381428    4716.3021            3 
   43200    1.7017272   -5.1557182    4724.1227            1 
   43300    1.7253655   -5.1388434    4688.8392            2 
   43400    1.7029491   -5.1471619    4700.5307            1 
   43500    1.7382743   -5.1287602    4723.0418            1 
   43600    1.7289642   -5.1622684    4704.0613            1 
   43700       1.7171   -5.1750916    4691.4215            1 
   43800    1.7359146   -5.1112003     4692.308            1 
   43900    1.6901788   -5.1430911    4712.7178            1 
   44000    1.7494561   -5.1708663    4711.8365            1 
   44100    1.7111337   -5.1454089     4694.887            2 
   44200    1.7192727   -5.1184087     4722.267            1 
   44300    1.6870472   -5.1144982    4714.8421            2 
   44400    1.7001844   -5.0971604    4717.2748            1 
   44500    1.7104135   -5.1191599    4696.2836            3 
   44600    1.7188479   -5.1384608    4698.5126            2 
   44700    1.7007239   -5.1616114    4707.4619            2 
   44800    1.7205194   -5.1675428     4703.667            1 
   44900     1.749433   -5.1627355    4682.8864            2 
   45000    1.7121968   -5.1921039    4706.6772            1 
   45100    1.7443761   -5.1787058    4701.2054            1 
   45200    1.6928119   -5.1241036    4666.8089            1 
   45300    1.7403005   -5.1793523    4702.7181            2 
   45400    1.7327086   -5.1882407    4716.2977            3 
   45500    1.7276052   -5.1934097    4675.0412            1 
   45600    1.7189994   -5.1020672    4702.7083            1 
   45700      1.70545   -5.1086738    4710.3488            1 
   45800    1.6992796   -5.1911123    4695.2711            1 
   45900    1.7245843    -5.164826    4705.0396            1 
   46000    1.7348848   -5.1713073    4699.7747            1 
   46100     1.685034   -5.1703966    4667.6587            1 
   46200    1.7256606   -5.1871929    4709.6446            1 
   46300    1.7377699   -5.1534208     4698.959            1 
   46400    1.7085184   -5.1717909    4672.9425            4 
   46500    1.7018139   -5.1285105    4717.5824            1 
   46600     1.713382   -5.1474349     4715.164            2 
   46700    1.6916506    -5.161605    4696.5676            1 
   46800    1.7258922   -5.1342096    4688.8171            1 
   46900    1.7437384   -5.1699976    4723.8676            1 
   47000     1.711744   -5.1398239    4734.5434            5 
   47100    1.7463859   -5.1379956    4700.2484       -1e+20 
   47200    1.7527512   -5.1474309    4707.8667            2 
   47300    1.7044226   -5.1975708      4728.69            1 
   47400    1.6976152   -5.1028712    4712.6073            1 
   47500    1.7763975   -5.0846752    4712.2521            1 
   47600    1.7491153    -5.150097    4726.2433            2 
   47700    1.7288492   -5.1940336    4705.5616            1 
   47800    1.7031795   -5.1405771    4691.4766            2 
   47900    1.7117694   -5.1402266    4689.8961            2 
   48000    1.7462112   -5.1473372    4712.5591            1 
   48100    1.7486414   -5.1617355    4722.0138            2 
   48200    1.7307845   -5.1884508    4701.7001            2 
   48300    1.7257643   -5.1617712    4720.2297            2 
   48400    1.7098394   -5.1124029    4719.3658            2 
   48500    1.7331306   -5.1622506    4685.9642            2 
   48600    1.7194526   -5.1877505     4708.845            1 
   48700    1.7227425   -5.1589434    4710.7945            1 
   48800    1.6892973   -5.1691357    4698.3648            1 
   48900    1.7591051   -5.1991566    4687.0671            1 
   49000    1.7174383    -5.154481    4719.1336            1 
   49100    1.6957676    -5.128177    4723.4714            3 
   49200    1.7612685   -5.0964927    4716.5495            1 
   49300    1.7607085   -5.1773618    4689.8404            1 
   49400    1.6758755   -5.1622267    4724.2683            3 
   49500    1.7259345     -5.12861    4713.1225            1 
   49600    1.7810303   -5.1551203     4712.294            1 
   49700    1.7061149   -5.1478961     4723.058            1 
   49800    1.7227361   -5.1754262    4705.9627            1 
   49900    1.7113059   -5.1322025    4681.4601            3 
   50000     1.721841   -5.1312507    4725.8603            2 
   50100    1.7318542   -5.1335783    4729.7437            1 
   50200    1.7052945   -5.1375431    4684.0296            1 
   50300    1.7482624   -5.1298024    4705.7773            2 
   50400    1.6918134   -5.1034737    4739.6086            1 
   50500    1.7408926   -5.1329596    4711.7113            2 
   50600    1.7123761   -5.1359675    4690.8867            3 
   50700    1.6916674   -5.1789322    4696.6302            2 
   50800    1.6763805   -5.2085313    4645.5769            1 
   50900    1.7012384   -5.1629221    4677.1979            1 
   51000     1.740567   -5.2017598    4700.6609            2 
   51100     1.688735   -5.2078107    4671.8169            2 
   51200    1.7117757   -5.1786105     4691.636            2 
   51300    1.7275942   -5.1539258    4705.6978            1 
   51400    1.6733863   -5.1709086    4698.0264            1 
   51500    1.7157447   -5.1580523    4697.9401            1 
   51600    1.7278243   -5.1428654    4683.7498            1 
   51700    1.7148563   -5.1245168     4713.994       -1e+20 
   51800    1.7003279   -5.1278714    4724.0937            1 
   51900    1.7479666   -5.0864117    4707.7566            1 
   52000    1.7108205   -5.1626217    4718.0026            1 
   52100    1.6937979   -5.1768842    4718.8334            2 
   52200    1.7351728   -5.1163958     4715.466            1 
   52300    1.6970647   -5.1185899    4694.8084            3 
   52400    1.7296078   -5.1541638    4711.7577            1 
   52500    1.7249875   -5.1599637    4719.1426       -1e+20 
   52600    1.7060881   -5.1480296    4696.3237            2 
   52700    1.7454009    -5.163008    4711.1045            1 
   52800     1.711169   -5.1121285    4690.3387            3 
   52900    1.6903989     -5.14366    4717.4464            2 
   53000    1.7324092   -5.1318275    4710.1935            1 
   53100     1.723041   -5.1295478    4686.4231            2 
   53200    1.6960771   -5.1507161    4694.7796            1 
   53300    1.7254525   -5.1619943    4720.9592       -1e+20 
   53400    1.7522791   -5.1382859    4701.4532            1 
   53500     1.709747   -5.1365242    4720.8765            1 
   53600    1.7351559   -5.1358348    4731.2327            1 
   53700    1.7083845   -5.1456437    4682.0968            5 
   53800    1.7033155   -5.1618607    4705.9629            2 
   53900      1.72139   -5.1463444    4701.3948            2 
   54000    1.7223454   -5.1606348    4720.8707            2 
   54100    1.7231596   -5.1523977    4725.9389            1 
   54200    1.7324735   -5.1176108    4685.1114            1 
   54300    1.6958941   -5.1576136    4701.6584            2 
   54400    1.7441021   -5.2032482    4715.0317            1 
   54500    1.7426102   -5.1366525    4701.8062            1 
   54600    1.7219622   -5.1569965    4693.8886            2 
   54700    1.7256487   -5.1223365    4715.0295            1 
   54800    1.7167165   -5.1388171    4726.1216            1 
   54900     1.730229   -5.1740307    4680.9018            1 
   55000    1.7043339   -5.1896639    4691.5173            2 
   55100    1.7167685   -5.1841306    4702.0038            1 
   55200    1.7327126   -5.1468081     4685.911            2 
   55300     1.743631   -5.1370961     4720.431            1 
   55400    1.7174174   -5.1454178    4698.7203            1 
   55500    1.7348674   -5.1340322    4697.3392            1 
   55600    1.7065957   -5.1706637    4722.3279            1 
   55700    1.6799209   -5.1510019    4705.2085            1 
   55800    1.7173068   -5.1059097    4692.0527            1 
   55900     1.744461   -5.1517264    4721.8423            1 
   56000    1.7195869   -5.1290655    4730.9044       -1e+20 
   56100    1.7294303   -5.1407337    4706.6278            2 
   56200    1.7025667   -5.1712538     4686.548            2 
   56300    1.6889462   -5.2089546    4658.6568            1 
   56400    1.6934106   -5.1881934     4713.899            1 
   56500    1.7157554   -5.1384436    4710.7471            1 
   56600    1.7882311   -5.1410379    4695.7152            1 
   56700    1.7078507   -5.1783926    4714.0362            1 
   56800    1.7622202   -5.1898039    4715.4458            3 
   56900    1.7233028   -5.1524906    4703.8927            3 
   57000    1.7249739    -5.186989    4706.8003            1 
   57100    1.7072396   -5.1328033    4704.7557            2 
   57200    1.7351584   -5.1087712    4720.7663            1 
   57300    1.7100051   -5.1676215    4704.1937            2 
   57400    1.7218198   -5.1448939      4703.32            1 
   57500    1.7429546   -5.1432225    4713.7701            1 
   57600    1.7247451   -5.1616289    4705.2666            1 
   57700    1.6781399   -5.1935541    4680.3064            2 
   57800    1.7215485   -5.1809992    4681.3325            2 
   57900    1.7282459   -5.1417937     4711.988            1 
   58000    1.7133897   -5.1929692    4735.0351            2 
   58100    1.6810414   -5.1490987    4678.6871            1 
   58200    1.7384374   -5.1525707    4680.9441            2 
   58300    1.7226756   -5.1512619    4721.6661            1 
   58400    1.7256506   -5.1541043    4708.0803       -1e+20 
   58500    1.7110017   -5.1595491    4689.4789            1 
   58600     1.713115   -5.1229219    4711.6514            2 
   58700    1.7576098   -5.1482943    4718.9394            1 
   58800    1.7047051   -5.1568119    4710.8578            4 
   58900    1.7587062   -5.1528947    4725.2971            2 
   59000    1.7155496    -5.124871    4713.4352            1 
   59100    1.7165868   -5.1742917    4676.6006            1 
   59200    1.6994669   -5.1089154    4713.0643            2 
   59300    1.7267173   -5.1292925    4715.0995            1 
   59400    1.7067182   -5.1754304    4679.5786            1 
   59500    1.7389208   -5.1573483    4690.8886            1 
   59600    1.6877459   -5.1763499    4715.3599            2 
   59700    1.7636059   -5.1731302    4685.6096            1 
   59800    1.7132767   -5.1964131    4674.0286            1 
   59900    1.6577962   -5.2246464    4677.6312            1 
   60000    1.7164186   -5.2042739     4677.506            1 
   60100    1.7090951   -5.1181126    4694.6626            1 
   60200    1.7276439   -5.1417889    4718.5838            1 
   60300    1.7318096   -5.1538301    4717.0609            2 
   60400    1.6840521   -5.1158511    4685.5973            2 
   60500    1.7610339   -5.1749388    4699.1095            1 
   60600    1.7096854    -5.164351    4721.5455            1 
   60700    1.6951624   -5.1842219    4685.1175            2 
   60800    1.7311505   -5.1981265    4657.4221            2 
   60900    1.7052359   -5.1308577     4702.177            1 
   61000    1.7193053   -5.1907538     4713.455            3 
   61100    1.7280748    -5.219311     4666.373            3 
   61200    1.7035707   -5.1812106    4667.0257            2 
   61300    1.7124118   -5.1646542    4726.0646            1 
   61400    1.7408649   -5.1497677    4723.7296            1 
   61500    1.6879988   -5.1205495    4695.3069            1 
   61600    1.7108917   -5.1628573    4690.9974            4 
   61700    1.7349187   -5.1591376     4698.868            1 
   61800    1.7026771    -5.204981    4709.9996            2 
   61900    1.7440234   -5.1555913    4700.9948            2 
   62000    1.7642792    -5.143568    4700.7444            2 
   62100    1.7206704   -5.1888928    4699.4484            2 
   62200    1.6940204    -5.170812    4699.1447            2 
   62300    1.7424102   -5.1368226    4722.2314            1 
   62400     1.705874   -5.1227274    4704.4805            1 
   62500    1.7062295   -5.1292485    4700.1888            1 
   62600    1.7269732   -5.1237719    4728.3824            1 
   62700    1.6920757     -5.10751     4717.939            1 
   62800    1.7285832   -5.1346632    4697.3872            2 
   62900    1.6753036   -5.1717973    4687.2424            1 
   63000    1.6951838   -5.1758089    4705.7393            1 
   63100    1.7102413   -5.1215973    4692.1061            1 
   63200    1.7420499   -5.1472377    4696.9239            1 
   63300    1.7257115    -5.135964    4726.6598            1 
   63400    1.7001578   -5.1594879    4701.1368            1 
   63500    1.7508246   -5.1639705    4702.2166            2 
   63600    1.7278331   -5.1266325    4725.9912            1 
   63700    1.6980194   -5.0891873    4708.7955            2 
   63800    1.7117069    -5.135293    4714.4533            2 
   63900    1.7686072   -5.1440342    4719.6999            1 
   64000    1.6992908   -5.1259811    4697.2572            1 
   64100    1.6735003   -5.1204608    4725.6526            1 
   64200    1.7590136   -5.1431011    4713.3505            2 
   64300    1.7026001    -5.121765    4692.1498            1 
   64400    1.6866373   -5.1087286    4724.0447            2 
   64500    1.7347297    -5.144126    4728.6512            2 
   64600    1.6769684   -5.1213863    4698.1058       -1e+20 
   64700    1.7226378   -5.1206993    4698.2555            2 
   64800    1.6867993   -5.1245472    4740.4829            1 
   64900    1.7424052    -5.137223    4700.1418            1 
   65000    1.7064549   -5.1195486    4684.1109            2 
   65100    1.7131025   -5.1496061    4692.7233            3 
   65200    1.7292388   -5.1661624     4709.811            1 
   65300    1.6901001   -5.1281587    4710.2729            1 
   65400    1.7461134   -5.1829033    4671.1644            2 
   65500    1.7153498   -5.1509683     4700.971            1 
   65600    1.7370556   -5.1672255    4712.2806            1 
   65700    1.7249191   -5.1838411    4704.7494            2 
   65800    1.6616292   -5.1801886    4685.5948            1 
   65900    1.7241385   -5.1823187    4677.0516            1 
   66000     1.711476   -5.1578965    4687.5321            3 
   66100    1.7240374   -5.1534392    4720.4347            3 
   66200    1.6931583   -5.1128766     4717.294            1 
   66300    1.7834109   -5.1625645    4670.6306            2 
   66400    1.6754642   -5.1431833    4706.9808            1 
   66500    1.7229553   -5.1567432    4720.9218            1 
   66600    1.7298444   -5.1200983    4705.4774            1 
   66700    1.7237768    -5.121155    4706.0308            2 
   66800    1.6978894   -5.1422567    4723.3335            1 
   66900    1.7428839   -5.1580369    4710.5307            1 
   67000     1.707565   -5.1525212    4715.2677            3 
   67100    1.7444292   -5.1462049    4701.5647            1 
   67200    1.7324655   -5.1676534    4707.4923            2 
   67300     1.700748   -5.1558145    4702.4114            1 
   67400    1.7240083   -5.1325349    4703.9308            3 
   67500     1.775426   -5.1477874    4713.6221            1 
   67600     1.730638   -5.1776203     4710.952            1 
   67700    1.7104941   -5.1781336    4717.2482            1 
   67800    1.7574051   -5.1469061    4688.8709            1 
   67900    1.7130485   -5.1475697    4692.5182            2 
   68000    1.7316429   -5.1550222    4734.6996            1 
   68100    1.7215877   -5.1198194    4724.1248            2 
   68200    1.7106943   -5.1141803    4671.6996            4 
   68300    1.7455768   -5.1445083    4695.4632            2 
   68400    1.6980706   -5.1440494    4719.9702       -1e+20 
   68500    1.7009233   -5.1331994    4710.0436            2 
   68600    1.7277059   -5.0874084    4714.4469            1 
   68700    1.6988434   -5.0992657     4718.998            1 
   68800    1.7329979   -5.1094016    4695.4507            1 
   68900    1.7035012    -5.106002    4713.7014            1 
   69000    1.7018634   -5.1669694    4733.9216            3 
   69100    1.7508581   -5.1813929     4682.227            1 
   69200    1.7212019   -5.2382371    4676.4091            1 
   69300    1.7274308   -5.2136873    4694.1277            1 
   69400    1.7160292   -5.1693424    4697.8106            2 
   69500     1.723248   -5.1271028    4697.9173            1 
   69600    1.7014104   -5.1414619    4726.2255            1 
   69700    1.7557791   -5.1409729    4715.9539            1 
   69800    1.7444828   -5.1644085    4683.5131            3 
   69900    1.6761578   -5.1371924    4697.3744            1 
   70000    1.7239949   -5.1413427    4726.0724            2 
   70100    1.7496561   -5.1360818     4702.726            2 
   70200    1.7205896   -5.1494677    4713.2455            2 
   70300    1.7111545   -5.2184409    4690.2314            1 
   70400    1.7079916   -5.1793245    4682.3772            2 
   70500    1.7288445   -5.1312423    4700.4827            1 
   70600    1.7201145   -5.1442972    4694.1725            1 
   70700    1.7097325   -5.1347055    4703.6531            1 
   70800     1.723958   -5.1601802    4719.0039            1 
   70900    1.7458554   -5.1031934    4701.7241            1 
   71000    1.6987656   -5.1114702    4693.6076            1 
   71100    1.7062181   -5.1323654    4741.9984            2 
   71200    1.7172785   -5.0893192    4741.8775            1 
   71300    1.7193437   -5.1010696    4690.7678            1 
   71400    1.7270459   -5.1698327    4691.3387            1 
   71500    1.6777234   -5.1543472    4700.3244            1 
   71600    1.7168865   -5.1126109    4711.0211            3 
   71700    1.7298049   -5.1132194    4693.8001            1 
   71800     1.696644   -5.1395789    4709.5656            1 
   71900    1.7221665   -5.1680667    4698.4204            1 
   72000    1.7204704   -5.1600932    4681.1376            1 
   72100    1.7446028   -5.1318971    4716.9286            1 
   72200    1.7200611   -5.1575295    4710.2554            1 
   72300     1.717796   -5.1801943    4711.6893            1 
   72400    1.7034815   -5.1270524    4699.8059            2 
   72500    1.7670746   -5.1174033    4707.0391            2 
   72600    1.7164297   -5.1254395    4740.4559            1 
   72700    1.7272223   -5.1543726    4722.5168            1 
   72800    1.7313184   -5.1687907    4670.3006            2 
   72900    1.7079051   -5.1988462    4677.0378            2 
   73000    1.7081177   -5.1521075    4716.5044            1 
   73100    1.7421967    -5.162599    4707.0611            1 
   73200    1.7341088   -5.1805456    4677.5376            1 
   73300    1.7010086   -5.1181194    4718.4805            2 
   73400    1.7300417   -5.1325731    4740.6943            1 
   73500    1.6893064   -5.1253365    4694.7075            1 
   73600    1.7491641   -5.1426138    4699.9479            1 
   73700     1.697649    -5.148141    4723.4383            1 
   73800    1.7465752   -5.1252951    4701.5282            1 
   73900    1.6958671   -5.1413768    4675.0736            1 
   74000    1.6853893   -5.1707868    4705.8827            2 
   74100    1.7317911   -5.1383537    4704.8271            2 
   74200    1.7466158   -5.0874699    4696.1272       -1e+20 
   74300    1.6745994   -5.1264143    4727.3989            1 
   74400    1.7390184   -5.1784697    4717.6709            3 
   74500    1.7475532   -5.2199486    4657.0409            1 
   74600    1.6934221   -5.1475663    4711.3592            1 
   74700    1.7288941   -5.1344181    4715.0165            1 
   74800    1.6932794   -5.1672627    4705.0825            2 
   74900     1.697086   -5.1758476    4678.7201            2 
   75000    1.7157747   -5.1194432    4693.8776            1 
   75100     1.720884   -5.1322788    4719.7211            2 
   75200    1.7366192   -5.0996656    4746.4886            3 
   75300    1.7281999   -5.1435273    4691.8076            1 
   75400    1.7476545   -5.2055702    4686.3414            2 
   75500    1.6709458   -5.1907698    4713.7435            2 
   75600     1.722758   -5.1558053    4716.7957            1 
   75700    1.7509969   -5.1542589    4671.0284            3 
   75800    1.6951102   -5.1782524    4688.7373            1 
   75900     1.731368   -5.1822888    4710.3335            2 
   76000    1.7348684   -5.1453423    4685.5971            1 
   76100    1.7191977   -5.1694557    4703.7753            2 
   76200    1.7548505   -5.1564239    4739.4416            1 
   76300    1.7671047    -5.164222    4702.0548            1 
   76400    1.7155129   -5.1575416     4702.474            1 
   76500    1.7140781   -5.1313935    4707.0466            1 
   76600    1.7198348   -5.1425464    4723.4375            1 
   76700    1.6951636   -5.1378184    4684.3257            2 
   76800    1.7554667   -5.1731837    4693.0105            1 
   76900    1.6910128   -5.1335637    4722.9007       -1e+20 
   77000    1.7439142   -5.1247245    4729.6938            1 
   77100    1.7311409   -5.1082873    4707.5724            1 
   77200    1.7243048   -5.1422495    4725.7302            1 
   77300    1.7144077   -5.0996436    4746.4978            1 
   77400     1.728717    -5.131943    4689.2307            1 
   77500    1.7049995   -5.1498662    4714.4727            1 
   77600     1.729507   -5.1475972    4722.4028            1 
   77700    1.7115908   -5.1661235    4689.6702            1 
   77800    1.7265506   -5.1356778    4699.6292            1 
   77900     1.713112   -5.1623129    4702.5979            1 
   78000    1.7255517    -5.178737    4701.1263            1 
   78100    1.7228036   -5.1126278     4710.642            1 
   78200    1.7268737   -5.1587136    4686.0104            1 
   78300    1.6988715   -5.1838959    4707.4026            4 
   78400    1.7282493   -5.1308268    4703.6395            2 
   78500    1.7613153    -5.126497    4684.4091            1 
   78600    1.7038953   -5.1753849    4706.7174            1 
   78700    1.6844189   -5.1725996    4688.4609            1 
   78800    1.7568915   -5.1711235    4675.4791            2 
   78900    1.7359241    -5.183628    4704.3977            1 
   79000    1.7206812    -5.210518    4703.3617            2 
   79100    1.7355013   -5.1549465    4698.2909            1 
   79200    1.7513296   -5.1831727    4718.9527            2 
   79300    1.6912793   -5.1705111    4707.9665            1 
   79400    1.7145927   -5.1287967    4691.0027            2 
   79500    1.7276842   -5.1438789    4686.8579            1 
   79600    1.6853643   -5.1867412    4694.5716            1 
   79700    1.7139819   -5.1510253    4708.9396            2 
   79800    1.7324705   -5.1952342    4684.1399            1 
   79900    1.6791768   -5.1408473    4699.3523            1 
   80000    1.7230952   -5.1167543     4700.655            1 
   80100    1.7350135   -5.1647874    4715.4912            1 
   80200    1.6740624   -5.1476628     4691.425            1 
   80300    1.7227811   -5.1320913    4700.9419            1 
   80400    1.7242771   -5.1489248    4692.7809            1 
   80500    1.6876774    -5.169372    4697.1723            2 
   80600    1.7113671   -5.1453617    4700.1076       -1e+20 
   80700    1.7255803   -5.1428772    4697.4935            1 
   80800    1.7650052   -5.1265394    4725.9115            1 
   80900    1.7132367   -5.1196488    4701.3305            2 
   81000    1.7203668   -5.1739966    4708.2116            1 
   81100    1.6839986   -5.1973335    4702.0969            1 
   81200    1.7270062   -5.1340732    4676.7676            5 
   81300    1.7328309    -5.112292    4687.5957            1 
   81400    1.7040356   -5.1447513    4721.5937            1 
   81500    1.7061854   -5.1470682    4708.0856            2 
   81600    1.7335283   -5.1036149    4692.2519            2 
   81700    1.6785665    -5.139838    4700.6809            1 
   81800    1.7270839   -5.1836596    4700.1926            1 
   81900    1.7003208   -5.1698149    4679.0486            1 
   82000    1.7205441   -5.1296235    4685.2164            2 
   82100    1.7095711   -5.1002323    4739.6493            1 
   82200    1.7312519   -5.1169898    4715.1418            1 
   82300    1.7064949    -5.115472    4684.1627            1 
   82400    1.7026023    -5.140161    4702.9965            1 
   82500    1.7248262   -5.1391554    4737.2318            2 
   82600    1.6975055   -5.1208181    4695.4148            1 
   82700    1.6988856    -5.095177    4703.6898            1 
   82800    1.7257901   -5.1656378    4730.2126            1 
   82900    1.7669749   -5.1199277    4722.7709            1 
   83000    1.7298282   -5.1060884    4724.8437            1 
   83100    1.7033806   -5.1476006    4711.0695            1 
   83200    1.7453758   -5.1603061    4696.0058            1 
   83300    1.7119765    -5.187453    4684.6064            1 
   83400    1.7107317   -5.2072626    4684.6168            2 
   83500    1.7242443   -5.1416817    4691.5007            1 
   83600     1.729139   -5.1535987    4714.3085            1 
   83700    1.7228509   -5.1405249    4721.5002            1 
   83800    1.7384749   -5.1592187    4667.0224            1 
   83900    1.7254649   -5.2062439    4695.8373            2 
   84000    1.6966327   -5.1899604    4707.4992            1 
   84100    1.7165558   -5.1862289    4674.8513            1 
   84200    1.7335361   -5.1290476    4693.2515            1 
   84300    1.7190107   -5.1710755    4701.5945            2 
   84400    1.6862937   -5.1407403    4710.6589            2 
   84500    1.7692098   -5.1933848    4715.5252            1 
   84600    1.7056627     -5.17639    4695.5327            1 
   84700    1.7271219   -5.1404834    4681.5372            3 
   84800    1.7515786   -5.1229764    4713.4178            2 
   84900     1.695313   -5.1341271    4722.3708            1 
   85000    1.7522149   -5.1176995    4701.1304            1 
   85100    1.6894371   -5.1281935    4700.6867            1 
   85200    1.7386052   -5.1551578    4713.3847            1 
   85300    1.7190945   -5.1114011    4722.6224            1 
   85400    1.7209969   -5.1267632    4722.2854            1 
   85500     1.746472   -5.2015114    4711.6007            1 
   85600     1.702265   -5.1798532    4685.8206            2 
   85700     1.733662    -5.168301    4670.3798            1 
   85800    1.6910309    -5.168222    4706.8731            2 
   85900    1.7198687    -5.149962    4708.1757            1 
   86000    1.7047479   -5.1460269    4686.8847            1 
   86100    1.7237887   -5.1673357    4675.3519            1 
   86200    1.6784221   -5.1139254    4719.9974            1 
   86300    1.7605754    -5.153434    4710.4594            1 
   86400    1.7309578   -5.1621095    4685.6716            4 
   86500    1.7017383   -5.1951247    4688.9195            2 
   86600    1.6808998   -5.1589081    4697.1652            1 
   86700    1.7359479   -5.1032961    4673.3637            1 
   86800    1.7148593   -5.1664392    4694.6602            2 
   86900    1.6981538   -5.1850464    4699.3623            2 
   87000    1.7106028   -5.1561878    4673.1172            1 
   87100    1.7084578   -5.1094616    4710.9872       -1e+20 
   87200    1.7017736   -5.1495598    4725.0899            1 
   87300    1.7716231   -5.1411898    4702.6412            1 
   87400    1.7060064   -5.1427938    4712.8954            2 
   87500    1.7212581   -5.1150046    4708.0232            1 
   87600    1.7332015   -5.0971084      4698.71            1 
   87700    1.6864416   -5.1504521    4715.3312            2 
   87800    1.7323575   -5.1831518    4700.0414            1 
   87900    1.7093254   -5.1180528    4693.3966            1 
   88000    1.7442057   -5.1021275    4730.7122            1 
   88100    1.7360907   -5.1188713    4737.9258            1 
   88200     1.728354   -5.1616129    4704.0604            3 
   88300    1.6953475   -5.1345917    4696.5288            2 
   88400     1.725411   -5.1407347    4703.2402            1 
   88500    1.7547975   -5.1106807    4734.6863            1 
   88600    1.7158806   -5.1324365    4710.5288            2 
   88700    1.7191525   -5.1567567    4708.8855            2 
   88800    1.7131606   -5.1396893    4703.6428            2 
   88900    1.6995323   -5.1102148    4695.8784            1 
   89000    1.7237506   -5.1778268    4663.6455            2 
   89100    1.6480759    -5.183649    4696.2992            3 
   89200    1.6941819   -5.1397859    4698.9249            1 
   89300     1.748993   -5.1358148    4713.7962            2 
   89400    1.7345898   -5.1389062    4698.2371            1 
   89500    1.6878015   -5.1305017    4721.4442            1 
   89600    1.7903306   -5.1758932    4732.3001            1 
   89700    1.7524282   -5.1763767    4704.5772            1 
   89800    1.7111371   -5.1503721    4732.2585            1 
   89900     1.703636   -5.0828989    4735.3977            1 
   90000    1.7512749   -5.0879683    4712.2678            1 
   90100    1.7163397   -5.1308408    4720.1759            2 
   90200    1.7333683   -5.1859942    4686.2802            1 
   90300    1.7198689   -5.1817105    4691.4586            1 
   90400    1.7185049   -5.1197693    4732.3056            1 
   90500    1.7556784   -5.1215498    4701.1718            1 
   90600     1.697293   -5.1292525    4709.3698            1 
   90700    1.6782245    -5.175051    4691.5417            2 
   90800    1.7268951   -5.1580515    4689.8296            2 
   90900    1.7309389   -5.1822498    4716.4413            1 
   91000    1.6933871   -5.1776948    4701.2737            1 
   91100    1.7334337    -5.134129     4670.738            1 
   91200    1.7322712   -5.1332285    4721.5681            1 
   91300    1.7089332   -5.1264307    4726.2955            1 
   91400    1.7325818   -5.1387292    4693.7494            1 
   91500    1.7015004   -5.1792816    4685.7519            1 
   91600    1.7154199    -5.187105    4715.5505            1 
   91700    1.7257174   -5.1639573    4725.1627            1 
   91800    1.7623293   -5.1103513    4697.8793            2 
   91900    1.7205903   -5.1659701    4731.6124            1 
   92000    1.7117028   -5.1975465    4712.2803            1 
   92100    1.7382898   -5.1658168    4680.8862            1 
   92200    1.7162755   -5.1472013    4714.4266            2 
   92300    1.7088596    -5.094397    4734.8754            1 
   92400    1.7522166   -5.0887133    4732.3047            2 
   92500    1.7109267   -5.1033093    4715.4866            1 
   92600    1.7147693   -5.1368001    4721.7204            1 
   92700    1.7303438   -5.1176453    4711.9588            3 
   92800    1.7328916    -5.127864    4700.8803            2 
   92900    1.6859958   -5.1665975     4718.634            1 
   93000    1.7446288   -5.1693238    4685.5044            1 
   93100    1.7060869   -5.1549258    4679.7033            1 
   93200    1.6943249   -5.1620576    4702.9723            1 
   93300    1.7146646   -5.1509928    4691.6401            1 
   93400    1.7328852   -5.1166684    4710.9226            1 
   93500    1.7216341   -5.1237883    4742.7674            1 
   93600    1.7098441   -5.1699127    4720.2516            1 
   93700    1.7379268   -5.1476811    4667.4223            1 
   93800    1.6959451   -5.1896824    4685.4116            2 
   93900    1.6957506   -5.1941835    4717.2928            1 
   94000    1.7672993    -5.191756    4693.1506            1 
   94100    1.7043014   -5.1672608    4685.4443            1 
   94200    1.7417613   -5.1747848    4683.5895            1 
   94300     1.718748   -5.1129099    4743.3928            1 
   94400    1.7176004   -5.1342594     4723.002            1 
   94500    1.7296275   -5.1245285    4701.3576            2 
   94600    1.7169237   -5.1582354    4714.3802            1 
   94700    1.7131501   -5.1731114    4717.1874            2 
   94800    1.7397923   -5.1101022    4711.7886            1 
   94900    1.7329285   -5.1644214    4683.9322            1 
   95000    1.6939276   -5.1590005    4707.5625            1 
   95100    1.7101966   -5.1211496    4717.2645            1 
   95200    1.7232197   -5.1017725    4711.9747            2 
   95300    1.7318136   -5.1507936    4710.6683            2 
   95400    1.6960222   -5.1554761    4687.8674            1 
   95500    1.7412004   -5.1593755    4661.5836            3 
   95600    1.7204512   -5.2053912    4686.8022            1 
   95700    1.7267585   -5.1797258    4726.2992            2 
   95800     1.754341   -5.1397756     4717.166            1 
   95900    1.7201417   -5.1661383    4682.4837            1 
   96000    1.7268445   -5.1942174    4684.2949            1 
   96100    1.7231425   -5.1480688    4710.8706            1 
   96200    1.7193768   -5.1586955    4683.8079            1 
   96300     1.692424   -5.1722569    4685.8005            1 
   96400    1.7293972   -5.1567811    4707.0196            1 
   96500    1.7097845   -5.1874902    4695.3575            3 
   96600    1.6744232   -5.1399907    4692.6324            1 
   96700    1.7616625   -5.1530198    4686.7744            2 
   96800    1.7092295    -5.174247    4715.9026            1 
   96900    1.7087353    -5.205905    4723.2875            3 
   97000    1.7409439   -5.1430174    4683.4119            2 
   97100     1.723853   -5.1251063    4712.0825            1 
   97200    1.7144131   -5.1425081    4721.7777            2 
   97300    1.7298957   -5.1331799    4696.0249            1 
   97400    1.7290771   -5.1538632    4724.6678            3 
   97500    1.6986797   -5.1462876    4694.6973            1 
   97600    1.7498662   -5.1228649    4715.0256            2 
   97700    1.7342285   -5.1432983    4699.1468            3 
   97800    1.7140182   -5.1600337    4709.0666            1 
   97900    1.6996552   -5.1970087    4697.1176            1 
   98000    1.7300992    -5.165672    4685.2547            2 
   98100    1.7405835   -5.1805948    4694.0003            2 
   98200     1.684223   -5.1994928    4710.7725            2 
   98300    1.7335162   -5.1780486    4702.1908            2 
   98400    1.7434521   -5.1699601    4687.5949            1 
   98500    1.7420254   -5.1467763    4719.5913            1 
   98600    1.6805178   -5.1297292    4737.3612            1 
   98700     1.750478    -5.124919    4676.1268            1 
   98800    1.7341967   -5.1689887     4703.017            2 
   98900     1.736174   -5.1716633    4731.2406            2 
   99000    1.7168782   -5.1384327    4706.3742            1 
   99100    1.7330989   -5.1920679    4676.1502            1 
   99200    1.6942319   -5.1922554    4693.4809            1 
   99300    1.6971582   -5.1399305    4748.2944            1 
   99400    1.7547399   -5.1323158    4720.1111            2 
   99500    1.7197507   -5.1379407    4708.4853            1 
   99600    1.7250416   -5.1561202    4705.5303            1 
   99700     1.705369   -5.1927769    4693.8601            1 
   99800    1.7118452   -5.1597322    4725.1116            3 
   99900    1.7415355   -5.1564412    4697.8612            2 
  100000    1.7356059   -5.1986878    4678.6351            1 
  100100    1.7107065   -5.1397783    4717.4749            1 
  100200    1.7140189   -5.1223147    4716.8386            2 
  100300      1.72719    -5.157964    4677.7575            2 
  100400    1.6909088   -5.1913606    4698.5748            3 
  100500    1.6966527   -5.1424806     4706.487            1 
  100600    1.7467207   -5.1133272    4695.9718            1 
  100700    1.6857269   -5.1455583    4728.3513            1 
  100800    1.7386305   -5.1699196    4704.5216            1 
  100900    1.7059722   -5.1435539    4671.9793            1 
  101000    1.7618465   -5.1788902    4728.6762            1 
  101100    1.6965844   -5.1415056    4723.9358            1 
  101200    1.7777574   -5.1615604    4697.5597            1 
  101300    1.7051335   -5.1728867    4720.2944            1 
  101400    1.7321008    -5.213946    4678.4515            1 
  101500    1.7232956   -5.2096983    4668.6259            1 
  101600    1.7232572   -5.1640596    4724.3054            1 
  101700    1.7367215   -5.1970705    4695.2886            2 
  101800    1.7232321   -5.1890365    4695.5767            1 
  101900    1.7282075   -5.1565772    4705.2596            2 
  102000    1.7078283   -5.1427587    4701.4189            1 
  102100    1.7202491   -5.1335594     4705.626            2 
  102200    1.7455811   -5.1361746    4737.2254            1 
  102300    1.7261794   -5.1786101    4690.1964            2 
  102400    1.6766262   -5.1486781    4706.4136            2 
  102500    1.7510228   -5.1639125    4682.0428            2 
  102600    1.7274118   -5.1933256    4705.1135            1 
  102700    1.6764763   -5.1849204    4712.6681            1 
  102800     1.734374   -5.1640134    4685.1356            1 
  102900    1.7049964   -5.1091552    4712.0535            1 
  103000    1.7305786   -5.1147568    4705.8777            1 
  103100     1.715227   -5.1431293    4697.6188       -1e+20 
  103200    1.7180251   -5.1880594    4713.6512            2 
  103300    1.7228484   -5.1481948    4708.9984            1 
  103400    1.7522572   -5.1598914    4688.8214            2 
  103500    1.7151877   -5.1205079    4731.7171            2 
  103600    1.6853465   -5.1537915    4695.7999            1 
  103700    1.7023701   -5.1495683    4691.6924            1 
  103800    1.7544791   -5.2054801    4687.9101            2 
  103900    1.6984905   -5.2064774    4698.9439            1 
  104000    1.7126149   -5.1504087     4716.641            2 
Loop time of 321.438 on 20 procs for 100000 steps with 4000 atoms

Performance: 53758.495 tau/day, 311.102 timesteps/s
99.9% CPU use with 20 MPI tasks x no OpenMP threads

MPI task timing breakdown:
Section |  min time  |  avg time  |  max time  |%varavg| %total
---------------------------------------------------------------
Pair    | 26.186     | 27.793     | 29.558     |  19.4 |  8.65
Neigh   | 4.5591     | 4.7902     | 5.3626     |   8.7 |  1.49
Comm    | 13.473     | 15.592     | 18.571     |  38.9 |  4.85
Output  | 5.6056     | 5.607      | 5.6221     |   0.1 |  1.74
Modify  | 263.16     | 265.25     | 266.41     |   5.8 | 82.52
Other   |            | 2.401      |            |       |  0.75

Nlocal:        200.000 ave         211 max         193 min
Histogram: 3 3 2 5 0 2 2 0 2 1
Nghost:        2177.50 ave        2186 max        2155 min
Histogram: 1 0 0 0 1 2 4 1 6 5
Neighs:        19363.3 ave       20783 max       17884 min
Histogram: 2 2 0 4 3 1 2 1 3 2
FullNghs:      38725.9 ave       40893 max       37141 min
Histogram: 3 3 2 3 2 1 2 1 0 3

Total # of neighbors = 774518
Ave neighs/atom = 193.62950
Neighbor list builds = 7792
Dangerous builds = 51

#clear
#
#next RN
#
#jump SELF
Total wall time: 0:05:23
