
units lj                  # Use reduced LJ style units
atom_style atomic         # Uncharged point particles
atom_modify map hash      # Needed for indexing of clusters etc
                          # Used to be able to find where atoms are in relation to each other.

# Define a lattice with which to populate the simulation cell. With units
# set to 'lj' the second argument to the lattice command is the reduced
# density rho* and the spacings are multiples of that required to acheive
# that density. Also define a simulation cell called 'box' in lattice units
# and fill it with atoms. Here we're creating a box which is ten lattice
# constants in each direction.
lattice fcc 1.0 spacing 1 1 1                 # All equal sizes - gives the right reduced density.
Lattice spacing in x,y,z = 1.5874011 1.5874011 1.5874011

region box block 0 10 0 10 0 10 units lattice # Defines a region, "box", in lattice units
create_box 1 box                              # Creates a simulation box as specified above,
Created orthogonal box = (0.0000000 0.0000000 0.0000000) to (15.874011 15.874011 15.874011)
  2 by 4 by 4 MPI processor grid
                                              # with one type of atom
create_atoms 1 box                            # Creates particles on lattice points
Created 4000 atoms
  using lattice units in orthogonal box = (0.0000000 0.0000000 0.0000000) to (15.874011 15.874011 15.874011)
  create_atoms CPU = 0.001 seconds


# Set the mass of the first (and only) atom type.
mass 1 1.0

# Lennard-Jones interactions between particles, 3.5 sigma cut-off. Apply
# long range tail corrections to energy and pressure and set all coefficients
# to unity since we work in reduced units here. Note that this doesn't shift
# the potential such that it goes to zero at the cutoff. That would require
# pair_modify('shift', 'yes').
pair_style lj/cut  3.5      # non-GPU version
pair_modify tail  yes
pair_coeff 1  1  1.0  1.0   # Intearaction between 1 and 1 set with epsilon = 1 and sigma = 1

write_data data.*
System init for write_data ...
Neighbor list info ...
  update every 1 steps, delay 10 steps, check yes
  max neighbors/atom: 2000, page size: 100000
  master list distance cutoff = 3.8
  ghost atom cutoff = 3.8
  binsize = 1.9, bins = 9 9 9
  1 neighbor lists, perpetual/occasional/extra = 1 0 0
  (1) pair lj/cut, perpetual
      attributes: half, newton on
      pair build: half/bin/atomonly/newton
      stencil: half/bin/3d
      bin: standard

#############################
#   M E L T   S Y S T E M   #
#############################

velocity all create 2.4 2750902 mom yes dist gaussian # Assign velocities
                                                    # Temperature 2.4, random number seed, zero linear momentum
						                                                        # Gaussian distribution

timestep 0.002   # simulation timestep
thermo 100       # output thermodynamic data every 100 steps

# Define a fix  in this case with index 1 applied to all
# particles in the simulation. This fix is for simulations
# in the anisotropic NPT ensemble. Note that we use the MTK
# correction.
fix 1 all npt temp 2.4 2.4 0.1 iso 5.68 5.68 0.5 mtk yes tchain 5 pchain 5 # Use NPT ensemble
                                                                         # Set temperature and pressure and damping
                                                                         # Numbers of thermostats in chain and in barostat
run 1000         # run for 10000 steps
Per MPI rank memory allocation (min/avg/max) = 3.660 | 3.660 | 3.660 Mbytes
Step Temp E_pair E_mol TotEng Press Volume 
       0          2.4   -8.3859253            0   -4.7868253   -2.2405722         4000 
     100    1.2608475   -6.5235855            0   -4.6327871    5.4038563    4091.0951 
     200    1.4674745   -6.2960149            0   -4.0953535    6.0843453    4138.9956 
     300    1.5811347   -6.0195196            0   -3.6484105    5.8230308      4272.98 
     400    1.6903552   -5.7119813            0   -3.1770823    5.9377022    4398.4635 
     500    1.7989246   -5.4338299            0   -2.7361176    5.7946904    4546.9323 
     600    1.9022797   -5.1497661            0   -2.2970598    5.8333119    4691.4311 
     700    2.0414959   -4.9561197            0   -1.8946415    5.6184351    4842.6632 
     800    2.1308362   -4.7068196            0   -1.5113644    5.7371792    4975.4569 
     900    2.2803533   -4.5781415            0   -1.1584666    5.7093427    5072.7544 
    1000    2.3672823   -4.4702836            0  -0.92024792    5.6050301    5163.6463 
Loop time of 0.260688 on 32 procs for 1000 steps with 4000 atoms

Performance: 662862.486 tau/day, 3836.010 timesteps/s
99.6% CPU use with 32 MPI tasks x no OpenMP threads

MPI task timing breakdown:
Section |  min time  |  avg time  |  max time  |%varavg| %total
---------------------------------------------------------------
Pair    | 0.13236    | 0.13942    | 0.14666    |   1.1 | 53.48
Neigh   | 0.025946   | 0.027419   | 0.028681   |   0.4 | 10.52
Comm    | 0.06335    | 0.071065   | 0.078381   |   1.6 | 27.26
Output  | 0.00019541 | 0.00019981 | 0.0002716  |   0.0 |  0.08
Modify  | 0.017774   | 0.020714   | 0.023613   |   1.2 |  7.95
Other   |            | 0.001875   |            |       |  0.72

Nlocal:        125.000 ave         135 max         113 min
Histogram: 1 0 2 4 3 13 2 2 3 2
Nghost:        1662.72 ave        1680 max        1643 min
Histogram: 2 1 2 2 6 6 7 2 3 1
Neighs:        11066.0 ave       11928 max       10173 min
Histogram: 2 2 2 5 6 5 4 0 1 5

Total # of neighbors = 354112
Ave neighs/atom = 88.528000
Neighbor list builds = 89
Dangerous builds = 32

# Equilibrate just above the melting temperature to avoid step fn in T

fix 1 all npt temp 1.25 1.25 0.1 iso 5.68 5.68 0.5 mtk yes tchain 5 pchain 5
run 1000
Per MPI rank memory allocation (min/avg/max) = 3.661 | 3.661 | 3.661 Mbytes
Step Temp E_pair E_mol TotEng Press Volume 
    1000    2.3672823   -4.4702836            0  -0.92024792    5.6050301    5163.6463 
    1100    1.9569734    -4.706111            0   -1.7713848    5.4657034    5011.4174 
    1200    1.7262382   -4.9667701            0   -2.3780602    5.5966981    4817.3008 
    1300     1.587552    -5.220701            0   -2.8399684    5.6758355    4663.7229 
    1400    1.4738799   -5.4342144            0   -3.2239472    5.4755949    4569.2977 
    1500    1.3534378   -5.5295528            0   -3.4999037    5.6215529    4496.5144 
    1600    1.2908728   -5.6315259            0   -3.6957007    5.7257345     4433.469 
    1700    1.2788408   -5.7494795            0   -3.8316978    5.6735232     4386.563 
    1800     1.254965   -5.8228809            0   -3.9409041    5.4759615    4370.1173 
    1900     1.226926   -5.8280252            0   -3.9880963    5.6657418    4349.5824 
    2000    1.2829323   -5.8566878            0   -3.9327705    5.6371083    4341.9677 
Loop time of 0.250455 on 32 procs for 1000 steps with 4000 atoms

Performance: 689943.525 tau/day, 3992.729 timesteps/s
99.7% CPU use with 32 MPI tasks x no OpenMP threads

MPI task timing breakdown:
Section |  min time  |  avg time  |  max time  |%varavg| %total
---------------------------------------------------------------
Pair    | 0.13185    | 0.13789    | 0.14496    |   0.8 | 55.06
Neigh   | 0.022433   | 0.023186   | 0.024093   |   0.3 |  9.26
Comm    | 0.058232   | 0.067072   | 0.074592   |   1.4 | 26.78
Output  | 0.00019349 | 0.00019927 | 0.00025823 |   0.0 |  0.08
Modify  | 0.017311   | 0.019851   | 0.022805   |   1.0 |  7.93
Other   |            | 0.002254   |            |       |  0.90

Nlocal:        125.000 ave         131 max         119 min
Histogram: 2 3 5 2 4 4 3 2 3 4
Nghost:        1848.94 ave        1863 max        1828 min
Histogram: 1 0 1 1 3 11 7 3 2 3
Neighs:        13168.5 ave       13949 max       12671 min
Histogram: 5 6 5 1 3 2 3 4 1 2

Total # of neighbors = 421393
Ave neighs/atom = 105.34825
Neighbor list builds = 75
Dangerous builds = 6


# Small amount of linear quench

fix 1 all npt temp 1.25 ${temp} 0.1 iso 5.68 5.68 0.5 mtk yes tchain 5 pchain 5
fix 1 all npt temp 1.25 1.31 0.1 iso 5.68 5.68 0.5 mtk yes tchain 5 pchain 5
run 2000
Per MPI rank memory allocation (min/avg/max) = 3.661 | 3.662 | 3.662 Mbytes
Step Temp E_pair E_mol TotEng Press Volume 
    2000    1.2829323   -5.8566878            0   -3.9327705    5.6371083    4341.9677 
    2100     1.237982   -5.8499236            0   -3.9934148    5.6946687    4338.4429 
    2200    1.2525603   -5.8726335            0   -3.9942628     5.541202    4343.0572 
    2300    1.2813217   -5.8515931            0    -3.930091    5.7152496    4338.0413 
    2400    1.2500153   -5.8417548            0   -3.9672006     5.862493    4326.8685 
    2500    1.2703426   -5.8006286            0   -3.8955911    6.1207914    4323.4598 
    2600    1.2587583   -5.8287526            0   -3.9410873    5.6227404    4352.3947 
    2700    1.2660858   -5.8225588            0   -3.9239048    5.4518842    4372.7461 
    2800    1.2634363   -5.8548217            0   -3.9601411     5.480723    4352.5062 
    2900     1.274283     -5.82428            0   -3.9133334    5.6470501    4353.9143 
    3000    1.2844425   -5.7942537            0   -3.8680716    5.6284807    4370.4201 
    3100    1.3014728   -5.7683117            0   -3.8165906    5.5703553     4387.119 
    3200     1.279667   -5.7745325            0   -3.8555119    5.5902362    4382.3735 
    3300    1.2744253   -5.7793458            0   -3.8681858    5.5645291    4381.6128 
    3400    1.3055972   -5.7836462            0     -3.82574    5.7369849     4364.858 
    3500     1.299218   -5.7501786            0   -3.8018388    5.8977735    4367.6923 
    3600    1.3082888   -5.7550978            0   -3.7931552    5.5659779    4397.5285 
    3700    1.2807091   -5.7269609            0   -3.8063775    5.5898565    4401.5196 
    3800     1.297317   -5.7629741            0   -3.8174851    5.6997159    4374.3123 
    3900    1.3253012   -5.7830108            0   -3.7955561    5.5766995    4382.7059 
    4000    1.2895807   -5.7142738            0   -3.7803863    5.7940591    4389.3865 
Loop time of 0.513158 on 32 procs for 2000 steps with 4000 atoms

Performance: 673476.664 tau/day, 3897.434 timesteps/s
99.8% CPU use with 32 MPI tasks x no OpenMP threads

MPI task timing breakdown:
Section |  min time  |  avg time  |  max time  |%varavg| %total
---------------------------------------------------------------
Pair    | 0.27935    | 0.28755    | 0.29921    |   0.8 | 56.03
Neigh   | 0.041817   | 0.042801   | 0.044445   |   0.3 |  8.34
Comm    | 0.12255    | 0.1371     | 0.14825    |   1.4 | 26.72
Output  | 0.00038788 | 0.00039707 | 0.00052573 |   0.0 |  0.08
Modify  | 0.036233   | 0.040292   | 0.044995   |   1.3 |  7.85
Other   |            | 0.005024   |            |       |  0.98

Nlocal:        125.000 ave         138 max         114 min
Histogram: 1 2 3 4 8 9 2 2 0 1
Nghost:        1835.22 ave        1853 max        1807 min
Histogram: 1 2 0 3 1 6 7 5 4 3
Neighs:        13008.3 ave       14366 max       11733 min
Histogram: 1 3 0 6 6 7 5 3 0 1

Total # of neighbors = 416265
Ave neighs/atom = 104.06625
Neighbor list builds = 135
Dangerous builds = 0

#############################
# F R E E Z E  S Y S T E M  #
#############################

# Define solid atoms. This closely follows ten Wolde  Ruiz-Montero and Frenkel  Faraday Discuss  1996  104  93-110
# Compute components of the per-atom q6 vector
compute q6 all orientorder/atom degrees 1 6 components 6 nnn NULL cutoff 1.3 # compute the Q6 parameter.
                                                                             # Use all neighbours within 1.3 unit cell.

# get number of connections
compute coord_number all coord/atom orientorder q6 0.5

# An atom is solid if it has 8 or more connections (of a possible 14)
variable is_solid atom c_coord_number>=8
group solid dynamic all var is_solid    # Must be dynamic to update
dynamic group solid defined

# do clustering
compute cluster solid cluster/atom 1.3 # Create a cluster where all atoms within are solid and max 1.3 units from another member

# define chunks one chunk per cluster
compute clus_chunks solid chunk/atom c_cluster nchunk every compress yes  # Says which atoms are in which chunk

# count the size of each chunk
compute size_chunks solid property/chunk clus_chunks count


# Find the maximum entry in the vector of chunk sizes
variable max_n equal max(c_size_chunks)


# Thermo style which includes this variable
thermo_style custom step temp pe vol v_max_n

thermo ${N}  # Print the thermo information every 100 steps
thermo 100  

# Reset the npt fix at a lower temperature (below freezing)
fix 1  all npt temp  ${temp} ${temp}  0.1  iso  5.68  5.68  0.5  mtk yes tchain  5  pchain  5
fix 1  all npt temp  1.31 ${temp}  0.1  iso  5.68  5.68  0.5  mtk yes tchain  5  pchain  5
fix 1  all npt temp  1.31 1.31  0.1  iso  5.68  5.68  0.5  mtk yes tchain  5  pchain  5

dump dmp2 all dcd ${N} traj_${rand}.dcd
dump dmp2 all dcd 100 traj_${rand}.dcd
dump dmp2 all dcd 100 traj_462431.dcd


# fix rnuntil all halt ${N} v_max_n >= 3980 error soft message no   # Stop when solidified


run 100000 # 5000000  # Run for this many steps
Neighbor list info ...
  update every 1 steps, delay 10 steps, check yes
  max neighbors/atom: 2000, page size: 100000
  master list distance cutoff = 3.8
  ghost atom cutoff = 3.8
  binsize = 1.9, bins = 9 9 9
  4 neighbor lists, perpetual/occasional/extra = 1 3 0
  (1) pair lj/cut, perpetual
      attributes: half, newton on
      pair build: half/bin/atomonly/newton
      stencil: half/bin/3d
      bin: standard
  (2) compute orientorder/atom, occasional
      attributes: full, newton on
      pair build: full/bin/atomonly
      stencil: full/bin/3d
      bin: standard
  (3) compute coord/atom, occasional
      attributes: full, newton on
      pair build: full/bin/atomonly
      stencil: full/bin/3d
      bin: standard
  (4) compute cluster/atom, occasional
      attributes: full, newton on
      pair build: full/bin/atomonly
      stencil: full/bin/3d
      bin: standard
Per MPI rank memory allocation (min/avg/max) = 9.418 | 9.425 | 9.429 Mbytes
Step Temp PotEng Volume v_max_n 
    4000    1.2895807   -5.7142738    4389.3865            2 
    4100    1.3435264   -5.7354384    4399.4805            3 
    4200    1.3289686   -5.7237042    4420.6874            3 
    4300    1.3205032   -5.7712429    4404.6139            2 
    4400    1.2898343   -5.7395599    4388.8656            3 
    4500    1.3257616    -5.725699    4391.0299            3 
    4600    1.3374919   -5.7623086    4392.3822            2 
    4700    1.2843093   -5.7496533    4388.5567            2 
    4800    1.3353258   -5.7629905    4379.9587            2 
    4900    1.3125325   -5.7517573    4367.1672            4 
    5000    1.3015583   -5.7504971    4365.9143            8 
    5100    1.3132531   -5.7612957    4382.0357            2 
    5200    1.2942448   -5.7445285    4403.5972            3 
    5300    1.3278684   -5.7292152    4411.8767            4 
    5400    1.2810416   -5.7282421    4389.6161            4 
    5500      1.32223   -5.7478938    4391.8243            2 
    5600    1.3027701    -5.764799    4403.2628            5 
    5700    1.2786525   -5.7479755    4379.1133            4 
    5800    1.3132816   -5.7327145    4401.3164            3 
    5900    1.3077051   -5.7174852    4386.2065            3 
    6000    1.3030102   -5.7655855    4350.0081            3 
    6100    1.2921594   -5.7649927     4376.172            2 
    6200    1.3466841   -5.8084785     4388.837            2 
    6300    1.2700991   -5.7467681    4390.0489            4 
    6400    1.3334259   -5.7581689    4384.1527            4 
    6500    1.2884444   -5.7333154    4367.5545            3 
    6600    1.2882165   -5.7362901    4376.9933            2 
    6700    1.3231618   -5.7453646    4381.0688            2 
    6800    1.2986164   -5.7566722     4391.347            2 
    6900    1.3067039   -5.7870093    4404.9197            2 
    7000    1.3093524   -5.7305468    4391.0885            5 
    7100    1.3273693   -5.7109457    4381.2227            7 
    7200    1.3228759   -5.7475171    4391.0579            2 
    7300    1.2921283   -5.7719463    4403.3839            2 
    7400    1.3198354   -5.7527253    4397.4288            1 
    7500    1.2864929   -5.7492828    4385.8852            2 
    7600    1.3020956   -5.7911245    4365.5768            3 
    7700    1.3187269   -5.7647468    4380.6531            2 
    7800    1.3195531   -5.7630453    4391.7897            3 
    7900    1.3162536   -5.7461191    4406.7119            4 
    8000    1.3176777   -5.7308293    4410.0387            1 
    8100    1.3101838   -5.7369732    4405.1974            3 
    8200    1.2977038   -5.7423614    4391.3641            4 
    8300    1.3169073    -5.784694    4364.8543            2 
    8400    1.3221467   -5.7335074    4375.0646            3 
    8500       1.3038   -5.7414262    4401.8898            3 
    8600    1.3085415   -5.7383487     4402.483            3 
    8700    1.3081163   -5.7745043    4377.2411            4 
    8800    1.3344662   -5.7451415    4384.7153            3 
    8900    1.3060536   -5.7255796    4377.5432            2 
    9000    1.3036927   -5.7917822     4374.022            5 
    9100    1.3058909   -5.7484543    4393.1022            1 
    9200    1.3096995   -5.7478604    4411.0025            1 
    9300    1.3044496   -5.7232671    4402.6002            2 
    9400    1.3361562   -5.7520489    4380.5311            3 
    9500    1.3071853      -5.7511      4373.59            2 
    9600    1.2797495   -5.7498429    4391.9682            2 
    9700    1.3317792   -5.7822143    4370.8172            2 
    9800    1.3186118   -5.7987424     4377.899            3 
    9900    1.3025063   -5.7414598    4403.9638            2 
   10000    1.3346486   -5.7514067    4384.5716            2 
   10100    1.2948844   -5.7419403    4359.6316            2 
   10200    1.3122535   -5.7480305    4371.6613            5 
   10300    1.3086882   -5.7257054    4385.2596            1 
   10400    1.2864002   -5.7023057    4407.4027            3 
   10500    1.3193752   -5.6970486    4429.2926            1 
   10600    1.2992957   -5.7110861    4399.8429            2 
   10700     1.309837   -5.7824816      4403.07            2 
   10800    1.3150242   -5.7189595    4402.7917            2 
   10900    1.3258854   -5.7010097    4374.8387            2 
   11000    1.3104533   -5.7152409    4373.1047            1 
   11100    1.2980505   -5.7327961    4402.6324            3 
   11200    1.3234804   -5.7352583    4398.1988            2 
   11300    1.3266769   -5.7782121    4383.9938            3 
   11400     1.281431   -5.7788879    4386.5991            3 
   11500    1.2878926   -5.7321905    4399.7763            3 
   11600    1.3063982   -5.7490973    4401.1366            2 
   11700    1.3219402   -5.7257488     4399.199            2 
   11800    1.2977595   -5.7194718    4394.5124            3 
   11900    1.3010017   -5.7451717    4380.0256            3 
   12000    1.3109338    -5.716228    4391.6607            3 
   12100    1.3523662   -5.7165843    4397.9376            1 
   12200    1.3016833   -5.7325753    4400.0783            2 
   12300    1.3068417   -5.7519944    4393.1938            3 
   12400    1.2570035    -5.727351    4396.0999            8 
   12500    1.3256419   -5.7327495    4375.4347            8 
   12600    1.3174391   -5.7373943    4383.9806            3 
   12700     1.287938   -5.7221115    4405.0644            3 
   12800     1.306106   -5.8012573    4375.6633            3 
   12900    1.3163241   -5.7971269    4387.1522            4 
   13000    1.3092582   -5.7565391    4378.0544            3 
   13100    1.3006644   -5.7791484    4373.5422            2 
   13200    1.3220511   -5.7606671    4380.4222            3 
   13300    1.2959835   -5.7203301    4397.8445            3 
   13400     1.323914    -5.715447     4413.855            6 
   13500    1.2999489     -5.74219    4395.3153            1 
   13600    1.3150733   -5.7871695    4386.0736            2 
   13700    1.3431838   -5.7558992    4376.3898            2 
   13800    1.3254024   -5.7231129    4394.1274            3 
   13900     1.313623   -5.7164906      4405.97            2 
   14000    1.2933487   -5.7371661    4411.4813            2 
   14100    1.3320473   -5.7463557      4410.64            6 
   14200      1.32076   -5.7683435    4374.0318            4 
   14300    1.2992012    -5.735846      4391.29            2 
   14400     1.311358   -5.7446465    4409.7246            2 
   14500    1.2962976     -5.77598    4396.9418            2 
   14600    1.3378481   -5.7754995    4379.5506            2 
   14700    1.3402999     -5.76082    4368.4661            3 
   14800    1.3166466   -5.7346466    4378.8263            3 
   14900    1.2773359   -5.7005084    4411.4362            2 
   15000    1.3396322    -5.728431    4407.5859            4 
   15100    1.2957855   -5.7205798    4407.1937            3 
   15200    1.3079981   -5.7426907    4393.1816            4 
   15300    1.3082452   -5.7666115    4376.8419            4 
   15400    1.2955329   -5.7620677    4354.4081            4 
   15500    1.3162711   -5.7488133    4382.5049            3 
   15600    1.3040359   -5.7413923    4380.2357            4 
   15700     1.288593   -5.7575924    4377.6426            4 
   15800    1.3149032   -5.7409599    4405.3094            3 
   15900    1.2803419   -5.7289167    4409.9022            2 
   16000    1.3431161   -5.7244044    4385.1373            3 
   16100    1.3655736   -5.7158681    4364.9228            4 
   16200    1.3033458   -5.7329323    4393.2189            1 
   16300    1.2969261   -5.7833215    4402.6273            2 
   16400    1.3128213   -5.7263375    4394.8417            3 
   16500    1.3179077   -5.7334406    4379.4779            4 
   16600    1.2973972   -5.7346548    4374.1526            4 
   16700    1.3347082   -5.7516319    4395.7776            3 
   16800    1.3097172   -5.7431229     4394.859            2 
   16900     1.295295    -5.757841     4395.382            2 
   17000    1.3134835   -5.7507907    4393.9854            2 
   17100      1.32259   -5.7159957    4382.1645            3 
   17200    1.3223728    -5.759912    4385.3233            2 
   17300    1.2595328   -5.7329794    4391.1659            1 
   17400    1.3147781   -5.7645015     4398.333            2 
   17500    1.2968394   -5.7567907    4387.7657            5 
   17600    1.3316088   -5.7656865    4372.5095            2 
   17700    1.3188232   -5.6869755    4389.2043            1 
   17800    1.3192321   -5.7323032    4380.0496            2 
   17900    1.2959392   -5.7665516    4388.7312            3 
   18000    1.3100681   -5.7344291    4388.7844            2 
   18100    1.3278438   -5.7694785    4387.1975            2 
   18200    1.2891365   -5.7622657     4399.972            5 
   18300    1.3059797   -5.7557376    4421.9344            2 
   18400    1.3123723   -5.7045413    4414.8835            3 
   18500    1.3357611   -5.7076501    4383.7836            2 
   18600    1.2967732   -5.6996473    4381.3358            2 
   18700    1.3135486   -5.7568941    4372.2349            3 
   18800    1.3068261   -5.7700215    4371.9667            2 
   18900    1.2967657   -5.7061073    4393.1474            7 
   19000    1.3031168   -5.7231069    4388.9988            2 
   19100    1.3152237   -5.7162849    4397.6176            2 
   19200    1.3154769   -5.7229067     4407.155            4 
   19300    1.3011798    -5.737235    4398.4751            4 
   19400     1.313524   -5.7371043    4385.0877            2 
   19500     1.311937   -5.7391668    4371.7912            3 
   19600    1.3063252   -5.7538383    4393.6081            3 
   19700    1.3013782   -5.7338087    4399.8131            3 
   19800    1.2733732   -5.7490914    4394.0057            1 
   19900    1.3285196     -5.74675    4392.6388            3 
   20000    1.3093843   -5.7439515    4391.5743            2 
   20100    1.2914748   -5.7680351    4381.9177            3 
   20200     1.299098   -5.7098738    4381.6542            2 
   20300    1.3192105   -5.7384387    4377.1624            4 
   20400    1.3239441   -5.7533661    4380.3186            6 
   20500    1.3327529   -5.7191438    4403.9883            3 
   20600    1.2854851   -5.7239016    4399.7016            2 
   20700    1.3112602   -5.7358118    4401.9697            1 
   20800    1.3282221   -5.7107647    4395.2788            7 
   20900    1.3417958   -5.7623166    4372.6255            6 
   21000    1.2868975   -5.7277272    4365.8128            5 
   21100    1.3044664   -5.7438276    4382.5623            1 
   21200    1.3103171   -5.7661036    4390.8589            2 
   21300    1.2917827   -5.7946357    4382.9296            3 
   21400    1.3241511   -5.7682305    4378.4318            3 
   21500    1.2721321   -5.7388895    4372.5773            3 
   21600    1.3273637   -5.7608066    4367.8566            3 
   21700    1.3208849   -5.7038791    4397.8516            3 
   21800    1.3188756   -5.7356702    4395.0687            2 
   21900    1.3301951   -5.7601809    4377.5178            3 
   22000    1.3214248    -5.783172    4383.9675            2 
   22100    1.2914542    -5.755877    4397.6743            2 
   22200    1.3094757   -5.7239725    4393.7569            2 
   22300    1.2853774   -5.7416205     4373.447            2 
   22400     1.311344    -5.722057    4376.8518            1 
   22500    1.3279436   -5.7269764    4382.4254            5 
   22600    1.2869122   -5.7543948    4383.7496            1 
   22700    1.2836097   -5.6994288     4400.226            8 
   22800    1.3207856   -5.7412932    4407.8321            2 
   22900    1.3005047   -5.7821314    4396.3443            2 
   23000    1.3051067   -5.7997875    4386.6171            3 
   23100    1.2966702   -5.7190554    4402.7601            3 
   23200    1.2802785   -5.7102657    4395.7401            3 
   23300    1.3078635   -5.7471842    4370.9679            3 
   23400    1.3431496   -5.7532396    4391.3119            3 
   23500    1.2885995   -5.7145243    4398.6407            9 
   23600    1.2978892    -5.728063    4400.0021            5 
   23700    1.3168506   -5.6994235    4391.7065            2 
   23800    1.3063107   -5.7416355    4384.2691            4 
   23900    1.3027037   -5.7286236    4379.6954            3 
   24000    1.3155069    -5.731161    4380.7991            3 
   24100    1.3257471   -5.7707858    4370.2455            4 
   24200    1.2897216   -5.7680349    4363.8581            5 
   24300    1.3048201   -5.7851615    4389.9176            2 
   24400    1.2878569   -5.7582275    4393.3263            3 
   24500    1.3192652   -5.7279795    4402.1366            4 
   24600    1.3253102   -5.7037292    4389.8319            4 
   24700    1.3490794   -5.6699266    4402.2306            2 
   24800    1.3235793   -5.7480513     4395.264            2 
   24900     1.311996    -5.770686    4373.6493            3 
   25000    1.2931323   -5.7430062    4374.7374            2 
   25100    1.3042953   -5.7500092    4384.0876            2 
   25200    1.3596704   -5.7923327    4387.4038            4 
   25300     1.277828    -5.740844    4384.9627            3 
   25400    1.3485042    -5.778786    4381.7172            1 
   25500    1.2996822   -5.7947409    4385.5338            4 
   25600    1.3136294   -5.7720628    4398.6077            3 
   25700    1.3002509   -5.7299818    4405.9269            2 
   25800    1.3057726    -5.760148    4373.9949            4 
   25900    1.3268889   -5.7660169    4362.3433            2 
   26000    1.3498934   -5.7344244    4366.8701            4 
   26100     1.281653   -5.7230106    4398.5952            2 
   26200    1.3022278   -5.7744691    4396.6888            3 
   26300    1.3560039   -5.8139332    4389.8485            4 
   26400    1.3049284   -5.7498427    4387.0125            7 
   26500    1.3117818   -5.7644264     4383.866            4 
   26600     1.330077   -5.7445336    4395.6174            2 
   26700    1.2756636   -5.7494015    4396.1015            2 
   26800    1.3365304   -5.7909476    4394.8315            5 
   26900    1.2837414   -5.7646123     4379.135            3 
   27000    1.2979289   -5.7846971    4368.2991            4 
   27100    1.3164221   -5.7458094    4382.2699            3 
   27200    1.2955299   -5.7426946    4396.9712            4 
   27300    1.2935666   -5.7472475    4417.5942            2 
   27400    1.3021496   -5.7698521    4391.1203            6 
   27500    1.3332002   -5.7671432    4368.3578            4 
   27600    1.3356505   -5.7350964    4401.3103            2 
   27700    1.3095561   -5.7217946    4398.1693            2 
   27800    1.3019029   -5.7399017    4389.4485            4 
   27900    1.3317293   -5.7402427    4404.7677            3 
   28000    1.2890707   -5.7204816    4385.6883            3 
   28100    1.2974748   -5.7458463    4377.2779            2 
   28200    1.3358224   -5.7470661    4391.7496            2 
   28300    1.3080243   -5.7060217    4376.6997            2 
   28400    1.2741831   -5.7102691    4399.7663            5 
   28500    1.3054207   -5.7353232    4412.4796            3 
   28600    1.3488743    -5.721415    4417.1154            2 
   28700    1.3150886   -5.7047405    4403.5504            3 
   28800    1.3016131   -5.7246009    4397.1519            3 
   28900    1.2884168   -5.7352427    4392.5159            2 
   29000    1.3185282   -5.7292441    4381.5623            6 
   29100    1.2928603   -5.7470029    4388.5888            3 
   29200    1.2998729   -5.7878825    4379.5586            6 
   29300    1.3050903   -5.7992674    4378.5357            4 
   29400    1.3186363   -5.7736802     4382.788            9 
   29500    1.3209563   -5.7682728    4365.3244            6 
   29600    1.3132521   -5.7661758    4355.5662            1 
   29700    1.3098023     -5.71892    4407.8134            1 
   29800    1.2981933   -5.7099117    4401.1098            2 
   29900    1.3108222   -5.7487839    4391.6816            2 
   30000    1.3076032   -5.7201468    4392.1738            5 
   30100      1.32824    -5.712507    4397.0038            5 
   30200    1.3200887   -5.7199467    4383.4338            2 
   30300    1.2925594   -5.7101167      4388.89            3 
   30400    1.2709929   -5.7304814    4383.9328            4 
   30500    1.3108641   -5.7380859    4371.6104            3 
   30600    1.3419972   -5.7347681    4360.2666            1 
   30700    1.3010355   -5.7389301    4385.3136            4 
   30800    1.2991113   -5.7158188    4418.7979            2 
   30900    1.3302735    -5.753372    4410.1325            2 
   31000    1.2991505   -5.7212784    4394.8158            1 
   31100     1.303943   -5.7257426    4390.2552            2 
   31200    1.3049903   -5.6803939    4386.8591            2 
   31300    1.3241193    -5.735967    4387.1931            2 
   31400    1.3116496   -5.7479553    4369.5565            2 
   31500    1.2875599   -5.7113907    4386.1077            2 
   31600    1.3216362   -5.7333355    4406.6375            2 
   31700    1.2909254   -5.7436594    4383.5225            2 
   31800    1.3293772   -5.7817361    4369.5633            3 
   31900    1.2961893   -5.7852369    4370.9262            5 
   32000    1.2983025   -5.7516064    4407.9651            1 
   32100    1.3131595   -5.7556641    4397.0829            3 
   32200    1.3120126   -5.7757342      4357.12            4 
   32300    1.3198298   -5.7349489    4355.9371            3 
   32400    1.3023165   -5.7672797    4376.9111            2 
   32500    1.2975111   -5.7513359    4404.6905            2 
   32600    1.3185091   -5.7537915    4394.8303            3 
   32700    1.3412086   -5.7351956     4388.207            3 
   32800    1.3057118   -5.7063973    4413.9053            4 
   32900    1.3013439   -5.7155553    4413.0272            2 
   33000    1.2885532   -5.7388292    4395.3966            6 
   33100    1.3267035    -5.763581    4387.6021            5 
   33200    1.3142903   -5.7542031    4391.7745            2 
   33300    1.3101151   -5.7525561    4389.2254            2 
   33400    1.2922695   -5.7692141    4374.1842            6 
   33500    1.3196131   -5.7251459    4374.5084            1 
   33600    1.3159934    -5.720089    4367.0261            3 
   33700    1.3462529   -5.7215861    4378.6096            3 
   33800    1.3044947   -5.7111528    4400.5352            1 
   33900    1.2987302   -5.7472224     4401.313            2 
   34000    1.2926517   -5.7493948    4377.8534            3 
   34100    1.3309225   -5.7499163    4390.2641            3 
   34200    1.3018723   -5.7657228    4385.6355            2 
   34300    1.3029546   -5.7273627    4390.6871            1 
   34400    1.3244663   -5.7375526    4409.9691            2 
   34500    1.3071576   -5.6965157    4409.8934            3 
   34600    1.3113672   -5.7410557    4383.5842            4 
   34700    1.3210678    -5.752439    4374.7602            2 
   34800    1.3109191   -5.7481363     4396.865            2 
   34900    1.3221268    -5.769318    4412.0197            3 
   35000    1.3027368   -5.7820378    4384.1805            4 
   35100    1.3001772   -5.7344378    4392.4277            3 
   35200    1.3310204   -5.7460014    4409.9826           10 
   35300    1.2967221   -5.7256415    4387.3928            1 
   35400    1.3162405    -5.746147    4378.5969            2 
   35500    1.3042983    -5.733037    4382.7122            2 
   35600    1.2850156    -5.744806    4385.8984            2 
   35700    1.3011098   -5.6999358    4389.6694            4 
   35800    1.3338883   -5.7295894    4393.2841            3 
   35900    1.3073588   -5.7579673    4373.6206            1 
   36000    1.2971119   -5.7593759    4392.8282            3 
   36100    1.3127814   -5.7366879    4406.7999            3 
   36200    1.2905437   -5.7502619    4408.3915            7 
   36300    1.3173688   -5.7254077    4387.7907            6 
   36400    1.2917867   -5.7249988    4383.5847            5 
   36500    1.3062407   -5.7570392    4373.3359            3 
   36600     1.309624   -5.7392718    4392.5704            2 
   36700    1.3360881   -5.7355231    4406.7679            4 
   36800    1.3056933   -5.7565906    4385.6277            4 
   36900    1.3049151   -5.7712048    4369.5835            2 
   37000    1.3155833   -5.7830977    4356.2936            3 
   37100      1.28443   -5.7217244    4386.7592            6 
   37200    1.3124294   -5.7198277    4381.0337            3 
   37300    1.3164209   -5.6806413    4386.6498            3 
   37400     1.326539   -5.7155304    4405.7773            1 
   37500    1.2920374   -5.7395693    4403.6122            1 
   37600    1.2965338   -5.7396473    4398.8952            2 
   37700    1.3372897   -5.7507191    4396.0834            3 
   37800    1.3070285   -5.7172972    4386.9431            3 
   37900    1.3051635   -5.7264618    4367.4204            2 
   38000    1.3277772   -5.7084337    4388.7801            4 
   38100    1.3090133   -5.7363954    4396.3381            2 
   38200    1.2838494   -5.7328964     4407.101            4 
   38300    1.3155099    -5.728625     4406.744            4 
   38400    1.3143216   -5.7205933    4394.7478            3 
   38500     1.311069   -5.7643028    4393.9284            4 
   38600     1.311844   -5.7571212    4393.7698            4 
   38700    1.3172085   -5.7084707    4406.2595            3 
   38800    1.3275048   -5.7416262      4389.15            4 
   38900    1.3052554   -5.7509777    4366.4779            2 
   39000    1.3290814    -5.761784     4378.449            2 
   39100    1.3051947   -5.7268629     4391.453            3 
   39200    1.3118569    -5.774807    4383.1834            2 
   39300    1.2852222   -5.7642645    4377.7848            8 
   39400     1.319558   -5.7395164     4378.489            4 
   39500     1.328051   -5.7496288    4389.7342            3 
   39600     1.304753   -5.7135737    4417.5417            3 
   39700    1.2940399   -5.7465345     4400.777            2 
   39800    1.3447203   -5.7337001    4388.9068            2 
   39900    1.3333029    -5.726627    4380.2982            3 
   40000    1.3120891   -5.7829034    4383.3949            1 
   40100    1.3031004    -5.721834    4397.7478            4 
   40200    1.3140448   -5.7165893    4421.3343            3 
   40300    1.2826667   -5.7245733    4412.3035            5 
   40400    1.3100416   -5.7100399    4388.9122            4 
   40500    1.3143797   -5.7589392     4371.994            3 
   40600    1.3244334   -5.7619372     4374.486            2 
   40700    1.2772887   -5.7399496    4406.6396            2 
   40800    1.3133516   -5.7305397    4406.9584            2 
   40900    1.3037499    -5.736003    4394.4979            5 
   41000    1.3055523   -5.7366905    4388.2119            2 
   41100    1.3211237   -5.7496653    4384.8289            1 
   41200    1.3154006   -5.6955133    4403.6187            3 
   41300    1.3081829   -5.7356384    4400.2817            3 
   41400    1.3132702   -5.7409613    4374.9984            3 
   41500    1.3001791   -5.7305135    4372.9968            4 
   41600      1.28385   -5.7250337    4392.7151            2 
   41700    1.3198436   -5.7385428    4389.5102            4 
   41800    1.3115271   -5.7492845    4381.8411            4 
   41900    1.3007032   -5.7440113    4396.1054            4 
   42000    1.2991736    -5.739962    4414.7328            2 
   42100    1.3219053   -5.7366262    4411.4273            4 
   42200    1.3058577   -5.7014096    4395.1584            1 
   42300    1.3406974   -5.7390347    4373.8713            2 
   42400    1.3175642   -5.7775797    4373.3049            4 
   42500    1.3279527   -5.7432201    4395.1809            3 
   42600     1.297665   -5.7563694    4398.6462            3 
   42700    1.3193583   -5.7678992    4392.2792            3 
   42800    1.2950446   -5.7406006    4400.0324            4 
   42900    1.3251301   -5.7539076    4405.7244            2 
   43000    1.2823362   -5.7496928    4403.5328            3 
   43100    1.3186639   -5.7344874    4387.2629           11 
   43200     1.320423   -5.6789929    4423.0829            3 
   43300    1.3095024   -5.7245777    4403.3536            3 
   43400    1.3139941   -5.7471945    4388.3872            8 
   43500    1.2828209   -5.7709434    4363.4906            3 
   43600    1.3058698   -5.7469275    4364.6471            2 
   43700    1.3173907   -5.7505916    4382.4172            4 
   43800    1.2724115    -5.719352    4397.2151            2 
   43900    1.3157811   -5.7201141    4391.3709            3 
   44000    1.3086802   -5.7081906    4380.3405            4 
   44100    1.3139291   -5.7634615    4376.7355            3 
   44200    1.2937574   -5.7508242    4387.1631            3 
   44300    1.3304853   -5.7382591    4392.1976            4 
   44400    1.2706306   -5.7156729    4379.3619            6 
   44500    1.3152687   -5.7461426    4377.3738            1 
   44600     1.320209    -5.721662    4397.6653            7 
   44700    1.2805542   -5.7134794    4407.5095            2 
   44800    1.3171925   -5.7494754    4392.4855            5 
   44900    1.3342545   -5.7594983    4374.5748            3 
   45000    1.2900125   -5.7474314    4385.7728            2 
   45100    1.3195391   -5.7759489    4406.1608            2 
   45200    1.2894707   -5.7698998    4396.5658            2 
   45300    1.3168236   -5.7718499    4390.0295            2 
   45400    1.3351555   -5.7594686    4378.8304            6 
   45500     1.316721   -5.7367061    4379.2836            3 
   45600    1.3029058   -5.7490766    4400.3422            2 
   45700    1.3116246   -5.7252758    4416.8638            3 
   45800    1.3249699   -5.7299766    4407.9676            2 
   45900    1.3230733   -5.7651556     4387.514            3 
   46000    1.3065211   -5.7601419    4380.3754            3 
   46100     1.317999   -5.7460856    4388.4462            2 
   46200    1.3033103   -5.7082524    4400.4885            1 
   46300    1.3058257   -5.7786357    4380.3024            7 
   46400    1.3161828   -5.7587771    4389.7819            4 
   46500    1.3339748   -5.7832766    4387.3334            2 
   46600    1.2966292   -5.7714398    4414.4458            2 
   46700    1.3058714   -5.7566086     4399.866            2 
   46800    1.2961389   -5.7438232     4364.892            4 
   46900    1.3097399   -5.7483251    4361.0066            5 
   47000    1.3186323   -5.7445402    4375.8156            3 
   47100    1.3257265   -5.7161809    4402.9231            3 
   47200    1.3192354   -5.7318611    4396.2704            4 
   47300    1.2951021    -5.731692    4396.7624            3 
   47400    1.2965772   -5.7206851    4386.2562            3 
   47500    1.3163106   -5.7686941    4375.9742            3 
   47600    1.3163702   -5.7648323     4395.679            3 
   47700    1.3150206   -5.7615963     4391.249            2 
   47800    1.3193914    -5.743774    4372.7054            7 
   47900    1.2985353   -5.7734486    4369.4383            5 
   48000    1.2708239   -5.7845501     4365.364            3 
   48100    1.3164234   -5.7727204    4369.4557            2 
   48200    1.3403955   -5.7467932    4376.1577            3 
   48300    1.3087452   -5.7401554    4402.5742            4 
   48400    1.2803084   -5.7093393     4396.207            2 
   48500    1.3526258   -5.7573332    4383.9795            4 
   48600    1.3010995   -5.7520249    4391.8171            2 
   48700    1.3005829   -5.7606413    4396.0958            1 
   48800    1.2853666   -5.7684628    4380.4378            3 
   48900    1.3223889    -5.749785    4394.3513            8 
   49000    1.2892897   -5.7328491    4394.9115            2 
   49100    1.3181059   -5.7535059    4393.5916            4 
   49200    1.3285066   -5.7121681    4394.9718            2 
   49300    1.3039283   -5.7459631    4380.0552            3 
   49400    1.3181127   -5.7481389    4372.1939            3 
   49500    1.3132478   -5.8080237    4376.5645            2 
   49600    1.2790418   -5.7569421    4399.9588            3 
   49700    1.2940408   -5.7272382    4415.8123            2 
   49800    1.3368107   -5.7575672    4403.9275            3 
   49900    1.3177377   -5.7487208     4388.784            6 
   50000     1.318565   -5.7450741    4374.5545            4 
   50100    1.3257948   -5.7634219      4390.14            2 
   50200    1.2899018    -5.700981    4402.8918            3 
   50300    1.3179762   -5.7435789    4390.4531            1 
   50400    1.3167553   -5.7401542    4389.8638            4 
   50500    1.2944128   -5.7665488    4386.7897            1 
   50600    1.3202902   -5.7709086     4377.149            2 
   50700    1.3214782   -5.7216389    4400.9815            3 
   50800      1.31271   -5.7533426     4384.841            4 
   50900    1.3147413   -5.7481027    4378.4419            3 
   51000    1.3049857   -5.8030307    4385.0594            3 
   51100    1.2958595   -5.7624916    4402.6312            2 
   51200    1.3106298   -5.7533542    4398.9386            4 
   51300    1.2917766   -5.7490914    4381.6338            3 
   51400    1.2984279   -5.7246165     4365.939            7 
   51500    1.3298374   -5.7438667    4373.5343            2 
   51600    1.3013228   -5.7799849    4374.6349            1 
   51700    1.3126297   -5.7430618    4373.3259            2 
   51800    1.2797928   -5.7878089    4372.8029            4 
   51900    1.2748744   -5.7748681     4373.743            4 
   52000    1.3188237   -5.7606091    4389.3021            4 
   52100    1.2855756   -5.7302486    4387.7982            3 
   52200    1.3056315   -5.7751517    4380.0222            7 
   52300    1.3121329    -5.742524    4388.5279            2 
   52400    1.3000308   -5.7894319    4381.2294            2 
   52500    1.3138801   -5.7509068    4388.7788            1 
   52600    1.3147926   -5.7429987    4386.6882            2 
   52700    1.3130031    -5.731268    4400.3787            2 
   52800    1.3121317   -5.7017237    4406.7437            3 
   52900    1.2918769   -5.7396591    4386.3075            4 
   53000    1.3224099   -5.7384035     4377.347            2 
   53100    1.2741368   -5.7522762    4384.2569            1 
   53200    1.3219748   -5.7762273    4387.0341            4 
   53300     1.326152   -5.7017522    4390.0481            3 
   53400     1.308455   -5.7285556    4383.9648            2 
   53500     1.322248   -5.7655333    4376.6869            8 
   53600    1.3017549   -5.7801848    4377.2152            2 
   53700    1.2987868   -5.7298488    4411.8863            3 
   53800    1.3077733   -5.7284373    4396.2867            3 
   53900    1.3541323   -5.7567203    4378.4945            6 
   54000    1.2826399    -5.735518    4386.2465            5 
   54100    1.3006287   -5.7240582    4399.4167            2 
   54200    1.3444737   -5.7451126    4396.8696            2 
   54300    1.2972657   -5.7321245    4374.6356            3 
   54400    1.3123306   -5.7343602    4380.5592            1 
   54500    1.3458465   -5.7321944    4389.6854            2 
   54600     1.310221   -5.7465903     4385.064            3 
   54700    1.2922444   -5.7651472    4389.4068            1 
   54800    1.3077587   -5.7210574    4390.8009            3 
   54900    1.3004018   -5.7410197    4384.3424            3 
   55000    1.2850095   -5.7520045     4387.781            3 
   55100    1.3107094   -5.7356586    4389.2781            1 
   55200    1.3327991   -5.7368119    4390.3859            4 
   55300    1.3155084   -5.7503268    4405.4473            3 
   55400    1.2898723   -5.7710638    4386.4615            6 
   55500     1.306177   -5.7563132    4390.7468            1 
   55600    1.3068257   -5.6926536    4392.5671            1 
   55700    1.3396741   -5.7517867    4373.7053            1 
   55800    1.2960267   -5.7468116    4369.9716            4 
   55900    1.3199556   -5.7640235    4394.3978            2 
   56000    1.2852763   -5.7427977    4399.2137            3 
   56100    1.3376562   -5.7498388    4383.0387            6 
   56200    1.3032301   -5.6850149    4390.1421            2 
   56300    1.3172675   -5.7463635    4370.7013            4 
   56400    1.2977799   -5.7633053    4377.1061            3 
   56500    1.3141882    -5.768998    4398.8875            3 
   56600    1.3184451   -5.7851461    4387.3512            5 
   56700    1.2935287   -5.7562558    4388.9481            1 
   56800    1.3326281    -5.744026    4404.8747            3 
   56900    1.3173939   -5.7125075    4402.8632            3 
   57000    1.3241028   -5.7466078    4378.9428            2 
   57100    1.3034204    -5.721677    4382.6948            3 
   57200    1.3073191   -5.7498843    4395.5312            2 
   57300    1.3126049   -5.7445862    4398.1795            2 
   57400    1.3349379    -5.750973    4387.9494            2 
   57500    1.2976358   -5.7555342    4395.0198            3 
   57600    1.3119494   -5.7601836    4407.1899            8 
   57700     1.325939    -5.699467    4404.4531            7 
   57800    1.3146753   -5.7266789    4387.0725            2 
   57900    1.3048931     -5.75936    4394.5833            2 
   58000    1.3051103   -5.7183051    4402.9935            3 
   58100    1.3340493   -5.7313513    4402.1175            3 
   58200    1.2984916   -5.7237516    4403.9452            5 
   58300    1.3204478    -5.719538    4399.6198            4 
   58400    1.3061436   -5.7144019    4399.2416            4 
   58500    1.2999354    -5.748946    4372.2793            2 
   58600     1.336989   -5.7530546    4376.6362            3 
   58700    1.2762544   -5.7114814    4415.6148            3 
   58800    1.3198617   -5.7381848    4399.5965            6 
   58900    1.3096622   -5.7620682    4373.2149            4 
   59000    1.3240736   -5.7836128    4364.2762            4 
   59100    1.3209881   -5.7385003     4383.285            4 
   59200    1.3111671   -5.7285389    4399.1505            4 
   59300    1.2794056   -5.7321203    4387.8807            3 
   59400    1.3156248   -5.7876896    4378.7769            1 
   59500    1.3139851   -5.7158297    4391.6324            2 
   59600    1.3016467   -5.7203468    4389.6781            3 
   59700    1.2931249   -5.7414104    4379.8189            2 
   59800    1.2930367   -5.7292003    4384.0296            3 
   59900    1.3491575   -5.7607907    4391.3397            3 
   60000    1.3214972   -5.7577262    4390.6111            4 
   60100    1.2940972   -5.7846029     4393.029            5 
   60200    1.3080414   -5.7419522    4381.7076            2 
   60300     1.306646   -5.7624959    4388.3346            2 
   60400    1.3343087    -5.745722    4398.1725            2 
   60500    1.3028908    -5.750116    4376.0795            3 
   60600    1.3250892   -5.7902675    4391.7666            3 
   60700    1.2804262   -5.7743099    4395.1358            6 
   60800    1.2982654   -5.7580735     4382.448            4 
   60900    1.3062589   -5.7676658    4381.5974            3 
   61000    1.3197999   -5.7370896    4397.3937            5 
   61100    1.3364504   -5.7500022    4395.6228            4 
   61200    1.2923202    -5.746998    4394.5882            2 
   61300    1.3100658   -5.7383141    4386.8446            3 
   61400    1.2888608   -5.7477263    4395.5886            2 
   61500    1.3181535   -5.7111859    4393.5277            4 
   61600    1.3092753   -5.7351303    4380.3479            1 
   61700    1.3145198   -5.7331281    4383.5429            2 
   61800    1.2995795    -5.769097    4392.2973            1 
   61900    1.3428446   -5.7807798    4385.2054            4 
   62000    1.3179939   -5.7901957    4391.4725            3 
   62100    1.3104331   -5.7859747    4381.3533            3 
   62200    1.3333668   -5.7432494    4380.6965            4 
   62300    1.3147759   -5.7324416    4379.2925            3 
   62400    1.3117504   -5.7586019    4376.7656            3 
   62500    1.3268411   -5.7327557    4386.2363            5 
   62600    1.3091373   -5.7328687    4385.3782            3 
   62700    1.2938279   -5.7774262    4380.7843            3 
   62800    1.3031196   -5.7334974    4388.8971            2 
   62900    1.3159119   -5.6899237    4379.4917            6 
   63000    1.2914321   -5.6727156     4383.462            4 
   63100    1.3162273   -5.7183817    4401.4249            5 
   63200    1.3076223   -5.7414305    4389.1926            2 
   63300     1.310627   -5.7692623    4389.0286            1 
   63400    1.2926607   -5.7493216    4375.8617            3 
   63500    1.3001732   -5.7063865    4401.2651            4 
   63600    1.3090138    -5.743527    4404.5933            1 
   63700      1.29477   -5.7862422    4384.1837            2 
   63800    1.3131171    -5.793347     4370.683            2 
   63900    1.3326074   -5.7660328    4373.1749            2 
   64000    1.3050252   -5.7539944    4374.8953            2 
   64100    1.3053461   -5.7676605     4380.888            3 
   64200    1.3213889    -5.731074    4391.4934            3 
   64300    1.2891893   -5.7322945    4392.2766            3 
   64400    1.3227259   -5.7349607    4380.3537            2 
   64500    1.3048576   -5.7460319    4403.0881            2 
   64600    1.2997917   -5.7596382    4394.5144            1 
   64700    1.3234809    -5.740656    4379.8316            2 
   64800     1.343241   -5.7112821    4383.1128            3 
   64900    1.3110153   -5.7366197    4393.1028            2 
   65000    1.3009465   -5.7928424    4377.0114            2 
   65100    1.2944576   -5.7701062    4386.4533            2 
   65200    1.3116225   -5.7382183     4398.605            2 
   65300    1.3416351    -5.744856    4386.6129            2 
   65400    1.3094044   -5.7565968    4389.8437            3 
   65500    1.3176778   -5.7143068    4416.4668            3 
   65600    1.3174051   -5.7054164     4419.171            4 
   65700     1.296639   -5.7050744    4398.4171            3 
   65800    1.3506276   -5.7341522    4381.8365            4 
   65900     1.290075   -5.7188492    4381.0554            1 
   66000    1.3066286    -5.717944    4402.0397            1 
   66100    1.3156532   -5.7467791    4396.3881            3 
   66200    1.3169649   -5.7784749    4376.3547            2 
   66300    1.3085756      -5.7381    4384.6591            2 
   66400    1.3356047   -5.7431274    4398.5575            3 
   66500    1.2847002    -5.746496    4405.3171            2 
   66600    1.3112243   -5.7178156    4397.5724            2 
   66700    1.3177743   -5.7297304    4394.1719            2 
   66800    1.2860022   -5.7299905    4382.0982            2 
   66900       1.3217   -5.7142866    4400.3727            3 
   67000    1.3441653   -5.7290571    4419.0474            4 
   67100    1.3000616   -5.7128803    4383.7093            2 
   67200     1.306705   -5.7646887    4379.9863            2 
   67300    1.3223579   -5.7716686    4388.9928            2 
   67400    1.3101152   -5.7565442    4390.5213            2 
   67500    1.3032032   -5.7630893    4379.0259            3 
   67600    1.3217439   -5.7346457    4389.4173            5 
   67700    1.3230493    -5.760802    4398.2364            1 
   67800    1.3212649   -5.7507844    4393.8786            7 
   67900    1.3065828   -5.7685818    4398.8551            1 
   68000    1.2779259   -5.7639585    4400.3185            3 
   68100    1.3291365   -5.7714594    4375.8102            4 
   68200    1.3349225   -5.7156414    4380.9177            4 
   68300    1.3169502   -5.7116777    4387.8854            2 
   68400    1.3025635   -5.7565552    4393.7889            6 
   68500    1.3397899   -5.7484331    4411.5725            3 
   68600    1.3137741   -5.7657991    4398.1331            4 
   68700    1.3097739   -5.7866985    4386.7718            8 
   68800    1.3124882   -5.7274285    4388.9073            2 
   68900    1.3112333   -5.7259387    4402.3761            2 
   69000    1.2770014   -5.7266225     4390.391            2 
   69100    1.3356106   -5.7511273    4381.5023            1 
   69200     1.294948   -5.7444457    4391.4855            4 
   69300    1.3233719   -5.7514302    4403.6665            5 
   69400    1.3051554   -5.6798211     4411.836            5 
   69500    1.3305148   -5.6978276     4402.386            3 
   69600    1.3004031   -5.7100265    4388.0052            5 
   69700    1.3110202   -5.7254424    4389.0141            3 
   69800    1.3224606   -5.7289865    4406.0655            4 
   69900    1.2973439    -5.728311    4387.5172            2 
   70000    1.3108158   -5.7747553    4368.0107            2 
   70100    1.2781924   -5.7717551    4394.8839            2 
   70200    1.3252244   -5.7877447    4392.9638            1 
   70300    1.3395085   -5.7187485    4373.8838            2 
   70400      1.33141   -5.7237719    4371.7268            2 
   70500    1.2997707   -5.7354336    4380.3289            4 
   70600     1.276476    -5.770487    4389.7863            5 
   70700    1.3122119   -5.7549243    4395.3473            4 
   70800    1.3124705   -5.7270123     4393.789            3 
   70900    1.3300606   -5.7661677    4372.8349            5 
   71000    1.2961076   -5.7646447     4368.692            4 
   71100     1.307896   -5.7508886    4390.1602            1 
   71200    1.3402477   -5.7298883    4404.6325            2 
   71300    1.2954907   -5.7217502    4392.8482            2 
   71400     1.309144   -5.7494219    4385.8004            1 
   71500    1.2840226   -5.7298477    4391.5671            3 
   71600    1.3057448   -5.7011287    4413.4783            2 
   71700    1.2897251   -5.7281065     4412.513            3 
   71800    1.3143205   -5.7556885    4377.4617            3 
   71900    1.3263614   -5.7685746    4360.9655            6 
   72000    1.2878115   -5.7947048    4354.9681            6 
   72100    1.3003038   -5.7730707    4386.8267            2 
   72200     1.280336   -5.7295141    4391.5437            6 
   72300    1.3383652   -5.7337558    4392.1336            2 
   72400    1.3196278   -5.7071602    4397.1633            3 
   72500    1.2881628   -5.7101005     4388.273            1 
   72600    1.3311345    -5.729901    4399.7018            1 
   72700    1.3114189   -5.7613539    4392.5548            2 
   72800    1.3038216   -5.7739625    4405.3674            7 
   72900    1.2988064   -5.7331822    4401.3403            1 
   73000    1.3060403   -5.7614613    4359.9151            2 
   73100    1.3305391   -5.7473053    4372.5076            3 
   73200    1.3016459   -5.7261178    4387.7448            2 
   73300    1.2877673   -5.7147926    4392.1392            3 
   73400    1.3339036   -5.7340685    4389.5044            3 
   73500    1.3072178   -5.7367432    4372.2461            2 
   73600    1.2870642   -5.7834779    4361.7228            2 
   73700    1.2854432    -5.772499    4389.0211            1 
   73800     1.319088   -5.7560983    4390.5227            1 
   73900     1.317639   -5.7620236    4377.2456            3 
   74000    1.3308728   -5.7712774    4365.6161            4 
   74100    1.3104316   -5.7523373     4402.557            4 
   74200    1.3061303   -5.7336689     4403.871            1 
   74300    1.2992777   -5.7678077    4378.4577            2 
   74400    1.3208878   -5.7586997    4382.0863            5 
   74500    1.2976495    -5.726901    4385.0182            4 
   74600    1.3142321   -5.7232864    4400.3021            3 
   74700    1.3133604   -5.7156722    4407.9989            2 
   74800    1.3018216   -5.7578863     4392.578            1 
   74900    1.2877911   -5.7463799    4398.8795            4 
   75000    1.3188759   -5.7329444    4395.2195            1 
   75100    1.3053473   -5.7635999      4378.32            2 
   75200    1.2955096   -5.7452366    4378.5376            3 
   75300    1.3331664   -5.7454241    4378.2056            4 
   75400    1.3145699   -5.7645368    4377.6525            6 
   75500    1.2936486     -5.77711    4394.0531            3 
   75600    1.3094459   -5.7478424    4411.3911            3 
   75700    1.3246472   -5.7378721    4389.3624            3 
   75800    1.3110136   -5.7641396    4388.4368            3 
   75900    1.3094666   -5.7436522    4400.7942            5 
   76000    1.3396054   -5.7311586    4434.4013            5 
   76100    1.3059877   -5.7260332    4409.1149            3 
   76200    1.3262591   -5.7428585    4382.8381            4 
   76300    1.3157101   -5.7510403    4385.9845            3 
   76400    1.3095845   -5.7483564    4394.3837            3 
   76500    1.3317691    -5.772391    4397.4763            2 
   76600    1.2934872   -5.7131578    4426.4669            2 
   76700     1.316156   -5.7050329    4418.2813            2 
   76800    1.3119865   -5.7258117    4399.2442            2 
   76900    1.3252084   -5.7444456    4390.1408            1 
   77000    1.3083599   -5.7522542    4386.3716            3 
   77100    1.3208694   -5.7172187    4397.5401            2 
   77200    1.3344156   -5.7329947    4407.5446            2 
   77300    1.3092514   -5.7640401    4403.8811            1 
   77400    1.3158958   -5.7295859    4402.0054            2 
   77500    1.3308159    -5.712743    4406.3943            3 
   77600    1.3136282   -5.7320726    4387.1347            5 
   77700    1.3254296   -5.7362985    4395.6685            3 
   77800    1.3085283   -5.7407246    4411.5976            3 
   77900    1.2603689   -5.7250269     4395.366            2 
   78000     1.335972   -5.7444426    4397.2855            3 
   78100    1.3142895   -5.7306921    4374.0216            3 
   78200    1.3152176   -5.7576864    4379.0345            2 
   78300    1.2820598    -5.735248     4401.319            4 
   78400    1.3071841   -5.7147299    4402.3937            3 
   78500    1.3148328   -5.7615102    4381.2166            1 
   78600    1.2967666    -5.753048    4377.2459            1 
   78700     1.301204   -5.6977411    4376.5473            2 
   78800    1.3327891   -5.7167913    4407.6297            3 
   78900     1.318553   -5.7249171    4413.0961            2 
   79000    1.2960024   -5.7116111    4382.9612            2 
   79100    1.3288369   -5.7746541    4381.7624            5 
   79200    1.3000812   -5.7608769    4385.0504            2 
   79300    1.3053762   -5.7136358    4408.7223            4 
   79400    1.3046058   -5.7105127    4401.6276            3 
   79500    1.3316216   -5.7688975    4370.9482            2 
   79600    1.2957431   -5.7885834    4359.5467            2 
   79700    1.2935825   -5.7596776    4386.1157            2 
   79800    1.3141108   -5.7538081    4400.4883            6 
   79900    1.3135282   -5.7193945    4385.7809            1 
   80000     1.325634   -5.7470189    4379.8965            2 
   80100    1.2936095   -5.7571416     4386.243            5 
   80200    1.2965122   -5.7201725      4420.66            2 
   80300    1.3115228   -5.6877038    4400.9146            3 
   80400    1.2888018   -5.7170075    4382.0865            1 
   80500    1.3300255   -5.7210439    4379.6225            5 
   80600    1.3127929   -5.6747323    4403.0247            2 
   80700    1.3212694   -5.7298286    4417.3863            5 
   80800    1.2864892   -5.7220002       4418.1            2 
   80900     1.298929   -5.7618035    4403.9326            4 
   81000     1.307533    -5.749339    4370.8492            5 
   81100    1.3532217   -5.7388789    4384.7537            2 
   81200    1.3194019   -5.7144194     4398.718            3 
   81300    1.2846241   -5.7304135    4411.6023            2 
   81400    1.3180812   -5.7284473    4406.6455            2 
   81500    1.3377666   -5.7090646    4410.5085            3 
   81600    1.3135785   -5.7142656     4393.328            3 
   81700    1.3106863   -5.7571012    4384.3318            4 
   81800    1.3413849    -5.772322    4383.8029            2 
   81900    1.3035686   -5.7327407    4399.8016            3 
   82000    1.2886273   -5.7846717    4395.8753            2 
   82100    1.2989251   -5.7458877    4413.0369            2 
   82200    1.3301785   -5.7366451    4401.1602            1 
   82300    1.3136362   -5.7213735    4382.2159            2 
   82400    1.3092108   -5.7242746    4365.3909            4 
   82500    1.3161304    -5.771228    4375.5762            3 
   82600    1.3108759   -5.7222127    4409.4355            3 
   82700    1.2927996   -5.7200056    4411.6051            4 
   82800    1.3195139   -5.7434491    4389.6506            3 
   82900    1.3146861   -5.7594418    4371.7605            2 
   83000    1.3144654   -5.7371581    4390.6735            2 
   83100    1.3161354   -5.7331146    4402.7581            3 
   83200    1.3092944   -5.7473675    4395.9192            3 
   83300    1.3074948   -5.7317866    4402.4163            4 
   83400    1.3220756    -5.740025    4394.4423            4 
   83500    1.3043864    -5.744296     4382.927            3 
   83600    1.3414187   -5.7257099    4381.0265            2 
   83700     1.295722   -5.7251806    4373.9428            2 
   83800    1.3149491   -5.7599762    4394.3443            2 
   83900    1.3035273   -5.7319471    4421.1338            3 
   84000    1.3201374   -5.7198202    4409.6914            3 
   84100    1.3169482   -5.7212169    4382.9156            2 
   84200    1.3301434   -5.7383629    4391.5974            3 
   84300    1.2969014   -5.7128313    4398.8344            1 
   84400    1.2842705   -5.7144385    4388.0955            3 
   84500    1.3369387    -5.764397    4366.3634            2 
   84600    1.3060547   -5.7387192    4365.1865            4 
   84700     1.310225    -5.725613    4384.8057            2 
   84800    1.3045244   -5.7355799    4398.8044            2 
   84900    1.2901445   -5.7149102    4399.2644            1 
   85000    1.3035507   -5.7560142    4383.8328            2 
   85100    1.3318838   -5.7289226    4390.7389            3 
   85200    1.3098633   -5.7303916    4391.8461            5 
   85300    1.3041686   -5.7777149    4384.3751            1 
   85400    1.3156471   -5.7771836    4404.8185            4 
   85500     1.306091   -5.7583491    4406.3491            3 
   85600    1.3067293   -5.7430155     4389.279            5 
   85700    1.2989682   -5.7733049    4360.5841            3 
   85800    1.3324742   -5.7704427    4372.4958            3 
   85900    1.2959322   -5.7597199    4378.2697            4 
   86000    1.2875286   -5.7673963    4375.4439            2 
   86100    1.3081146   -5.7793025    4378.0619            2 
   86200    1.3247574   -5.7576557    4398.2681            2 
   86300     1.296334   -5.7392849    4395.3912            2 
   86400    1.3468068   -5.7410586    4395.6617            3 
   86500    1.2937178   -5.6779558    4394.5013            3 
   86600    1.3122316   -5.7449238     4394.234            3 
   86700    1.3127101   -5.7858893    4390.5465            2 
   86800    1.2675276   -5.7525025    4377.0852            4 
   86900    1.3308879   -5.7634632    4387.9284            1 
   87000    1.3097212   -5.7707187    4378.1441            3 
   87100    1.3043807   -5.7854595    4366.8399            4 
   87200    1.2787435   -5.6987114    4394.3416            4 
   87300    1.3131051   -5.7171955    4403.2677            2 
   87400    1.3019792   -5.7714344    4379.4793            2 
   87500    1.3027599   -5.7355375     4392.214            4 
   87600    1.3228592   -5.7413117    4405.4411            2 
   87700     1.325448   -5.7245418    4405.0074            2 
   87800    1.2913708   -5.7415797    4397.6722            3 
   87900    1.3078435   -5.7675378    4380.5364            3 
   88000    1.3302058   -5.7875697    4362.9357            2 
   88100    1.2811529   -5.7776449    4360.8796            3 
   88200    1.3064263   -5.7486628    4380.0112            4 
   88300    1.3269558   -5.7513603    4390.9161            3 
   88400    1.2796378   -5.7498114    4387.8642            2 
   88500    1.3203976   -5.7696052    4384.6456            2 
   88600    1.3269472   -5.7477919    4394.5772            2 
   88700    1.2907531   -5.7652813    4384.8551           10 
   88800     1.286747    -5.758379    4389.0353            1 
   88900    1.3020047   -5.7233918     4393.666            3 
   89000    1.3438121     -5.71994     4402.396            1 
   89100    1.3186453   -5.7172935     4380.547            2 
   89200    1.2884724    -5.699491    4385.3326            3 
   89300     1.300508   -5.7192996    4396.9281            3 
   89400    1.2894352   -5.7486214    4370.9155            3 
   89500    1.3278592   -5.7450915    4376.8642            2 
   89600    1.2934379   -5.7426205    4382.9077            2 
   89700    1.3218461    -5.720457    4397.4137            4 
   89800    1.3275161   -5.7412529    4394.0935            3 
   89900    1.3179858     -5.77477    4395.4269            2 
   90000    1.2826762   -5.7724264    4388.4088            2 
   90100    1.3257145    -5.767237    4370.3777            2 
   90200    1.2922111   -5.7330493    4356.9454            4 
   90300    1.3287563   -5.7411638    4394.6041            3 
   90400    1.2737661   -5.7278751    4406.6266            3 
   90500    1.3143188   -5.7393535    4396.7096            7 
   90600    1.3094682   -5.7467891    4376.8326            3 
   90700    1.3362864   -5.7556484    4371.8548            3 
   90800    1.2923026   -5.7600657    4387.5322            6 
   90900    1.3091373   -5.7384778    4420.1245            3 
   91000    1.3121872   -5.7655585    4387.8272            6 
   91100    1.3393907   -5.7668008    4368.7423            4 
   91200     1.304579   -5.7717157    4373.8648            3 
   91300    1.3014153   -5.7446686     4381.943            5 
   91400    1.3319482   -5.7452195    4398.2564            3 
   91500    1.2851159   -5.7355792    4393.6077            4 
   91600    1.3002795   -5.7335972    4387.3134            2 
   91700    1.3356383   -5.7499192    4384.0786            3 
   91800    1.3032739   -5.7592341    4385.6274            3 
   91900    1.2755302   -5.7970665    4390.1862            3 
   92000    1.3012249   -5.7756056    4396.4231            2 
   92100    1.3052919   -5.7629583    4393.2372            6 
   92200    1.3214763   -5.7270005    4386.5464            2 
   92300    1.3131572   -5.7360976    4392.1973            2 
   92400    1.3199629   -5.7531026    4372.9263            3 
   92500    1.3249221   -5.7159593    4396.4539            4 
   92600    1.3052848   -5.7399023    4396.6316            2 
   92700    1.3047932   -5.7505593    4395.1486            2 
   92800    1.3112676    -5.701231    4393.7967            4 
   92900    1.2767406    -5.732841    4399.6274            2 
   93000    1.2763388    -5.752371    4386.3076            2 
   93100    1.3032932   -5.7185779     4372.138            4 
   93200    1.3470557   -5.7265884     4374.556            2 
   93300    1.2995183   -5.7219977    4397.4407            3 
   93400    1.3264538    -5.773509    4386.3094            4 
   93500    1.3000272     -5.76743    4360.9456            3 
   93600    1.2820703   -5.7585403    4372.8836            2 
   93700    1.3224375   -5.7610727    4384.7997            4 
   93800     1.301606   -5.7655162    4387.2823            5 
   93900     1.293016   -5.7591633    4390.6848            1 
   94000    1.3183789   -5.7498144    4400.3742            5 
   94100    1.3065409   -5.7592376    4386.5328            5 
   94200    1.3139352   -5.7445437    4373.4104            7 
   94300    1.2941918    -5.758918    4376.0624            3 
   94400    1.3256341   -5.7422638    4388.2874            2 
   94500    1.3242005   -5.7425206    4388.7801            3 
   94600    1.2931178   -5.7386537    4375.4283            2 
   94700    1.2761783   -5.7671969    4372.2425            2 
   94800    1.3253512   -5.7751009    4364.4735            6 
   94900    1.2990003   -5.7174769    4396.8336            3 
   95000    1.3092143   -5.7360088    4404.8207            2 
   95100    1.3012782   -5.7513313    4398.8481            2 
   95200    1.2976144   -5.7154749    4378.7175            1 
   95300    1.3343237    -5.711601    4388.2953            1 
   95400    1.3021606   -5.7395166    4373.3648            3 
   95500    1.2865213   -5.7697811    4396.6875            4 
   95600     1.320926   -5.7723692     4395.922            6 
   95700    1.2985219   -5.8019378     4386.673            2 
   95800    1.3004858   -5.7840719    4387.4906            2 
   95900    1.3244084   -5.7700065    4384.1129            3 
   96000    1.3243294     -5.73075    4380.2941            5 
   96100     1.325061   -5.7557177    4390.9948            2 
   96200    1.2902875   -5.7621412    4399.0152            2 
   96300    1.3223224   -5.7545585    4409.2971            1 
   96400    1.3130814   -5.7730442    4389.4802            2 
   96500    1.3126887   -5.7631494    4375.1914            5 
   96600    1.3471365   -5.7536028    4398.8009            2 
   96700    1.3015823   -5.7332691    4392.5538            6 
   96800    1.2870941   -5.7661964    4380.7079            4 
   96900    1.2908448   -5.7180066    4385.6202            4 
   97000    1.3241416   -5.7261955    4377.9392            5 
   97100    1.3151119   -5.7341919    4372.9595            4 
   97200    1.2869237   -5.7346797    4390.1336            4 
   97300    1.3256221   -5.7424187    4399.1101            4 
   97400    1.2748584   -5.7318293    4390.3795            4 
   97500    1.3306139   -5.7437414    4393.5804            4 
   97600    1.3283711   -5.7693123    4394.3172            2 
   97700    1.2668321   -5.7532379    4392.6197            3 
   97800    1.3027946   -5.7475945    4385.9271            5 
   97900    1.3269062   -5.7091333    4387.6629            2 
   98000    1.3166775   -5.6780896    4392.1728            6 
   98100    1.2984738   -5.7394242    4401.7833            5 
   98200    1.3081503   -5.7656859    4397.6575            5 
   98300    1.2812834    -5.778463    4388.0506            3 
   98400    1.3110047   -5.7551119    4384.8917            2 
   98500     1.315907   -5.6944882    4385.4885            4 
   98600    1.2985983   -5.7053458    4394.4022            2 
   98700    1.2937752   -5.7557087    4381.7167            4 
   98800    1.3095888   -5.7833929    4376.8832            5 
   98900    1.3228149   -5.7329781    4396.4603            4 
   99000    1.3009038   -5.7243973    4389.2374            2 
   99100      1.31138   -5.7421202    4390.7717            2 
   99200    1.3191232   -5.7016191    4399.9558            5 
   99300    1.3474516   -5.7362907    4388.9831            2 
   99400    1.2980769   -5.7439131    4386.4486            1 
   99500    1.3032802   -5.6848782     4382.861            3 
   99600    1.3422773   -5.7119499    4384.6609            3 
   99700    1.3075081    -5.729816    4396.6516            2 
   99800    1.2905299   -5.7500561    4400.1064            2 
   99900    1.3293408   -5.7323779    4393.7027            4 
  100000    1.2803279   -5.7056513    4388.8867            4 
  100100    1.2855283   -5.7743166    4373.5132            3 
  100200    1.3048571   -5.7651422     4386.297            2 
  100300    1.3217596   -5.7462684    4381.1649            5 
  100400     1.312843   -5.7550727    4388.8143            2 
  100500    1.3271697   -5.7236211    4410.6188            2 
  100600    1.3240662   -5.7098176    4414.2083            2 
  100700    1.3117182   -5.7504084    4387.9038            4 
  100800    1.3159846   -5.7598223    4387.9433            4 
  100900    1.3251108   -5.7356008    4410.4809            4 
  101000    1.3189058   -5.7814806    4389.9539            2 
  101100    1.3165722   -5.7700052    4393.2533            2 
  101200    1.3232874   -5.7491706    4402.9341            2 
  101300    1.3219291   -5.7559636    4390.0975            4 
  101400     1.301971   -5.7632232    4375.9759            2 
  101500    1.3438744   -5.7825682    4363.7482            3 
  101600    1.2919944   -5.7582018    4358.6521            3 
  101700    1.3030449   -5.7464165    4396.9978            3 
  101800    1.3108161   -5.7087038    4415.8867            1 
  101900    1.3033011   -5.7527545    4392.4473            2 
  102000    1.3171858   -5.7528329    4380.2611            2 
  102100    1.2883698   -5.7451644    4385.0349            2 
  102200    1.3201126   -5.7382598    4384.1013            3 
  102300    1.3465878   -5.7314848    4386.5053            2 
  102400    1.3180787    -5.756835    4386.2647            3 
  102500    1.3230957   -5.7441832    4419.3527            3 
  102600      1.30376   -5.7409463    4430.5011            3 
  102700    1.2953889   -5.7531575    4392.7544            3 
  102800    1.3088759   -5.7541822    4383.0377            2 
  102900    1.3471188   -5.7429756    4373.9516            3 
  103000    1.3084853   -5.7517814    4381.4761            2 
  103100    1.2838448   -5.7688996    4376.2952            5 
  103200    1.3155455   -5.7613118    4374.7187            2 
  103300    1.3003821   -5.7335452    4399.6151            4 
  103400    1.3165262   -5.7245602    4410.7234            1 
  103500    1.2936129   -5.7053644    4394.7897            3 
  103600    1.2851827   -5.7426215    4387.0441            4 
  103700    1.3401635   -5.7408297    4391.5481            2 
  103800    1.3205862   -5.7220773    4374.1305            2 
  103900    1.3335544   -5.7280805    4381.3205            2 
  104000    1.2863345   -5.7075672     4407.974            1 
Loop time of 178.153 on 32 procs for 100000 steps with 4000 atoms

Performance: 96995.436 tau/day, 561.316 timesteps/s
99.7% CPU use with 32 MPI tasks x no OpenMP threads

MPI task timing breakdown:
Section |  min time  |  avg time  |  max time  |%varavg| %total
---------------------------------------------------------------
Pair    | 14.575     | 14.713     | 15.056     |   2.5 |  8.26
Neigh   | 2.1683     | 2.1809     | 2.2456     |   1.1 |  1.22
Comm    | 8.4932     | 9.4783     | 10.575     |  20.3 |  5.32
Output  | 3.8309     | 3.8314     | 3.8425     |   0.1 |  2.15
Modify  | 144.19     | 146.06     | 147.67     |   8.7 | 81.99
Other   |            | 1.886      |            |       |  1.06

Nlocal:        125.000 ave         130 max         118 min
Histogram: 3 0 3 2 5 1 4 6 3 5
Nghost:        1834.31 ave        1861 max        1817 min
Histogram: 1 5 7 7 5 3 0 1 1 2
Neighs:        12926.3 ave       13565 max       12102 min
Histogram: 3 0 4 3 3 3 5 2 6 3
FullNghs:      25851.7 ave       26932 max       24283 min
Histogram: 2 1 3 1 4 3 4 6 3 5

Total # of neighbors = 827255
Ave neighs/atom = 206.81375
Neighbor list builds = 6818
Dangerous builds = 0

#clear
#
#next RN
#
#jump SELF
Total wall time: 0:02:59
