
units lj                  # Use reduced LJ style units
atom_style atomic         # Uncharged point particles
atom_modify map hash      # Needed for indexing of clusters etc
                          # Used to be able to find where atoms are in relation to each other.

# Define a lattice with which to populate the simulation cell. With units
# set to 'lj' the second argument to the lattice command is the reduced
# density rho* and the spacings are multiples of that required to acheive
# that density. Also define a simulation cell called 'box' in lattice units
# and fill it with atoms. Here we're creating a box which is ten lattice
# constants in each direction.
lattice fcc 1.0 spacing 1 1 1                 # All equal sizes - gives the right reduced density.
Lattice spacing in x,y,z = 1.5874011 1.5874011 1.5874011

region box block 0 10 0 10 0 10 units lattice # Defines a region, "box", in lattice units
create_box 1 box                              # Creates a simulation box as specified above,
Created orthogonal box = (0.0000000 0.0000000 0.0000000) to (15.874011 15.874011 15.874011)
  3 by 4 by 4 MPI processor grid
                                              # with one type of atom
create_atoms 1 box                            # Creates particles on lattice points
Created 4000 atoms
  using lattice units in orthogonal box = (0.0000000 0.0000000 0.0000000) to (15.874011 15.874011 15.874011)
  create_atoms CPU = 0.013 seconds


# Set the mass of the first (and only) atom type.
mass 1 1.0

# Lennard-Jones interactions between particles, 3.5 sigma cut-off. Apply
# long range tail corrections to energy and pressure and set all coefficients
# to unity since we work in reduced units here. Note that this doesn't shift
# the potential such that it goes to zero at the cutoff. That would require
# pair_modify('shift', 'yes').
pair_style lj/cut  3.5      # non-GPU version
pair_modify tail  yes
pair_coeff 1  1  1.0  1.0   # Intearaction between 1 and 1 set with epsilon = 1 and sigma = 1

write_data data.*
System init for write_data ...
Neighbor list info ...
  update every 1 steps, delay 10 steps, check yes
  max neighbors/atom: 2000, page size: 100000
  master list distance cutoff = 3.8
  ghost atom cutoff = 3.8
  binsize = 1.9, bins = 9 9 9
  1 neighbor lists, perpetual/occasional/extra = 1 0 0
  (1) pair lj/cut, perpetual
      attributes: half, newton on
      pair build: half/bin/atomonly/newton
      stencil: half/bin/3d
      bin: standard

#############################
#   M E L T   S Y S T E M   #
#############################

velocity all create 2.4 3143649 mom yes dist gaussian # Assign velocities
                                                    # Temperature 2.4, random number seed, zero linear momentum
						                                                        # Gaussian distribution

timestep 0.002   # simulation timestep
thermo 1000       # output thermodynamic data every 1000 steps

# Define a fix  in this case with index 1 applied to all
# particles in the simulation. This fix is for simulations
# in the anisotropic NPT ensemble. Note that we use the MTK
# correction.
fix 1 all npt temp 2.4 2.4 0.1 iso 5.68 5.68 0.5 mtk yes tchain 5 pchain 5 # Use NPT ensemble
                                                                         # Set temperature and pressure and damping
                                                                         # Numbers of thermostats in chain and in barostat
run 1000         # run for 10000 steps
Per MPI rank memory allocation (min/avg/max) = 3.642 | 3.644 | 3.648 Mbytes
Step Temp E_pair E_mol TotEng Press Volume 
       0          2.4   -8.3859253            0   -4.7868253   -2.2405722         4000 
    1000    2.3556826   -4.4218277            0  -0.88918722    5.9178648    5149.9434 
Loop time of 0.215834 on 48 procs for 1000 steps with 4000 atoms

Performance: 800614.373 tau/day, 4633.185 timesteps/s
99.4% CPU use with 48 MPI tasks x no OpenMP threads

MPI task timing breakdown:
Section |  min time  |  avg time  |  max time  |%varavg| %total
---------------------------------------------------------------
Pair    | 0.092241   | 0.099546   | 0.10574    |   1.0 | 46.12
Neigh   | 0.017326   | 0.018594   | 0.020293   |   0.4 |  8.62
Comm    | 0.065126   | 0.073659   | 0.083221   |   1.4 | 34.13
Output  | 2.4886e-05 | 2.6389e-05 | 3.4381e-05 |   0.0 |  0.01
Modify  | 0.020343   | 0.022425   | 0.024527   |   0.8 | 10.39
Other   |            | 0.001583   |            |       |  0.73

Nlocal:        83.3333 ave          91 max          77 min
Histogram: 5 1 7 7 6 11 2 6 0 3
Nghost:        1399.19 ave        1422 max        1377 min
Histogram: 1 1 6 6 12 10 4 2 3 3
Neighs:        7397.58 ave        8529 max        6755 min
Histogram: 5 7 9 9 9 3 3 1 0 2

Total # of neighbors = 355084
Ave neighs/atom = 88.771000
Neighbor list builds = 86
Dangerous builds = 18

# Equilibrate just above the melting temperature to avoid step fn in T

fix 1 all npt temp 1.25 1.25 0.1 iso 5.68 5.68 0.5 mtk yes tchain 5 pchain 5
run 1000
Per MPI rank memory allocation (min/avg/max) = 3.642 | 3.644 | 3.648 Mbytes
Step Temp E_pair E_mol TotEng Press Volume 
    1000    2.3556826   -4.4218277            0  -0.88918722    5.9178648    5149.9434 
    2000    1.2718396   -5.8179173            0   -3.9106348    5.8388957    4340.7158 
Loop time of 0.212634 on 48 procs for 1000 steps with 4000 atoms

Performance: 812662.826 tau/day, 4702.910 timesteps/s
99.7% CPU use with 48 MPI tasks x no OpenMP threads

MPI task timing breakdown:
Section |  min time  |  avg time  |  max time  |%varavg| %total
---------------------------------------------------------------
Pair    | 0.094905   | 0.099263   | 0.10664    |   0.9 | 46.68
Neigh   | 0.015394   | 0.016055   | 0.017394   |   0.3 |  7.55
Comm    | 0.065602   | 0.072983   | 0.080275   |   1.3 | 34.32
Output  | 2.3322e-05 | 2.3964e-05 | 3.1217e-05 |   0.0 |  0.01
Modify  | 0.018941   | 0.022313   | 0.025732   |   1.4 | 10.49
Other   |            | 0.001996   |            |       |  0.94

Nlocal:        83.3333 ave          89 max          77 min
Histogram: 4 4 1 5 6 7 7 6 3 5
Nghost:        1554.81 ave        1572 max        1531 min
Histogram: 1 1 2 6 7 10 4 10 2 5
Neighs:        8780.42 ave        9530 max        7727 min
Histogram: 1 0 5 5 4 10 6 8 6 3

Total # of neighbors = 421460
Ave neighs/atom = 105.36500
Neighbor list builds = 74
Dangerous builds = 4


# Small amount of linear quench

fix 1 all npt temp 1.25 ${temp} 0.1 iso 5.68 5.68 0.5 mtk yes tchain 5 pchain 5
fix 1 all npt temp 1.25 2 0.1 iso 5.68 5.68 0.5 mtk yes tchain 5 pchain 5
run 2000
Per MPI rank memory allocation (min/avg/max) = 3.643 | 3.645 | 3.648 Mbytes
Step Temp E_pair E_mol TotEng Press Volume 
    2000    1.2718396   -5.8179173            0   -3.9106348    5.8388957    4340.7158 
    3000    1.6065265   -5.3880078            0   -2.9788205     5.731036    4568.3437 
    4000    1.9625105   -4.8508617            0   -1.9078319     5.684653     4889.185 
Loop time of 0.434333 on 48 procs for 2000 steps with 4000 atoms

Performance: 795703.231 tau/day, 4604.764 timesteps/s
99.7% CPU use with 48 MPI tasks x no OpenMP threads

MPI task timing breakdown:
Section |  min time  |  avg time  |  max time  |%varavg| %total
---------------------------------------------------------------
Pair    | 0.18595    | 0.19853    | 0.22414    |   1.4 | 45.71
Neigh   | 0.03197    | 0.033108   | 0.037751   |   0.5 |  7.62
Comm    | 0.13087    | 0.1524     | 0.17228    |   1.9 | 35.09
Output  | 4.7945e-05 | 4.9477e-05 | 6.2023e-05 |   0.0 |  0.01
Modify  | 0.037554   | 0.046367   | 0.057857   |   2.4 | 10.68
Other   |            | 0.003873   |            |       |  0.89

Nlocal:        83.3333 ave          90 max          77 min
Histogram: 3 6 4 8 6 4 5 5 3 4
Nghost:        1437.58 ave        1455 max        1422 min
Histogram: 3 5 3 8 8 5 10 2 0 4
Neighs:        7779.44 ave        8567 max        7215 min
Histogram: 7 4 5 10 6 3 4 6 1 2

Total # of neighbors = 373413
Ave neighs/atom = 93.353250
Neighbor list builds = 150
Dangerous builds = 0

#############################
# F R E E Z E  S Y S T E M  #
#############################

# Define solid atoms. This closely follows ten Wolde  Ruiz-Montero and Frenkel  Faraday Discuss  1996  104  93-110
# Compute components of the per-atom q6 vector
compute q6 all orientorder/atom degrees 1 6 components 6 nnn NULL cutoff 1.3 # compute the Q6 parameter.
                                                                             # Use all neighbours within 1.3 unit cell.

# get number of connections
compute coord_number all coord/atom orientorder q6 0.5

# An atom is solid if it has 8 or more connections (of a possible 14)
variable is_solid atom c_coord_number>=8
group solid dynamic all var is_solid    # Must be dynamic to update
dynamic group solid defined

# do clustering
compute cluster solid cluster/atom 1.3 # Create a cluster where all atoms within are solid and max 1.3 units from another member

# define chunks one chunk per cluster
compute clus_chunks solid chunk/atom c_cluster nchunk every compress yes  # Says which atoms are in which chunk

# count the size of each chunk
compute size_chunks solid property/chunk clus_chunks count


# Find the maximum entry in the vector of chunk sizes
variable max_n equal max(c_size_chunks)


# Thermo style which includes this variable
thermo_style custom step temp pe vol v_max_n

thermo ${N}  # Print the thermo information every 100 steps
thermo 1000  

# Reset the npt fix at a lower temperature (below freezing)
fix 1  all npt temp  ${temp} ${temp}  0.1  iso  5.68  5.68  0.5  mtk yes tchain  5  pchain  5
fix 1  all npt temp  2 ${temp}  0.1  iso  5.68  5.68  0.5  mtk yes tchain  5  pchain  5
fix 1  all npt temp  2 2  0.1  iso  5.68  5.68  0.5  mtk yes tchain  5  pchain  5

dump dmp2 all dcd ${N} traj_${rand}.dcd
dump dmp2 all dcd 1000 traj_${rand}.dcd
dump dmp2 all dcd 1000 traj_462431.dcd


# fix rnuntil all halt ${N} v_max_n >= 3980 error soft message no   # Stop when solidified


run 1000000 # 5000000  # Run for this many steps
Neighbor list info ...
  update every 1 steps, delay 10 steps, check yes
  max neighbors/atom: 2000, page size: 100000
  master list distance cutoff = 3.8
  ghost atom cutoff = 3.8
  binsize = 1.9, bins = 9 9 9
  4 neighbor lists, perpetual/occasional/extra = 1 3 0
  (1) pair lj/cut, perpetual
      attributes: half, newton on
      pair build: half/bin/atomonly/newton
      stencil: half/bin/3d
      bin: standard
  (2) compute orientorder/atom, occasional
      attributes: full, newton on
      pair build: full/bin/atomonly
      stencil: full/bin/3d
      bin: standard
  (3) compute coord/atom, occasional
      attributes: full, newton on
      pair build: full/bin/atomonly
      stencil: full/bin/3d
      bin: standard
  (4) compute cluster/atom, occasional
      attributes: full, newton on
      pair build: full/bin/atomonly
      stencil: full/bin/3d
      bin: standard
Per MPI rank memory allocation (min/avg/max) = 9.325 | 9.330 | 9.334 Mbytes
Step Temp PotEng Volume v_max_n 
    4000    1.9625105   -4.8508617     4889.185            1 
    5000    2.0236322    -4.790021    4920.9755            1 
    6000    1.9916078   -4.8225889    4933.3033            2 
    7000    2.0051844   -4.7843345    4924.3715            1 
    8000     2.021361   -4.8337512    4907.0918            1 
    9000    2.0062165   -4.7728525    4944.3311            1 
   10000    1.9770554   -4.8059297    4921.0786            1 
   11000    1.9958682   -4.8271261    4905.7046            1 
   12000    1.9939213    -4.806283    4948.9418            1 
   13000    1.9791608   -4.7560823     4934.455            1 
   14000    1.9768438   -4.8194704    4914.3802            1 
   15000    1.9809635   -4.7121702    4931.7052            1 
   16000     1.999292   -4.7916804    4938.8776       -1e+20 
   17000    1.9856332   -4.7964176    4868.7668            1 
   18000    2.0180957   -4.7917767    4938.0826            1 
   19000    1.9727743   -4.8371834    4886.2825            1 
   20000    1.9755081   -4.8039574    4904.4505            1 
   21000    2.0228103   -4.8257873    4918.4546            1 
   22000     1.978953     -4.79498    4951.2686            1 
   23000    1.9657752   -4.7796936    4938.6365            1 
   24000    1.9819937    -4.788249    4941.8407            1 
   25000    1.9991597   -4.8233269    4884.6181            1 
   26000    2.0080846   -4.7839622    4932.6763       -1e+20 
   27000    2.0252316   -4.8055156    4905.3212            2 
   28000    1.9927839   -4.7954064    4918.5831            1 
   29000    2.0092598   -4.8042817    4931.1805            3 
   30000    1.9720097   -4.7875256    4921.3206            1 
   31000    2.0117964    -4.772611    4943.8313            1 
   32000    2.0477481   -4.7456957    4936.9503            1 
   33000    1.9675792   -4.8202032    4895.5979            1 
   34000    1.9436942   -4.8277135    4924.4761            1 
   35000    1.9581735   -4.7745237    4963.9225            1 
   36000    2.0082761    -4.765954    4935.9878       -1e+20 
   37000    1.9663706   -4.8030259    4916.2246            1 
   38000    2.0142106   -4.7537494    4929.9002       -1e+20 
   39000    1.9457311   -4.7619039    4968.0198            1 
   40000    2.0037374   -4.7909832     4923.646            1 
   41000     2.036561   -4.7998566    4919.9666            1 
   42000    1.9812175   -4.7724272    4927.5237            1 
   43000    1.9752972   -4.8310427    4926.7143            1 
   44000    1.9971993   -4.7744381    4907.5977            1 
   45000    2.0196665   -4.7927375    4909.9796            1 
   46000    2.0360722   -4.8457529    4908.5438            2 
   47000    2.0091506   -4.8253661    4934.2824            2 
   48000    2.0366521   -4.7777812    4923.0751            3 
   49000    2.0211102   -4.8249417    4923.0206            1 
   50000    2.0254354   -4.7721555    4929.7702            1 
   51000    2.0529568   -4.8122611    4895.9219            1 
   52000    1.9819847   -4.8098646    4923.4426       -1e+20 
   53000    2.0196529   -4.8189142    4914.4203            1 
   54000    2.0134782   -4.8256869    4920.3464            1 
   55000    1.9941038   -4.8363183    4905.5036       -1e+20 
   56000     1.974579   -4.7694886    4931.7683            1 
   57000    2.0377654   -4.8377554     4918.765            1 
   58000    1.9520846   -4.7850475    4944.9962            1 
   59000    2.0126457   -4.7947309    4892.0879            2 
   60000    2.0294356   -4.7923241    4909.9752            1 
   61000    2.0198028   -4.7758483    4912.1248            1 
   62000    1.9731899   -4.7684732    4910.7395            1 
   63000    1.9680626   -4.7698566    4954.5718            1 
   64000    2.0767048   -4.8004711     4920.862            1 
   65000    1.9943364   -4.8099383     4902.245            1 
   66000    1.9716502   -4.8024149    4916.8614            1 
   67000    1.9623415    -4.765746    4926.2211            1 
   68000    1.9650638    -4.794628    4944.8563            1 
   69000     2.010049   -4.7991397    4904.2114            1 
   70000    2.0292329   -4.8356878    4929.9515            1 
   71000    2.0200245   -4.8088876    4926.2562       -1e+20 
   72000    2.0162154   -4.8395533    4927.6982            1 
   73000    2.0149031   -4.7882558    4923.8749            2 
   74000    2.0015504   -4.8354239    4901.2644            2 
   75000    1.9747256   -4.7884063    4913.8362            4 
   76000    1.9740293   -4.8313368    4937.6164            1 
   77000    2.0007541   -4.7464641    4921.7676            1 
   78000    1.9834338     -4.80423    4920.5376            1 
   79000    2.0299756   -4.8232371    4915.2339            1 
   80000    1.9972696   -4.8628212    4940.7492            3 
   81000    1.9914533   -4.8360146    4914.6569            1 
   82000    1.9910221   -4.7823357    4929.1128            1 
   83000    2.0021908   -4.7873059    4922.8051            1 
   84000    2.0083339   -4.7975953    4924.0472            2 
   85000    1.9958571   -4.7893559    4919.8882            1 
   86000    2.0598146    -4.766666    4925.2758            2 
   87000    2.0201351   -4.8345761    4952.4282            1 
   88000    2.0003497   -4.7811316    4925.1697            1 
   89000    2.0101637   -4.7585059    4927.3325            1 
   90000    1.9867406   -4.7811705    4922.5966            1 
   91000    2.0464882   -4.7915642    4939.1397       -1e+20 
   92000    1.9960013   -4.7787518    4895.0262            1 
   93000    1.9984212   -4.8083893    4902.1979            1 
   94000    1.9633532   -4.7825685    4906.9412            1 
   95000    2.0328233   -4.8209886    4900.2514            1 
   96000    1.9566627   -4.8333111    4913.5011            3 
   97000    1.9867876   -4.7973198     4914.523            1 
   98000    2.0177298   -4.7959977    4948.7483       -1e+20 
   99000    1.9603917   -4.7423057    4913.8202            1 
  100000    1.9537071   -4.7906033    4946.9379            1 
  101000     1.986471   -4.8581271    4914.7847            1 
  102000    1.9950987   -4.8241195    4877.2605            1 
  103000     1.998501   -4.7746602    4958.2704            1 
  104000    2.0186053   -4.7622423    4929.6519            1 
  105000    1.9697887   -4.8233701    4900.0124            1 
  106000    2.0419012   -4.8171195    4899.4357       -1e+20 
  107000    1.9941327   -4.7966132    4943.5645            2 
  108000    2.0170334   -4.8003499    4950.4762            2 
  109000    1.9526382   -4.8121058    4941.0361            1 
  110000    1.9925833   -4.7965969    4893.9273            1 
  111000    2.0005487   -4.7759058    4958.7096       -1e+20 
  112000     1.993166   -4.7211004    4953.0596            2 
  113000    2.0218933   -4.7896319     4929.536            1 
  114000    1.9979667   -4.8095034    4926.1564            4 
  115000    1.9871288   -4.8080406    4926.1289            2 
  116000    2.0202311   -4.7589876    4955.7324            1 
  117000    2.0490679   -4.8105318    4926.3998            1 
  118000    2.0016037   -4.7838152    4935.5488            1 
  119000    1.9840965   -4.8036148    4921.6074            1 
  120000    1.9669576   -4.7233761    4928.7344            1 
  121000    2.0066456   -4.8189517    4920.4912            1 
  122000    2.0369487   -4.7675655    4977.9165            1 
  123000     2.041247   -4.8134887    4902.6753            1 
  124000    2.0395145   -4.7728775    4923.8742       -1e+20 
  125000    1.9822078    -4.857191    4919.4133            1 
  126000    2.0314856   -4.8773069    4911.7835            1 
  127000    1.9622317   -4.7298417    4969.6176            1 
  128000     1.988996   -4.7850935     4888.184            1 
  129000    1.9848154   -4.8154388     4896.997            1 
  130000     1.967344   -4.7535057    4925.2508            1 
  131000    1.9949214   -4.7911899    4939.3619            1 
  132000    2.0039724   -4.8026179    4908.1333            2 
  133000    2.0026867   -4.7722551    4933.9781            2 
  134000    1.9573908   -4.7782571    4952.8035            1 
  135000    2.0362888   -4.7926735    4912.7872            1 
  136000    2.0173239   -4.8214928    4934.9694            1 
  137000    2.0092976   -4.8393938    4921.3787            1 
  138000    1.9781297   -4.8416032    4874.3215            1 
  139000    2.0151232   -4.8390815     4896.955            1 
  140000    1.9935128   -4.8064436    4923.7632            1 
  141000     1.996555   -4.8185433    4938.7736       -1e+20 
  142000    1.9929532    -4.784307    4920.6162            2 
  143000    1.9851351   -4.8053442    4918.8357            1 
  144000    2.0155889   -4.7943201    4920.6202            1 
  145000    1.9392422    -4.776282    4939.5804            1 
  146000    1.9925768   -4.8660136    4903.0743       -1e+20 
  147000    1.9662258   -4.8006716    4949.6606            1 
  148000    2.0320854    -4.820604    4884.7336            1 
  149000    1.9996149   -4.7929552    4950.3215            1 
  150000    1.9679099   -4.8188326    4925.1322            2 
  151000     2.006672   -4.7604884    4898.4988            2 
  152000    1.9837776   -4.7944269    4925.6997            1 
  153000    1.9717101   -4.7843384    4950.5655            1 
  154000    2.0013025   -4.7718451    4936.7729       -1e+20 
  155000    2.0050312   -4.8163515    4894.4095       -1e+20 
  156000    2.0083051   -4.8048809    4926.5269            1 
  157000     1.996348   -4.7829072    4905.8981            1 
  158000    1.9709026   -4.7907913    4960.3253            1 
  159000     2.000024   -4.8560329    4907.3364            1 
  160000    2.0330678   -4.7930824     4886.609            1 
  161000    2.0559751   -4.7453661     4938.012            1 
  162000    1.9859476    -4.805394    4921.6297            2 
  163000    2.0178968    -4.821039    4953.4515            1 
  164000    1.9983391   -4.7852225    4966.8217            1 
  165000    1.9763395   -4.7971985    4929.8137            1 
  166000    2.0087019    -4.790169    4933.8955            1 
  167000    1.9920234   -4.8303069      4886.04            1 
  168000     1.970535   -4.8053354    4924.5102            1 
  169000    1.9558363   -4.8141132    4911.7882            1 
  170000    2.0266229    -4.808874     4894.212            1 
  171000    1.9831016   -4.7956158    4926.7511            1 
  172000     1.992844   -4.8277919    4894.0876            2 
  173000    2.0075097   -4.7714288    4915.8847            1 
  174000    2.0078948   -4.7640959    4931.7899            1 
  175000    1.9853395    -4.788234    4918.9479            1 
  176000    1.9789805   -4.7864307    4930.7823       -1e+20 
  177000    2.0093398   -4.8069148    4923.8427            1 
  178000    2.0041864   -4.7345341    4957.8582            2 
  179000    1.9776871   -4.8047099    4962.7612       -1e+20 
  180000    1.9638399   -4.8234704    4890.1751            1 
  181000    1.9693949   -4.8332563    4940.5614            1 
  182000    2.0113754   -4.8270397    4949.7998            1 
  183000    1.9865493   -4.7902969     4963.897            1 
  184000    2.0071107    -4.804867    4946.0128            1 
  185000    2.0122592   -4.8327246    4897.8201            1 
  186000    1.9679599   -4.7517538    4946.3746       -1e+20 
  187000    2.0017624   -4.8178785    4929.7189            2 
  188000     1.994298   -4.7794588    4918.6868            1 
  189000    1.9782344   -4.8066654    4957.4601            1 
  190000    2.0123905    -4.854155     4900.821            1 
  191000    1.9970523   -4.8312936    4928.3818            3 
  192000    2.0415869   -4.8202482    4934.0235       -1e+20 
  193000    2.0270118   -4.8172632     4935.731            1 
  194000    2.0003803   -4.8171857    4943.6073            1 
  195000    1.9716654   -4.7965321    4931.4438            1 
  196000    2.0208923   -4.8427702    4912.8881            1 
  197000    1.9756852   -4.8148728    4938.0946            1 
  198000    2.0101238   -4.7872009    4911.2021            2 
  199000    2.0176829   -4.8035044    4922.2217            1 
  200000    1.9602525   -4.7999593    4935.5521            1 
  201000    1.9903203   -4.8246994     4912.518            1 
  202000    2.0524875   -4.7961702     4897.771            1 
  203000    1.9841367   -4.7572592    4966.0453       -1e+20 
  204000    2.0361217   -4.8423171    4900.9024            1 
  205000    1.9711197   -4.7784048    4962.8466            1 
  206000    2.0269704   -4.8420953    4884.3966            1 
  207000    2.0261083   -4.8197998    4880.3663            1 
  208000      2.01302   -4.8145715     4913.059            1 
  209000    1.9812637   -4.8056104    4920.4404            1 
  210000    1.9722182   -4.7887007    4887.6142            1 
  211000    2.0046669   -4.7354965    4967.8359            1 
  212000    1.9886102   -4.7192798    4963.3295            1 
  213000     1.983146   -4.7791732    4921.7024            1 
  214000    1.9718979   -4.8400977    4931.3022            1 
  215000    2.0381914   -4.7924503    4933.1198       -1e+20 
  216000    2.0132698   -4.8671757    4916.0858            1 
  217000    1.9611996   -4.8448686     4899.627            2 
  218000    1.9768987   -4.8393145    4888.8483            1 
  219000    2.0520434   -4.7989234    4909.3443            1 
  220000    1.9977783   -4.7434728    4921.7178            1 
  221000    2.0244984   -4.8028526    4923.5744       -1e+20 
  222000    1.9735149    -4.769538    4893.4197            1 
  223000    2.0064488   -4.7645693    4882.3792            1 
  224000    2.0242889   -4.7959392    4905.3895            1 
  225000     1.979134   -4.8158343    4932.5189            2 
  226000    1.9923098   -4.7850944    4933.6922            1 
  227000    2.0124707   -4.8032759    4924.8515            1 
  228000    1.9994978   -4.8207595    4920.3292       -1e+20 
  229000    2.0021855   -4.7655218    4933.8321            1 
  230000    1.9865236   -4.7769941    4935.8559            1 
  231000    2.0232599   -4.7996803    4915.9585            1 
  232000    2.0044827   -4.7678949    4907.6074       -1e+20 
  233000    1.9549969    -4.813337     4904.491            1 
  234000      1.96359    -4.802637    4909.7797            1 
  235000    1.9972443    -4.787223    4947.1216            1 
  236000    2.0408205   -4.7326594    4928.2409            1 
  237000    1.9992841   -4.8106811    4956.6159            2 
  238000    1.9714825   -4.7543573    4911.1591            1 
  239000    2.0221714   -4.8318116    4922.3921            1 
  240000    1.9922446   -4.7991776    4894.1384            1 
  241000    1.9880555   -4.7861139    4950.0579       -1e+20 
  242000    1.9416654   -4.7724211    4903.8954            1 
  243000    2.0074136   -4.7916687    4924.1973            2 
  244000    2.0181169   -4.8406989    4907.9219       -1e+20 
  245000    2.0224412   -4.8038907    4926.0275       -1e+20 
  246000    2.0388638   -4.7542651    4927.6784            1 
  247000    2.0130231   -4.8134326     4925.834       -1e+20 
  248000    1.9777704   -4.8016198    4883.6232            2 
  249000    1.9910859   -4.7791662    4893.9164            1 
  250000     2.029202   -4.7705637    4940.1532            1 
  251000    2.0044228   -4.7886366    4922.1769            1 
  252000    2.0474593   -4.8257045    4939.6175            1 
  253000    1.9626306   -4.7857166    4911.5454            1 
  254000    2.0258744   -4.7563582    4954.6951            1 
  255000    2.0141008   -4.8037398    4909.6559            1 
  256000    1.9830384   -4.7545107    4962.9385            3 
  257000    1.9893665   -4.8049798    4899.3613            1 
  258000     2.029541   -4.8067283    4923.2949            1 
  259000    1.9694292   -4.8131304    4908.3135            1 
  260000    2.0019123   -4.7771289    4933.5758       -1e+20 
  261000    1.9969273   -4.7252896    4902.7414            3 
  262000    1.9797393   -4.8162929    4927.7095            1 
  263000     2.022205   -4.8299125    4909.4057            1 
  264000     1.951083   -4.8574841    4895.6763            1 
  265000    1.9971362   -4.7729444    4956.4878            1 
  266000    1.9918406   -4.8130516    4930.2988            1 
  267000    2.0097048   -4.8155975    4906.1342            2 
  268000    1.9900605   -4.7962479    4894.6603            1 
  269000    1.9856533    -4.846283    4902.4227            2 
  270000    2.0070868    -4.766585    4915.9501            1 
  271000    1.9980852   -4.7828346    4927.6845            1 
  272000    2.0275853   -4.7183662    4950.4783            1 
  273000    2.0002748   -4.7789989    4963.1436            2 
  274000    2.0043527   -4.7809405    4914.3198            1 
  275000    1.9671086   -4.8369671    4911.3501            1 
  276000    1.9812479   -4.8002293     4921.306            1 
  277000    2.0297523   -4.7999118    4918.8633       -1e+20 
  278000    1.9897007   -4.8047106    4922.8151            1 
  279000    2.0175231   -4.7887561    4924.0257            1 
  280000    2.0372117   -4.8157036    4923.0617            1 
  281000    1.9542959   -4.8588693     4919.831            1 
  282000    2.0005896   -4.8063111    4917.6133            1 
  283000     2.021476    -4.773852    4948.7383            2 
  284000    1.9666336   -4.8170391     4915.137       -1e+20 
  285000    2.0205449   -4.7986393    4899.9871       -1e+20 
  286000     2.017456   -4.8195737    4914.8062            1 
  287000    2.0210243   -4.7744107    4939.1913            1 
  288000     1.998711   -4.8560381    4926.3477            2 
  289000    1.9981761    -4.757633    4927.6591            1 
  290000    1.9554181   -4.7606374    4958.4574            2 
  291000    1.9844273   -4.8281166    4874.0917            1 
  292000    1.9785194   -4.7536555    4932.9225            1 
  293000    1.9695179   -4.8152388    4939.0309            1 
  294000    2.0312703   -4.8050778    4916.7152            1 
  295000    2.0220156   -4.8265064    4899.8381            2 
  296000    2.0079059   -4.8110059    4907.2286            2 
  297000    2.0206512   -4.8019508    4907.0965            1 
  298000    2.0050246   -4.7610596     4929.885            1 
  299000    1.9642604   -4.8080913    4938.5323            1 
  300000    1.9979164   -4.7711637    4913.6608            1 
  301000     2.001878   -4.8550924    4913.1467            1 
  302000    2.0244128   -4.8052361    4922.8724            2 
  303000    1.9930773   -4.7592855    4925.6035            1 
  304000    1.9835949   -4.8406181    4921.0416            2 
  305000    1.9787181    -4.790174    4926.6966            1 
  306000    1.9976097   -4.8078195    4872.4726            1 
  307000     1.982539   -4.8059033    4920.2904            1 
  308000    2.0018473   -4.8021292    4937.1488            1 
  309000    1.9941643    -4.780903    4941.1791            1 
  310000    2.0093017   -4.7673849    4932.7296            1 
  311000     1.991495   -4.7571367    4927.0459            1 
  312000    1.9707941   -4.7899979    4918.4009            1 
  313000    1.9781593   -4.7747838    4870.5139            1 
  314000    1.9701083   -4.7845087    4903.7696            1 
  315000    2.0450407   -4.7933768    4903.7719            2 
  316000    2.0064885   -4.7818057    4968.9857            1 
  317000    2.0194995   -4.8255492    4924.4825            1 
  318000    2.0012269   -4.7663812    4911.2097            1 
  319000    2.0059276   -4.8207216     4930.419            1 
  320000    2.0312246    -4.808251    4924.0804            1 
  321000    2.0609436   -4.7697888    4923.6962            2 
  322000     1.956591   -4.7746437    4946.9535            1 
  323000    1.9716118    -4.876859    4900.3281            1 
  324000     2.010872   -4.7689806    4904.3871            2 
  325000    2.0082231   -4.8017309    4943.3352            1 
  326000    1.9786444   -4.7945556    4918.1934       -1e+20 
  327000    2.0065185   -4.8436382    4921.7788            1 
  328000    1.9863798    -4.762702    4940.2095            1 
  329000    2.0383008   -4.7557619    4952.6341            1 
  330000    1.9908858   -4.8097236    4907.3442            1 
  331000    1.9922703   -4.8138621    4926.5376            1 
  332000    1.9506127   -4.8749388    4861.6842            1 
  333000    1.9449862    -4.772618    4924.3619            2 
  334000    2.0140345   -4.7859371    4933.3447            1 
  335000    1.9982454   -4.7818945    4910.4792            1 
  336000    1.9745637   -4.7622766     4912.624            1 
  337000    1.9797047   -4.8106601    4932.1389            1 
  338000    2.0122712   -4.8290502    4901.5478            1 
  339000     1.962169   -4.8182883    4907.8563            1 
  340000    1.9941904   -4.7856468    4918.6398            1 
  341000    1.9502952   -4.7845091    4934.5996            2 
  342000     2.001711   -4.7493863    4916.5316            1 
  343000    2.0012994   -4.7579917    4916.7218            1 
  344000    2.0145557   -4.8311699    4899.8627            1 
  345000    2.0149548    -4.811268    4916.9712            1 
  346000    1.9781209   -4.8004125    4910.3073            2 
  347000    1.9781952   -4.7893867    4942.7253            1 
  348000    1.9868943   -4.7764861    4935.7726            2 
  349000    2.0087758   -4.8456112    4926.6712            2 
  350000     2.058319   -4.7936571    4930.3666            1 
  351000    2.0275071   -4.7747237    4906.1601            1 
  352000    2.0063393   -4.8307078    4892.8718            1 
  353000     1.967244   -4.8310419    4924.5938            1 
  354000    2.0330909   -4.7825158    4926.2296            1 
  355000    1.9907931   -4.8259127    4917.3844            2 
  356000    2.0455336   -4.7918971    4898.2288            2 
  357000    2.0107962   -4.7699818    4956.3662            1 
  358000    1.9933848   -4.7722527    4938.9274            1 
  359000    2.0034883   -4.7721474    4956.4868            1 
  360000    2.0145292   -4.7768744    4934.2063            1 
  361000    1.9873171   -4.8147368    4887.5122            2 
  362000    1.9761902   -4.7925047    4920.5713            2 
  363000    1.9984534   -4.7822962    4911.8382            2 
  364000    1.9797989   -4.8369233    4898.6378            1 
  365000    1.9683909   -4.7979225     4925.725            1 
  366000    2.0307681   -4.8535783    4928.0285            1 
  367000     2.003904   -4.8211473    4944.9834            1 
  368000    2.0103045   -4.7503373    4930.4239            1 
  369000    1.9824441   -4.8214659    4922.4385            1 
  370000    2.0052905   -4.8327572    4897.7305            1 
  371000    2.0193934   -4.8445878    4908.7056            1 
  372000     1.993446   -4.7971549    4910.3937       -1e+20 
  373000     1.997893   -4.7576939    4923.6441       -1e+20 
  374000     2.025838   -4.8158109    4914.0524       -1e+20 
  375000    2.0089446   -4.7827677     4952.647            1 
  376000    2.0084675   -4.8438698    4921.5956            1 
  377000    2.0103831   -4.7794801    4935.2958            1 
  378000    1.9719794   -4.8140867    4905.2318            1 
  379000    1.9719002   -4.7459309    4962.7361            1 
  380000    2.0094145    -4.774161    4934.9862            2 
  381000    2.0040236   -4.7869378    4913.1261       -1e+20 
  382000    1.9814463   -4.8166046    4911.5849            1 
  383000    1.9820685    -4.784148     4897.188       -1e+20 
  384000     1.994605   -4.8108938    4933.3832            1 
  385000    2.0003553   -4.8031701    4919.3828            1 
  386000    2.0019348   -4.7937965    4919.0935            1 
  387000    2.0122655   -4.8516542    4856.6475            1 
  388000    1.9993227   -4.7821276    4932.2357            1 
  389000    2.0261096   -4.7998725    4953.0802            1 
  390000    2.0097885   -4.7774775    4926.4633            1 
  391000    2.0277713   -4.7815027    4910.5798            1 
  392000    1.9886731    -4.822958    4945.5281            2 
  393000    2.0096091   -4.8387063    4898.0762            1 
  394000    1.9924062   -4.7674027    4911.7962            3 
  395000    2.0113864   -4.8355308    4908.1828            1 
  396000    1.9914624   -4.8084013    4928.1184            1 
  397000    2.0038204   -4.8293461    4926.2875            1 
  398000    2.0286891   -4.8044549    4906.8015            1 
  399000     2.016633   -4.7792272    4920.4895            1 
  400000    1.9983475   -4.8124622    4960.8359            1 
  401000     1.992022   -4.7833396     4907.779            1 
  402000    1.9810132    -4.845308      4911.36            1 
  403000    2.0339781   -4.7836201    4945.3988            2 
  404000    2.0358794   -4.7534204    4930.1116            1 
  405000    1.9880384   -4.8339675    4908.8732            1 
  406000     1.976107   -4.8360175    4903.4145            1 
  407000    1.9985561   -4.7798271    4918.9247            1 
  408000    2.0481878   -4.7979426    4929.5394            2 
  409000    2.0412698   -4.7758184    4933.5752            2 
  410000    1.9696047   -4.8237702    4923.3208            1 
  411000    2.0082726   -4.7834246    4960.1445       -1e+20 
  412000    1.9885098    -4.820722    4916.0495            1 
  413000    2.0063511    -4.718133    4968.1745            1 
  414000    1.9990055   -4.8187101    4929.4291            1 
  415000     1.980092   -4.7851219    4918.5855            1 
  416000    1.9804097   -4.8310196    4895.7769            1 
  417000    2.0016393   -4.8078237    4966.2603            2 
  418000    2.0058789    -4.749625    4941.8863            1 
  419000    2.0036417   -4.7598615    4925.3368       -1e+20 
  420000    2.0041649   -4.7883012    4929.8615            1 
  421000    1.9519233   -4.8347844    4907.4192            1 
  422000    2.0318835   -4.7918838    4939.8172            1 
  423000    2.0014648     -4.81823    4950.9787            1 
  424000    2.0214822   -4.8505725    4915.6695            1 
  425000    1.9996011   -4.7965655    4918.2351            1 
  426000    1.9671339   -4.7474003    4936.8081            1 
  427000    1.9757962   -4.8149974    4896.2687            1 
  428000    2.0418109   -4.7804837     4921.485            2 
  429000    1.9946553   -4.7484187    4938.2739            1 
  430000    2.0095805   -4.7633758    4910.5854            1 
  431000    1.9778858   -4.8069755    4935.1602            1 
  432000    2.0266052    -4.786529     4936.793            1 
  433000     1.991219   -4.8257514    4938.2027            1 
  434000    1.9919037   -4.8028385    4883.3767            1 
  435000    1.9981491   -4.7719626    4932.2176            1 
  436000    2.0275476   -4.7689428    4931.7664       -1e+20 
  437000    1.9803378    -4.827966    4896.3442            1 
  438000    1.9473041   -4.7539376    4924.3019            1 
  439000    2.0067813    -4.777329    4955.2047       -1e+20 
  440000    1.9652227   -4.7701055     4914.867            1 
  441000    1.9629585   -4.8549347    4919.1653            3 
  442000    2.0028259   -4.7647796     4900.895            1 
  443000    2.0219112   -4.8059648    4928.6492            1 
  444000    1.9804632   -4.7941393    4929.3123            1 
  445000     2.013158   -4.8071876    4923.5054            2 
  446000    2.0222424   -4.7879496     4882.721            1 
  447000    2.0172814    -4.818713    4907.2439            1 
  448000    1.9923428   -4.8010875    4927.6718            1 
  449000    1.9552513   -4.8107585    4927.6318            1 
  450000    1.9711621   -4.8116857    4909.9091            3 
  451000    2.0216764   -4.7677999    4933.2557            1 
  452000    1.9716875   -4.7808081    4951.8122            1 
  453000     2.014065   -4.8024492     4897.281            1 
  454000    1.9726871   -4.8560264     4905.266            1 
  455000    1.9910362   -4.7610827    4928.3289            1 
  456000    2.0360036   -4.7848144    4964.6533       -1e+20 
  457000    2.0019259   -4.8040922    4908.9491            1 
  458000    2.0089665   -4.7682564    4951.7233            1 
  459000    1.9933046   -4.8082925     4925.925            1 
  460000    2.0027025   -4.8578961    4894.7057            1 
  461000    2.0142531   -4.7854739    4937.4288       -1e+20 
  462000     2.015955   -4.8373482    4901.1831            1 
  463000    1.9528848   -4.8249742    4917.2422            1 
  464000    2.0053394   -4.7202415    4934.1258       -1e+20 
  465000    2.0364961   -4.8321371    4900.0856            1 
  466000    2.0407211   -4.7516759    4939.6468            1 
  467000    1.9861752   -4.7909184    4897.5807            1 
  468000     1.967999   -4.7757409    4941.8592            2 
  469000    1.9873149   -4.8079128    4921.1623            1 
  470000    1.9449253     -4.79378    4921.0843            1 
  471000    2.0003622   -4.7680472    4918.5484            1 
  472000    1.9678035   -4.8304605     4911.233            1 
  473000    2.0047691   -4.8271855     4912.756            1 
  474000    1.9823051   -4.7839181    4917.9604            2 
  475000    1.9643355     -4.80357    4915.9218            1 
  476000    2.0200059   -4.8279751    4915.4031            1 
  477000    1.9807185   -4.8087215     4932.759            1 
  478000    1.9292819   -4.8119616    4895.7608       -1e+20 
  479000    2.0131266   -4.7912415     4911.071            1 
  480000    2.0485505   -4.7786126    4947.5543            1 
  481000    2.0314751   -4.7310653    4907.2535            1 
  482000    2.0353478   -4.8228915     4909.122            1 
  483000    1.9527564    -4.773074    4915.7109            1 
  484000    2.0032938   -4.7738585    4937.6718            1 
  485000     1.976057   -4.8102744    4895.9091            1 
  486000    1.9927312    -4.745764    4952.9625            1 
  487000     1.956036   -4.8207115    4937.4634            2 
  488000    2.0016412   -4.7962904    4935.0179       -1e+20 
  489000    1.9880569   -4.7532927    4943.2471            1 
  490000    2.0236446   -4.7933999     4918.589       -1e+20 
  491000    1.9783117   -4.7760712    4917.1526            1 
  492000    2.0099645   -4.7883048    4893.0844            1 
  493000    1.9671671    -4.808418    4887.1668            1 
  494000    2.0055327   -4.8264583    4951.6111            1 
  495000    1.9897161   -4.8297993    4880.8122       -1e+20 
  496000    1.9990999   -4.8113079    4943.0753       -1e+20 
  497000    1.9926611   -4.7712748    4933.3334       -1e+20 
  498000    1.9913019   -4.7727963    4958.7004            2 
  499000    1.9673279   -4.8167873    4920.3219            1 
  500000    2.0549799   -4.8208295    4909.7282            1 
  501000    2.0377067   -4.7728371    4923.6138            1 
  502000    2.0423497   -4.7517888    4933.2611            1 
  503000    1.9969663   -4.7376708    4981.0833       -1e+20 
  504000    2.0378315   -4.7938749    4961.3304       -1e+20 
  505000    1.9826296   -4.8280122    4919.8165            1 
  506000    1.9983811   -4.7850021    4936.1411       -1e+20 
  507000    1.9729962   -4.8116849    4933.4236            1 
  508000    1.9917252   -4.7574429    4958.0864            2 
  509000    2.0128105   -4.8379516    4912.4018            1 
  510000    1.9745663   -4.8250192     4911.862            1 
  511000    1.9975421   -4.8153527    4940.1341       -1e+20 
  512000     1.956762   -4.8254031     4902.773            1 
  513000     2.041179   -4.8053187    4936.7135            2 
  514000    2.0129292   -4.8625258    4891.5164            1 
  515000    2.0139743   -4.8034101    4909.6606       -1e+20 
  516000    1.9838064   -4.7567758    4940.8836            2 
  517000    2.0154744   -4.7536894    4973.8652            1 
  518000    2.0237643   -4.7680081    4889.8098            1 
  519000    1.9803018    -4.803669    4901.4446            1 
  520000    2.0066821   -4.7585308     4929.979            1 
  521000    2.0161408   -4.8022568    4911.8693       -1e+20 
  522000    2.0320175   -4.8192669    4904.6454            1 
  523000    2.0223773   -4.7433351    4944.4958            1 
  524000    1.9787897   -4.8057833    4915.3676            1 
  525000    1.9951277   -4.7873478    4905.1254            1 
  526000    1.9741319   -4.7819049     4908.322            2 
  527000    1.9796336   -4.8311756    4926.2264            1 
  528000    2.0223214   -4.7637547    4946.7182            1 
  529000    2.0085673   -4.8616526    4893.0599       -1e+20 
  530000    1.9384216    -4.805195    4898.1799            1 
  531000    2.0130805   -4.8129358    4936.3818            1 
  532000    1.9975442   -4.7630907    4939.4751            1 
  533000    1.9749369   -4.7985031    4910.4918            1 
  534000    2.0123418   -4.8162809     4928.303       -1e+20 
  535000    1.9797532    -4.830127    4923.3696            1 
  536000    2.0041841   -4.7970895    4911.8843            1 
  537000    2.0383386   -4.8200512    4900.6977            1 
  538000    2.0285883   -4.8062976    4940.3414            1 
  539000    2.0210267   -4.8102043    4931.6311            1 
  540000    1.9516633   -4.7859041    4901.3492            1 
  541000     2.026225   -4.7698534     4910.922       -1e+20 
  542000    1.9674259   -4.7714298    4907.6793            1 
  543000     2.036281   -4.8559212    4882.3707            1 
  544000    2.0013635   -4.8161661    4942.4847            1 
  545000    2.0167852   -4.7929772    4933.1299            1 
  546000    2.0113317   -4.8714803    4880.9445            1 
  547000    2.0044763   -4.7621077    4954.8082            1 
  548000    1.9507652     -4.77523    4908.9701            1 
  549000    1.9697627    -4.811394    4924.5074            1 
  550000     1.986551   -4.7930983    4926.1305            1 
  551000    1.9808712   -4.7774417    4899.5361       -1e+20 
  552000    1.9570844   -4.7522741    4928.5966            1 
  553000     1.988317   -4.8221395     4930.075            1 
  554000    1.9727929   -4.8230647    4954.8408            1 
  555000    1.9848147   -4.7278611    4938.5084       -1e+20 
  556000    2.0148494   -4.7653649    4932.9591            2 
  557000    2.0395419    -4.795934    4922.9966            1 
  558000    1.9972155   -4.7625865    4925.6679            1 
  559000    2.0433806   -4.7926615    4911.4759            2 
  560000     2.015718   -4.7937479    4905.7621       -1e+20 
  561000    2.0085897   -4.8187777    4912.6951            1 
  562000    1.9869457   -4.7696227    4929.2225            1 
  563000    1.9524942   -4.8380258    4889.1044            1 
  564000     1.965243   -4.8696141    4896.4411            1 
  565000    2.0053583   -4.7580898    4934.2276       -1e+20 
  566000    2.0196377   -4.8049233    4908.4581            1 
  567000    1.9791432   -4.8033377    4922.9906       -1e+20 
  568000    2.0094875   -4.7418471     4955.086            2 
  569000    2.0081724   -4.7499573    4902.8589       -1e+20 
  570000    1.9707457   -4.8085164      4935.25            1 
  571000    2.0092516   -4.7995862    4921.7418            1 
  572000    2.0466355   -4.7588953    4938.2374       -1e+20 
  573000    2.0062209    -4.780088    4962.8481            1 
  574000     2.029621   -4.7949911    4927.2819            1 
  575000    2.0081674   -4.7819216    4907.6647            1 
  576000     1.971817   -4.7720456    4925.2038            3 
  577000    2.0116664    -4.825635    4925.7446            1 
  578000    2.0420082   -4.8209485    4878.3382            1 
  579000    1.9431215   -4.7954141    4920.7068            1 
  580000    2.0165057   -4.8115828    4932.2562            1 
  581000    1.9497887   -4.8225145    4933.6489       -1e+20 
  582000    2.0106395   -4.7768027    4896.6313            1 
  583000     1.977316    -4.810887    4906.2851            1 
  584000    1.9794362   -4.8329294    4884.6511       -1e+20 
  585000    2.0017541   -4.7543668    4959.8008            1 
  586000    1.9883331   -4.8200539    4914.3901            1 
  587000    2.0221905    -4.808053    4917.0257            1 
  588000     1.977973   -4.7879719     4914.812            1 
  589000    1.9925657   -4.7729995    4971.0546            1 
  590000    1.9682205   -4.8528555    4907.6391            1 
  591000    2.0372182   -4.8004654    4906.9825            1 
  592000    1.9643577   -4.8138502     4929.299       -1e+20 
  593000    2.0310634   -4.8042333    4925.7857            1 
  594000     2.014326   -4.7822755    4932.5087            1 
  595000    1.9879035   -4.7952046    4951.7905            1 
  596000    1.9665687    -4.751753    4917.2493            1 
  597000    2.0251593   -4.7877036    4948.8392            3 
  598000    1.9819826   -4.8163367    4910.7464            1 
  599000    1.9831583   -4.7949922    4913.9842            1 
  600000    1.9891317   -4.8190257    4919.2431            1 
  601000    2.0133117   -4.8179571    4884.0874            1 
  602000    2.0118846   -4.7659513    4881.8478            1 
  603000    1.9582014   -4.8101866    4902.5731            1 
  604000    2.0222421    -4.784468    4946.0144            1 
  605000    1.9822587   -4.8391217    4880.0887            1 
  606000     2.015648   -4.8137759    4889.4907            1 
  607000    2.0286066   -4.8406718     4933.749       -1e+20 
  608000    2.0280379   -4.8058374    4911.4524            1 
  609000    2.0062698   -4.7502318    4914.8329       -1e+20 
  610000    1.9978837   -4.8378382    4895.2993            1 
  611000    1.9656232    -4.770657    4921.6168            2 
  612000    1.9701381   -4.7643727    4923.0361       -1e+20 
  613000    1.9694483   -4.7945894    4929.0974            1 
  614000    1.9700232   -4.7950798    4938.0452       -1e+20 
  615000    2.0441972   -4.8401734     4907.572            1 
  616000    1.9912802   -4.7971267    4927.5788            1 
  617000    2.0056306   -4.7132572    4954.0855            1 
  618000    2.0097719   -4.8346244    4913.7941            1 
  619000    2.0142871    -4.818195    4933.3189            1 
  620000     1.997812   -4.7724937    4906.8481            1 
  621000    1.9748681   -4.7974991    4946.3576            1 
  622000    2.0113051   -4.8393622    4919.9517            1 
  623000    1.9811721   -4.7951392    4911.9738            1 
  624000    2.0008047   -4.8508342    4881.7365       -1e+20 
  625000    1.9972983   -4.7616402    4899.2678            1 
  626000     1.977962   -4.7590364    4954.2203            1 
  627000    2.0190789   -4.7889083     4920.057            1 
  628000     1.953144   -4.8028606    4916.4868       -1e+20 
  629000     1.944766   -4.7960725    4936.5885            1 
  630000    2.0436075    -4.781669    4907.0633            1 
  631000    2.0164276   -4.7832967    4936.1756            1 
  632000    2.0028056   -4.8070188    4900.7187            1 
  633000    1.9455257   -4.8016822    4926.4786       -1e+20 
  634000    1.9851421   -4.7698755    4939.6072            2 
  635000    1.9275257   -4.8283653    4895.2588            1 
  636000     1.991992   -4.8012923     4923.548            2 
  637000     2.019579   -4.8100141    4920.1121            1 
  638000    1.9900122   -4.8356095    4914.7379            1 
  639000    2.0140587   -4.7912367     4903.147            2 
  640000    1.9354807   -4.7896032     4902.483            1 
  641000    2.0161362   -4.8015463    4901.3211       -1e+20 
  642000    2.0058579   -4.7885053    4929.2976            1 
  643000    2.0071687   -4.8430201    4915.4909       -1e+20 
  644000    2.0135291   -4.8235766    4903.2911            1 
  645000    1.9845528   -4.7952155    4887.5584            1 
  646000    1.9696044   -4.7982112    4933.1021            1 
  647000    2.0170679   -4.8527146    4927.6979            1 
  648000    1.9899841   -4.7801165    4912.9679            1 
  649000    1.9690769   -4.7615234    4937.8295            1 
  650000    2.0009701   -4.8196791     4917.464       -1e+20 
  651000    1.9864496   -4.7700753     4928.968       -1e+20 
  652000    2.0109515   -4.7724369    4929.5618            1 
  653000    2.0320865   -4.7866056    4938.2031            1 
  654000    2.0075066   -4.7624024    4975.2439            1 
  655000    1.9950034   -4.7854811    4913.3073            1 
  656000     1.959748   -4.7991141    4914.5156            1 
  657000    2.0389412   -4.8010236    4900.1243       -1e+20 
  658000    2.0173158   -4.8213733    4904.2522            1 
  659000    2.0122827   -4.7771735    4933.2996            2 
  660000    1.9782002     -4.82522    4902.4312       -1e+20 
  661000    2.0056959   -4.8447976    4878.0384            1 
  662000    1.9826561   -4.8332483    4882.8648            1 
  663000    1.9735394   -4.8149263    4910.9939            1 
  664000    2.0071363   -4.7924335     4908.533            1 
  665000    1.9790059    -4.833019    4900.0045            1 
  666000    2.0275252   -4.7733393    4902.3898            1 
  667000    1.9972361   -4.8068219    4931.7063            1 
  668000    1.9566608   -4.7466696    4909.8151            1 
  669000    2.0749909   -4.7483541    4907.5321            1 
  670000    2.0043304   -4.8292543    4907.6422            1 
  671000    2.0053924   -4.8200956    4910.9057            1 
  672000    2.0047854    -4.705874    4928.5034            1 
  673000    1.9731886    -4.781183    4907.8889            1 
  674000    2.0012427   -4.8152893    4923.1819            1 
  675000    1.9896639   -4.7959771    4920.3324            2 
  676000    2.0036872   -4.7447158    4948.7607            1 
  677000    2.0073909   -4.8229772    4922.7279            1 
  678000    2.0296933   -4.8003877    4925.6793            1 
  679000    2.0175738   -4.8067901    4912.4048            1 
  680000    1.9841773   -4.7861475    4917.9033            1 
  681000    2.0342151   -4.7984746    4915.1385            1 
  682000    1.9952545   -4.7557479    4943.6412            2 
  683000    2.0069814   -4.8307862    4916.3478            1 
  684000    1.9965831   -4.8163822    4952.8478            1 
  685000    1.9992969   -4.7694922    4946.9316            1 
  686000    2.0183925   -4.7936936    4918.7165            2 
  687000     1.986585   -4.8016223    4905.6932            1 
  688000    1.9459334   -4.7715984    4948.4422            1 
  689000    2.0046893   -4.7885317    4939.5018            2 
  690000    2.0547781   -4.8228803    4888.3005       -1e+20 
  691000    2.0068478   -4.8068929    4928.0828            2 
  692000    2.0507581   -4.7601872    4922.7512            2 
  693000     1.991106   -4.8035192    4938.7773            1 
  694000    1.9692692   -4.7791648    4916.4076            1 
  695000    2.0069557   -4.7786849    4905.6181            1 
  696000    1.9888233   -4.8025513    4926.1558            1 
  697000    2.0139628   -4.8367403    4924.9093            1 
  698000    2.0264713   -4.8273469     4890.357            1 
  699000    1.9759698   -4.7894217     4960.324       -1e+20 
  700000    2.0082115   -4.8014858      4900.77            1 
  701000    1.9765733   -4.7786032    4930.8757            1 
  702000    1.9798856   -4.7614623    4941.8063            1 
  703000     1.992666   -4.7407537    4921.0222            2 
  704000    2.0351849   -4.8462357    4907.3779            1 
  705000    1.9723891     -4.85006    4905.5539            1 
  706000    1.9692441   -4.8280182     4906.791       -1e+20 
  707000    1.9957523   -4.7875582    4925.7506            1 
  708000    1.9710138   -4.8165763    4914.6601            1 
  709000    1.9961786   -4.7621111    4899.5288            1 
  710000    1.9942768   -4.7486469    4947.9147            1 
  711000    2.0317825   -4.8077689    4936.1351            1 
  712000    2.0131232   -4.8306276    4929.6401            1 
  713000    2.0102497   -4.7524971    4916.7931       -1e+20 
  714000    2.0061651   -4.8044533    4919.7335            1 
  715000    1.9914071    -4.764382    4931.5686            1 
  716000    2.0128491      -4.8327    4915.3213            1 
  717000    2.0065589   -4.7779311    4933.1793            1 
  718000    1.9989127   -4.8107237    4929.6503       -1e+20 
  719000    2.0109164    -4.785646    4933.8814       -1e+20 
  720000    1.9528576   -4.8000056    4926.2866       -1e+20 
  721000    2.0104587   -4.8036972    4915.9829            1 
  722000    2.0084423   -4.8070123    4930.7626            1 
  723000    1.9764258   -4.7933709    4909.2617            2 
  724000    2.0074405   -4.7852624    4938.2838            1 
  725000    2.0282927   -4.7816706    4901.1039            1 
  726000     1.993791   -4.7792743    4935.2418            1 
  727000    2.0233914   -4.7584945    4915.5334            1 
  728000    1.9603781   -4.8511757    4887.2105            1 
  729000    1.9613022   -4.7922197    4942.7201            1 
  730000    1.9695413   -4.8723392      4913.59            2 
  731000    1.9922991   -4.7597366     4951.299       -1e+20 
  732000    1.9817236   -4.7363876    4973.0664            1 
  733000    2.0135667   -4.7877288    4936.3082            1 
  734000     1.983349   -4.7861265    4971.7999            1 
  735000    1.9780376   -4.8141184    4905.1489            1 
  736000    1.9577908   -4.8015468    4921.2144            3 
  737000     1.979834   -4.7973462    4931.9676       -1e+20 
  738000    2.0546575   -4.7506253    4967.9449            1 
  739000    1.9783757   -4.7897954    4955.2829            1 
  740000    2.0181488    -4.824806    4926.9449            1 
  741000    1.9497705   -4.8478142    4911.0774            1 
  742000     2.021887   -4.7897086    4901.9651            1 
  743000    1.9823349   -4.8551807    4908.6468            2 
  744000    2.0322693   -4.8169963    4930.2089            2 
  745000    2.0672334   -4.7278059    4973.9527            1 
  746000    1.9562602   -4.7915016    4895.3028       -1e+20 
  747000    1.9746355   -4.7959131    4935.7237            1 
  748000     1.968065   -4.8070924    4914.5911            1 
  749000    2.0360308   -4.8235378    4937.3348            2 
  750000     2.027121   -4.7711488    4938.9553            1 
  751000    1.9994778   -4.8710144    4896.0829            1 
  752000    2.0090856   -4.7662998    4946.1894            1 
  753000    1.9751123   -4.8185788    4934.6786            1 
  754000    2.0319589   -4.7734539    4920.8502            1 
  755000    1.9895973    -4.792749    4930.0052            1 
  756000    2.0241491   -4.8381304    4893.1987            1 
  757000    1.9848029   -4.7642398    4908.6088            1 
  758000    1.9644008   -4.7723344    4979.0514            1 
  759000    2.0279765    -4.750519     4929.541       -1e+20 
  760000    1.9950809   -4.8007775    4968.7299            1 
  761000     1.963766    -4.815381    4938.6903            1 
  762000    2.0317044   -4.8020825    4929.2355            1 
  763000     2.040355   -4.7765066    4912.0906            1 
  764000    1.9859155   -4.8107385    4929.2555            1 
  765000     1.986756   -4.7470085     4927.198       -1e+20 
  766000    1.9524215   -4.8052391    4902.2551            1 
  767000    2.0200711   -4.8039658    4900.9667            1 
  768000    1.9906573   -4.7374033    4920.2704            1 
  769000     1.994268   -4.8149918    4908.4865       -1e+20 
  770000    1.9943035   -4.8310157    4892.6236            1 
  771000    2.0272171   -4.7973742    4894.1698            1 
  772000    2.0164022   -4.8298604    4923.7635            1 
  773000    1.9876333   -4.8091662    4912.0884            1 
  774000    1.9876193   -4.7813119    4934.3095            1 
  775000    2.0022912   -4.8174626    4921.4183            1 
  776000    1.9906854   -4.7935371    4943.9065            1 
  777000     2.018056   -4.7936583    4943.2862            1 
  778000    2.0197077   -4.8315897    4916.3889            1 
  779000    2.0199622   -4.7784686    4937.4347            1 
  780000     1.984987   -4.7878243    4956.9815            1 
  781000    2.0073525   -4.8360636    4925.1037            2 
  782000    2.0259873   -4.8375972    4926.6984            1 
  783000    1.9899443   -4.7442126    4947.4884       -1e+20 
  784000    1.9670499   -4.8205555    4931.9204            1 
  785000    2.0117696   -4.7903593    4942.8741            1 
  786000    1.9854517   -4.8166309    4933.4597            1 
  787000    1.9600251   -4.8230429    4901.8599            1 
  788000    1.9921387    -4.737667    4935.2889       -1e+20 
  789000    2.0012124   -4.7908357    4945.3329            1 
  790000    2.0073955   -4.7667587    4906.0438            1 
  791000    1.9605729   -4.7426013    4924.8092            1 
  792000    1.9975719   -4.8393479    4861.9741            1 
  793000    2.0409085   -4.7753241    4924.1028            1 
  794000    1.9685339   -4.7708518    4946.2904            1 
  795000    1.9802988    -4.833246    4945.6848            2 
  796000    2.0054262   -4.8114442     4923.701            1 
  797000    2.0327449   -4.8112946    4945.9138            1 
  798000    1.9612946   -4.7974424    4934.4224            1 
  799000    2.0131073   -4.8088895    4871.7209            1 
  800000    2.0206932   -4.8179224     4938.636            1 
  801000    1.9957735   -4.7681194    4923.4552            1 
  802000    1.9960629   -4.7785036    4926.4596            2 
  803000    1.9853176   -4.7985293    4907.8037            1 
  804000    1.9961449   -4.8123247    4921.4871            2 
  805000    1.9919155   -4.8161043    4894.9311            1 
  806000    1.9908017   -4.7638318    4913.1186            1 
  807000    2.0638728   -4.8385064    4909.1863            1 
  808000    2.0027296   -4.7568438    4917.5998            1 
  809000    1.9865064   -4.7599365    4960.1606            2 
  810000    2.0095318   -4.7964559    4943.2914            1 
  811000    2.0185536   -4.8094707    4905.5941       -1e+20 
  812000    1.9683187    -4.784343    4948.8403            1 
  813000    2.0292735    -4.758157    4936.3364            1 
  814000    2.0153589   -4.8645232    4897.0805            1 
  815000    2.0333501   -4.8235543    4886.4149            1 
  816000    1.9953985   -4.8061041    4880.8335            4 
  817000    2.0100321   -4.8036443    4936.4482            1 
  818000    2.0030201   -4.8447564     4908.124       -1e+20 
  819000    2.0033875   -4.8360288    4909.8566            1 
  820000    2.0302734   -4.7752581    4922.7258            1 
  821000    2.0157836    -4.765814    4952.8576            1 
  822000    2.0340857   -4.7896714    4932.3689            1 
  823000    2.0173833    -4.789436    4923.5468            1 
  824000    1.9884241   -4.8068377    4907.3849            1 
  825000    2.0404448   -4.8045225    4926.2007            1 
  826000    1.9742628   -4.7754241     4907.134            1 
  827000    1.9940627   -4.8219795    4921.3634            2 
  828000    2.0294403   -4.8134018    4912.5112            1 
  829000    2.0124647   -4.7905868    4916.8586            2 
  830000    2.0148685   -4.7758038    4928.5292            1 
  831000    1.9930118   -4.8272008    4902.0281            1 
  832000      2.01669   -4.8090134    4914.3962            1 
  833000    2.0031829   -4.8035979    4890.6428            1 
  834000     1.995528   -4.8224181    4926.6791            1 
  835000    2.0114138   -4.7919472    4882.9287            1 
  836000    2.0092605   -4.7940574    4914.1565            1 
  837000    1.9884977   -4.7756869    4928.1458       -1e+20 
  838000    1.9905887    -4.800683    4910.5927            1 
  839000    2.0040665   -4.7872299    4914.9921            1 
  840000     2.027717   -4.8135157    4910.8553            1 
  841000     1.965637   -4.7946168    4922.5435            1 
  842000    1.9747143   -4.7726453    4919.6442            1 
  843000    1.9611077   -4.7866125    4886.8749            1 
  844000    1.9858973   -4.8177657    4933.0804       -1e+20 
  845000    2.0028352   -4.7553844    4949.6568            3 
  846000    1.9886885   -4.7681829    4928.1414            1 
  847000     2.029757   -4.8626886     4909.812            1 
  848000    1.9706264   -4.7922976     4931.864       -1e+20 
  849000    1.9988984   -4.7967183     4894.437            1 
  850000    1.9971396    -4.770809    4936.0459            1 
  851000    1.9777095   -4.7194492    4947.2383            1 
  852000    1.9785129   -4.8419299    4900.5033            1 
  853000    2.0183463   -4.8121177    4908.2999            1 
  854000     1.978534   -4.7850001     4966.372            1 
  855000    1.9901166   -4.8573607    4923.4837            1 
  856000    2.0119303   -4.7367994    4929.8044            1 
  857000    2.0077677   -4.7895232    4921.0833            1 
  858000    1.9875151    -4.825583    4942.3966            1 
  859000     2.016707   -4.7464346    4950.4215            2 
  860000     1.967195    -4.817242    4900.4834            1 
  861000    2.0260214   -4.7957076    4946.0496            1 
  862000    1.9780083   -4.7892299    4892.4014            1 
  863000    2.0176522   -4.7688434     4949.072            1 
  864000     1.954192   -4.7157918    4947.2888       -1e+20 
  865000    1.9302678   -4.7485774    4909.0156            1 
  866000    1.9864302   -4.7807155    4951.1136            1 
  867000    1.9836065   -4.7928571    4951.6225       -1e+20 
  868000    2.0196201   -4.7601753    4925.2899       -1e+20 
  869000    2.0279089   -4.8177366    4907.5237            1 
  870000    1.9723601   -4.7955538     4885.975            1 
  871000    1.9940988   -4.7434778    4907.9024            1 
  872000    2.0585527   -4.7828289    4899.3655            1 
  873000    2.0347455   -4.7747233    4984.0445       -1e+20 
  874000    1.9889638    -4.811068    4909.4202            1 
  875000    2.0219083   -4.7876882    4913.8589            2 
  876000    1.9453836   -4.7803949    4910.6992            1 
  877000    2.0262458   -4.7489885    4951.4392            1 
  878000    2.0374608   -4.7900732    4907.2101            1 
  879000    1.9833788   -4.8036317    4927.0192            1 
  880000    1.9876083   -4.7896101    4919.5211            1 
  881000    1.9831102   -4.7833193    4920.9106            1 
  882000    2.0242765   -4.8395988    4884.2921            1 
  883000    2.0064532   -4.7767589     4923.874            2 
  884000    1.9517955   -4.7973582    4918.1836            1 
  885000    2.0158619   -4.7954914    4929.0615            1 
  886000    2.0011375   -4.7994248    4906.9405            1 
  887000    1.9751047   -4.7720702     4951.852            1 
  888000    2.0024804   -4.8009359    4902.8697            1 
  889000    1.9901634    -4.828173    4916.1822            1 
  890000    1.9966914   -4.7947261    4938.1488            1 
  891000    1.9803384   -4.7830393    4917.0878            1 
  892000    2.0162907   -4.8042984    4910.7856            1 
  893000    1.9754453    -4.748184    4898.1454            2 
  894000    1.9733474   -4.7830093    4936.6035       -1e+20 
  895000    1.9848503    -4.777558    4932.4318            1 
  896000     2.006195   -4.7527863    4950.7531       -1e+20 
  897000    2.0095606   -4.8030054    4914.2509            1 
  898000    1.9962098   -4.8104261    4920.9253            1 
  899000    2.0149416   -4.8052894    4945.7713            1 
  900000    2.0265728   -4.7882878    4954.6427            1 
  901000    1.9941024   -4.8207933    4894.2113            1 
  902000    1.9961667   -4.8458796    4939.7998       -1e+20 
  903000    1.9877533   -4.8416105    4916.4078            2 
  904000    1.9986353   -4.7809997    4927.7593            1 
  905000    2.0085601   -4.8198511    4923.2046            2 
  906000    1.9918239   -4.7672691    4923.6245            1 
  907000    1.9557809   -4.7964516    4965.1347            1 
  908000    2.0008703   -4.8465309    4905.4946            1 
  909000    1.9838142    -4.815676     4919.671            1 
  910000    2.0093832   -4.8202354    4914.3731            2 
  911000     2.025405   -4.8691961    4908.1924            1 
  912000    2.0217363   -4.8526041    4900.6796            1 
  913000    1.9813903   -4.8045693    4897.0263            1 
  914000    1.9998606   -4.7843792     4903.721       -1e+20 
  915000    1.9818224   -4.8180979    4887.9918            1 
  916000    2.0004449    -4.834405    4929.2157            1 
  917000    1.9947476   -4.7282194    4899.1536            1 
  918000    1.9777948    -4.761596    4929.1644            1 
  919000    2.0210932   -4.7863541    4922.2798            2 
  920000    2.0235994   -4.7630557    4949.9128            1 
  921000    1.9829721   -4.7355784    4975.3864            1 
  922000    1.9906586   -4.7765228    4959.8591       -1e+20 
  923000    2.0080663   -4.8315561     4903.597            1 
  924000    2.0443937   -4.8383989    4907.7409            1 
  925000    2.0014469   -4.7768838    4920.7034       -1e+20 
  926000    2.0104485   -4.7871665    4928.9845            1 
  927000    2.0163245   -4.7707711    4935.1878            1 
  928000    2.0003839   -4.7779844    4947.3758       -1e+20 
  929000    2.0048382   -4.8385332    4875.0124            1 
  930000    1.9973302   -4.7948868    4933.3987            1 
  931000    2.0095646   -4.8163467    4911.9215            1 
  932000    1.9868402   -4.7982155    4908.6898       -1e+20 
  933000    1.9751615   -4.7582151    4922.2377            2 
  934000    2.0064089   -4.8048279    4938.3941            1 
  935000    1.9898964   -4.7673035    4939.0002            1 
  936000    2.0038818    -4.791648    4914.9678            1 
  937000    1.9763506   -4.8417775    4889.8741            1 
  938000    2.0096073   -4.8392403    4904.7302            2 
  939000    1.9921509   -4.7948294    4936.6853            1 
  940000    2.0008196    -4.806578    4918.8225            1 
  941000    2.0267867   -4.7592147    4945.5327            1 
  942000    1.9941998   -4.7663916    4940.3042            1 
  943000     2.004522   -4.7962011     4927.396            1 
  944000    2.0011142      -4.7827    4919.1838            2 
  945000    2.0254214   -4.8058993    4906.7107       -1e+20 
  946000    1.9774272   -4.7737528    4957.7545            2 
  947000    1.9948986   -4.8060734    4918.1026       -1e+20 
  948000    1.9924762   -4.8308964    4885.3094            2 
  949000    2.0216471   -4.8286973    4906.1119            1 
  950000    2.0101449   -4.7525112     4923.549            1 
  951000    1.9745854   -4.8075697    4903.2436            1 
  952000    2.0374642   -4.8168859    4956.6475            1 
  953000    1.9633653    -4.776495    4899.3758            1 
  954000    1.9946878   -4.8530712    4909.0144            3 
  955000    1.9663422   -4.7614513    4975.9975       -1e+20 
  956000    1.9801901   -4.7835312    4941.6759            1 
  957000    2.0540338   -4.7768943    4914.0608            1 
  958000     1.976144   -4.7890521    4924.0095            1 
  959000    1.9885823   -4.8276458    4904.7067            1 
  960000    2.0426694   -4.7732605    4926.0456            1 
  961000     1.993933   -4.8076552    4897.5993            1 
  962000    1.9644835   -4.8323779    4910.2755            1 
  963000    2.0419045   -4.7328625    4951.5947            1 
  964000    2.0047627    -4.818666    4919.1848            1 
  965000    2.0415049    -4.806264    4895.5668            1 
  966000    2.0094277   -4.8448365    4914.5854            1 
  967000    2.0676769   -4.8008747    4913.0042            1 
  968000    2.0263611   -4.8264781    4916.5994            1 
  969000    2.0129412   -4.7971526    4903.9618            1 
  970000    1.9872841   -4.7810583    4936.8706            1 
  971000    1.9894563   -4.7607502    4929.5766       -1e+20 
  972000    2.0221235   -4.8069051    4900.8905       -1e+20 
  973000    1.9970689   -4.8532067    4912.5575            1 
  974000    1.9888529   -4.7983568    4921.6416            1 
  975000    1.9374994   -4.7902081    4955.9094            1 
  976000      2.03226    -4.816119     4916.509            2 
  977000     1.979305   -4.8150597    4903.3895            2 
  978000    1.9985056   -4.7958551    4930.1099            1 
  979000    1.9819342   -4.7725127    4921.7585            1 
  980000    1.9728264   -4.7901565    4929.8466            1 
  981000    1.9740028    -4.790475    4919.5187            1 
  982000    1.9946195   -4.8096372     4923.401            1 
  983000    2.0109051   -4.7925531    4926.9359            1 
  984000    2.0107493   -4.7603345    4954.6775            1 
  985000    1.9833447   -4.7807982    4903.9857            1 
  986000    2.0141637   -4.8567826    4911.0571            1 
  987000    1.9962301   -4.7958549    4940.1662            1 
  988000     2.040053   -4.7505607    4938.3414            2 
  989000    2.0076997    -4.792691     4925.249       -1e+20 
  990000    1.9837107   -4.8310978    4932.1781            2 
  991000    1.9971422   -4.7577344    4941.4298            1 
  992000    2.0289062   -4.7924737    4901.3332            1 
  993000    2.0174615   -4.8056366    4935.3251            1 
  994000    1.9877716   -4.7762687    4913.9299       -1e+20 
  995000    1.9774156   -4.7508769    4937.0658            1 
  996000    2.0029344   -4.8321963    4900.0937            2 
  997000    2.0629984   -4.8152546    4928.3036            1 
  998000    2.0146842   -4.8287116    4928.4764            1 
  999000    1.9971637   -4.8132332    4911.3497       -1e+20 
 1000000    1.9998146   -4.8055022    4922.5583            1 
 1001000     1.997356   -4.8223553    4935.4288            1 
 1002000    1.9970662   -4.8341005    4901.5125            1 
 1003000    2.0027999   -4.7851099    4909.7016            1 
 1004000    2.0146847     -4.85161    4911.5446            1 
Loop time of 2020.28 on 48 procs for 1000000 steps with 4000 atoms

Performance: 85532.620 tau/day, 494.980 timesteps/s
99.4% CPU use with 48 MPI tasks x no OpenMP threads

MPI task timing breakdown:
Section |  min time  |  avg time  |  max time  |%varavg| %total
---------------------------------------------------------------
Pair    | 102.37     | 107.78     | 111.32     |  18.7 |  5.34
Neigh   | 19.596     | 20.148     | 20.727     |   8.4 |  1.00
Comm    | 107.25     | 117.73     | 130.62     |  50.7 |  5.83
Output  | 1.1258     | 1.1266     | 1.1437     |   0.2 |  0.06
Modify  | 1748.9     | 1761.1     | 1774       |  18.8 | 87.17
Other   |            | 12.41      |            |       |  0.61

Nlocal:        83.3333 ave          91 max          73 min
Histogram: 1 2 2 8 2 7 11 7 6 2
Nghost:        1440.29 ave        1455 max        1424 min
Histogram: 1 4 4 6 10 6 4 5 5 3
Neighs:        7740.88 ave        8616 max        6609 min
Histogram: 2 0 3 8 5 8 8 5 8 1
FullNghs:      15482.3 ave       17104 max       13403 min
Histogram: 3 1 1 5 7 13 4 6 6 2

Total # of neighbors = 743152
Ave neighs/atom = 185.78800
Neighbor list builds = 83478
Dangerous builds = 3057

#clear
#
#next RN
#
#jump SELF
Total wall time: 0:33:41
