
units lj                  # Use reduced LJ style units
atom_style atomic         # Uncharged point particles
atom_modify map hash      # Needed for indexing of clusters etc
                          # Used to be able to find where atoms are in relation to each other.

# Define a lattice with which to populate the simulation cell. With units
# set to 'lj' the second argument to the lattice command is the reduced
# density rho* and the spacings are multiples of that required to acheive
# that density. Also define a simulation cell called 'box' in lattice units
# and fill it with atoms. Here we're creating a box which is ten lattice
# constants in each direction.
lattice fcc 1.0 spacing 1 1 1                 # All equal sizes - gives the right reduced density.
Lattice spacing in x,y,z = 1.5874011 1.5874011 1.5874011

region box block 0 10 0 10 0 10 units lattice # Defines a region, "box", in lattice units
create_box 1 box                              # Creates a simulation box as specified above,
Created orthogonal box = (0.0000000 0.0000000 0.0000000) to (15.874011 15.874011 15.874011)
  3 by 4 by 4 MPI processor grid
                                              # with one type of atom
create_atoms 1 box                            # Creates particles on lattice points
Created 4000 atoms
  using lattice units in orthogonal box = (0.0000000 0.0000000 0.0000000) to (15.874011 15.874011 15.874011)
  create_atoms CPU = 0.003 seconds


# Set the mass of the first (and only) atom type.
mass 1 1.0

# Lennard-Jones interactions between particles, 3.5 sigma cut-off. Apply
# long range tail corrections to energy and pressure and set all coefficients
# to unity since we work in reduced units here. Note that this doesn't shift
# the potential such that it goes to zero at the cutoff. That would require
# pair_modify('shift', 'yes').
pair_style lj/cut  3.5      # non-GPU version
pair_modify tail  yes
pair_coeff 1  1  1.0  1.0   # Intearaction between 1 and 1 set with epsilon = 1 and sigma = 1

write_data data.*
System init for write_data ...
Neighbor list info ...
  update every 1 steps, delay 10 steps, check yes
  max neighbors/atom: 2000, page size: 100000
  master list distance cutoff = 3.8
  ghost atom cutoff = 3.8
  binsize = 1.9, bins = 9 9 9
  1 neighbor lists, perpetual/occasional/extra = 1 0 0
  (1) pair lj/cut, perpetual
      attributes: half, newton on
      pair build: half/bin/atomonly/newton
      stencil: half/bin/3d
      bin: standard

#############################
#   M E L T   S Y S T E M   #
#############################

velocity all create 2.4 9622624 mom yes dist gaussian # Assign velocities
                                                    # Temperature 2.4, random number seed, zero linear momentum
						                                                        # Gaussian distribution

timestep 0.002   # simulation timestep
thermo 1000       # output thermodynamic data every 1000 steps

# Define a fix  in this case with index 1 applied to all
# particles in the simulation. This fix is for simulations
# in the anisotropic NPT ensemble. Note that we use the MTK
# correction.
fix 1 all npt temp 2.4 2.4 0.1 iso 5.68 5.68 0.5 mtk yes tchain 5 pchain 5 # Use NPT ensemble
                                                                         # Set temperature and pressure and damping
                                                                         # Numbers of thermostats in chain and in barostat
run 1000         # run for 10000 steps
Per MPI rank memory allocation (min/avg/max) = 3.642 | 3.644 | 3.648 Mbytes
Step Temp E_pair E_mol TotEng Press Volume 
       0          2.4   -8.3859253            0   -4.7868253   -2.2405722         4000 
    1000    2.3675277   -4.4709979            0  -0.92059417    5.6600046    5150.2326 
Loop time of 0.231306 on 48 procs for 1000 steps with 4000 atoms

Performance: 747061.229 tau/day, 4323.271 timesteps/s
99.3% CPU use with 48 MPI tasks x no OpenMP threads

MPI task timing breakdown:
Section |  min time  |  avg time  |  max time  |%varavg| %total
---------------------------------------------------------------
Pair    | 0.090676   | 0.10073    | 0.10915    |   1.1 | 43.55
Neigh   | 0.018012   | 0.018946   | 0.02082    |   0.4 |  8.19
Comm    | 0.063969   | 0.074652   | 0.086961   |   1.6 | 32.27
Output  | 2.4047e-05 | 2.4972e-05 | 3.1407e-05 |   0.0 |  0.01
Modify  | 0.032223   | 0.035407   | 0.039546   |   1.0 | 15.31
Other   |            | 0.00155    |            |       |  0.67

Nlocal:        83.3333 ave          90 max          75 min
Histogram: 3 2 3 4 10 0 12 2 7 5
Nghost:        1388.62 ave        1413 max        1360 min
Histogram: 1 2 4 4 7 12 8 6 2 2
Neighs:        7393.46 ave        8492 max        6395 min
Histogram: 2 3 7 3 11 8 7 4 2 1

Total # of neighbors = 354886
Ave neighs/atom = 88.721500
Neighbor list builds = 87
Dangerous builds = 21

# Equilibrate just above the melting temperature to avoid step fn in T

fix 1 all npt temp 1.25 1.25 0.1 iso 5.68 5.68 0.5 mtk yes tchain 5 pchain 5
run 1000
Per MPI rank memory allocation (min/avg/max) = 3.642 | 3.644 | 3.648 Mbytes
Step Temp E_pair E_mol TotEng Press Volume 
    1000    2.3675277   -4.4709979            0  -0.92059417    5.6600046    5150.2326 
    2000    1.2613379    -5.848842            0   -3.9573082    5.7258602    4335.5859 
Loop time of 0.215656 on 48 procs for 1000 steps with 4000 atoms

Performance: 801275.827 tau/day, 4637.013 timesteps/s
99.6% CPU use with 48 MPI tasks x no OpenMP threads

MPI task timing breakdown:
Section |  min time  |  avg time  |  max time  |%varavg| %total
---------------------------------------------------------------
Pair    | 0.091198   | 0.10005    | 0.11331    |   1.2 | 46.40
Neigh   | 0.015633   | 0.016596   | 0.018531   |   0.4 |  7.70
Comm    | 0.060867   | 0.073871   | 0.083319   |   1.8 | 34.25
Output  | 2.3502e-05 | 2.4281e-05 | 3.1233e-05 |   0.0 |  0.01
Modify  | 0.018358   | 0.023196   | 0.027446   |   1.7 | 10.76
Other   |            | 0.001914   |            |       |  0.89

Nlocal:        83.3333 ave          91 max          78 min
Histogram: 6 4 3 15 4 4 7 1 2 2
Nghost:        1554.67 ave        1575 max        1533 min
Histogram: 2 4 1 5 7 14 6 4 2 3
Neighs:        8779.02 ave        9592 max        8178 min
Histogram: 5 6 7 5 5 7 7 1 3 2

Total # of neighbors = 421393
Ave neighs/atom = 105.34825
Neighbor list builds = 76
Dangerous builds = 9


# Small amount of linear quench

fix 1 all npt temp 1.25 ${temp} 0.1 iso 5.68 5.68 0.5 mtk yes tchain 5 pchain 5
fix 1 all npt temp 1.25 1 0.1 iso 5.68 5.68 0.5 mtk yes tchain 5 pchain 5
run 2000
Per MPI rank memory allocation (min/avg/max) = 3.643 | 3.645 | 3.648 Mbytes
Step Temp E_pair E_mol TotEng Press Volume 
    2000    1.2613379    -5.848842            0   -3.9573082    5.7258602    4335.5859 
    3000    1.1576616     -6.01869            0   -4.2826317    5.7587284    4257.3661 
    4000    1.0050254   -6.2022782            0    -4.695117     5.669608    4180.5227 
Loop time of 0.448511 on 48 procs for 2000 steps with 4000 atoms

Performance: 770550.229 tau/day, 4459.203 timesteps/s
99.6% CPU use with 48 MPI tasks x no OpenMP threads

MPI task timing breakdown:
Section |  min time  |  avg time  |  max time  |%varavg| %total
---------------------------------------------------------------
Pair    | 0.19827    | 0.21426    | 0.24855    |   1.8 | 47.77
Neigh   | 0.027593   | 0.028561   | 0.033445   |   0.5 |  6.37
Comm    | 0.12712    | 0.15438    | 0.16821    |   2.4 | 34.42
Output  | 4.6913e-05 | 4.8031e-05 | 6.0182e-05 |   0.0 |  0.01
Modify  | 0.034675   | 0.046543   | 0.060387   |   3.0 | 10.38
Other   |            | 0.004727   |            |       |  1.05

Nlocal:        83.3333 ave          90 max          78 min
Histogram: 4 3 6 6 7 12 2 1 5 2
Nghost:        1595.38 ave        1612 max        1582 min
Histogram: 3 4 4 10 5 6 10 4 1 1
Neighs:        9115.98 ave        9970 max        8440 min
Histogram: 3 3 10 5 10 5 4 4 1 3

Total # of neighbors = 437567
Ave neighs/atom = 109.39175
Neighbor list builds = 126
Dangerous builds = 0

#############################
# F R E E Z E  S Y S T E M  #
#############################

# Define solid atoms. This closely follows ten Wolde  Ruiz-Montero and Frenkel  Faraday Discuss  1996  104  93-110
# Compute components of the per-atom q6 vector
compute q6 all orientorder/atom degrees 1 6 components 6 nnn NULL cutoff 1.3 # compute the Q6 parameter.
                                                                             # Use all neighbours within 1.3 unit cell.

# get number of connections
compute coord_number all coord/atom orientorder q6 0.5

# An atom is solid if it has 8 or more connections (of a possible 14)
variable is_solid atom c_coord_number>=8
group solid dynamic all var is_solid    # Must be dynamic to update
dynamic group solid defined

# do clustering
compute cluster solid cluster/atom 1.3 # Create a cluster where all atoms within are solid and max 1.3 units from another member

# define chunks one chunk per cluster
compute clus_chunks solid chunk/atom c_cluster nchunk every compress yes  # Says which atoms are in which chunk

# count the size of each chunk
compute size_chunks solid property/chunk clus_chunks count


# Find the maximum entry in the vector of chunk sizes
variable max_n equal max(c_size_chunks)


# Thermo style which includes this variable
thermo_style custom step temp pe vol v_max_n

thermo ${N}  # Print the thermo information every 100 steps
thermo 1000  

# Reset the npt fix at a lower temperature (below freezing)
fix 1  all npt temp  ${temp} ${temp}  0.1  iso  5.68  5.68  0.5  mtk yes tchain  5  pchain  5
fix 1  all npt temp  1 ${temp}  0.1  iso  5.68  5.68  0.5  mtk yes tchain  5  pchain  5
fix 1  all npt temp  1 1  0.1  iso  5.68  5.68  0.5  mtk yes tchain  5  pchain  5

dump dmp2 all dcd ${N} traj_${rand}.dcd
dump dmp2 all dcd 1000 traj_${rand}.dcd
dump dmp2 all dcd 1000 traj_462431.dcd


# fix rnuntil all halt ${N} v_max_n >= 3980 error soft message no   # Stop when solidified


run 1000000 # 5000000  # Run for this many steps
Neighbor list info ...
  update every 1 steps, delay 10 steps, check yes
  max neighbors/atom: 2000, page size: 100000
  master list distance cutoff = 3.8
  ghost atom cutoff = 3.8
  binsize = 1.9, bins = 9 9 9
  4 neighbor lists, perpetual/occasional/extra = 1 3 0
  (1) pair lj/cut, perpetual
      attributes: half, newton on
      pair build: half/bin/atomonly/newton
      stencil: half/bin/3d
      bin: standard
  (2) compute orientorder/atom, occasional
      attributes: full, newton on
      pair build: full/bin/atomonly
      stencil: full/bin/3d
      bin: standard
  (3) compute coord/atom, occasional
      attributes: full, newton on
      pair build: full/bin/atomonly
      stencil: full/bin/3d
      bin: standard
  (4) compute cluster/atom, occasional
      attributes: full, newton on
      pair build: full/bin/atomonly
      stencil: full/bin/3d
      bin: standard
Per MPI rank memory allocation (min/avg/max) = 9.364 | 9.368 | 9.371 Mbytes
Step Temp PotEng Volume v_max_n 
    4000    1.0050254   -6.2022782    4180.5227            5 
    5000    1.0058472   -6.2668794    4168.6139            7 
    6000   0.99369627   -6.2813077    4157.6291            6 
    7000    1.0031347    -6.286253    4153.8704            6 
    8000    1.0285296   -6.2771412    4127.0273            6 
    9000   0.99352551   -6.2665323    4153.3698            7 
   10000      1.00493   -6.2970762    4152.2413           10 
   11000    1.0007819   -6.2700425    4152.7144            7 
   12000    1.0033549   -6.2713787    4133.5889            7 
   13000    1.0062488    -6.246488    4148.7881            5 
   14000   0.97408096   -6.2297074    4174.5767            9 
   15000    1.0220538   -6.2779293    4130.6915            6 
   16000    1.0150909   -6.2795404    4139.5268            7 
   17000    1.0205869   -6.2339384    4162.2041            9 
   18000    1.0088075    -6.260051    4152.1489            7 
   19000    0.9942913   -6.2460257    4163.7911            7 
   20000    1.0287734   -6.2923786     4161.177            8 
   21000    1.0085024   -6.2693388     4148.791            7 
   22000   0.99299566   -6.2532571    4168.3239           10 
   23000    1.0048298   -6.2824737    4143.3977            7 
   24000    0.9974893    -6.279421    4145.9854            7 
   25000   0.99761446   -6.2511687    4160.0818            6 
   26000    1.0076881   -6.3079321     4145.169            5 
   27000   0.98670541   -6.2808949    4153.8393            7 
   28000    1.0081997   -6.2627509     4136.502            8 
   29000     1.007312   -6.2951163    4156.8017            3 
   30000    1.0114749   -6.2972075    4140.9671            5 
   31000   0.99375525    -6.284527    4158.7765            4 
   32000    1.0154017   -6.2737229    4160.5909            5 
   33000   0.99303064   -6.2707245    4161.4193           13 
   34000   0.98680734    -6.291153    4139.1451            7 
   35000   0.97400747   -6.2657736     4135.186            4 
   36000    0.9995787   -6.2852413    4149.8019            5 
   37000    0.9887857   -6.2825794     4161.985            8 
   38000   0.98464275   -6.2654442    4155.3032            4 
   39000     1.003115   -6.2753861     4142.637           15 
   40000    1.0044136   -6.2673663    4148.5777            9 
   41000    1.0009033    -6.273588    4138.1809            6 
   42000   0.99717583   -6.2594944    4159.8424            6 
   43000     1.010317   -6.2831868    4159.7003            7 
   44000     1.008236    -6.241324    4184.9182            8 
   45000   0.98595376   -6.2593536    4173.7052            4 
   46000    1.0137136   -6.2649223    4155.3635           10 
   47000   0.99928343   -6.2636125     4156.346           14 
   48000    1.0227428   -6.3017457    4142.0217            3 
   49000    1.0031989   -6.2324411    4167.5716            2 
   50000    1.0068551   -6.2548613    4160.2386            7 
   51000    1.0035823   -6.2668973    4156.1953            4 
   52000   0.98373804   -6.2367287    4170.8456            3 
   53000   0.99739271   -6.3099114    4127.1468            4 
   54000    0.9801146   -6.2294232    4159.2656            8 
   55000   0.99279567   -6.2768457    4164.0399            2 
   56000    1.0074605   -6.2564519    4157.9879            4 
   57000   0.98394607   -6.2716727    4141.2139            6 
   58000      1.02875   -6.2516903    4150.8077            9 
   59000   0.98192417   -6.2620845    4160.6093           11 
   60000    1.0085738   -6.2672682    4159.5417            7 
   61000    1.0199932   -6.2883679      4149.72           13 
   62000    1.0002883   -6.2969095    4150.7318            7 
   63000   0.99779618   -6.2820243    4149.8424           14 
   64000    1.0072124   -6.2745199    4152.6772            4 
   65000     1.007366   -6.2615598    4140.5552            8 
   66000   0.99597343   -6.2727343    4151.9294            4 
   67000    1.0257275   -6.2763342    4161.6124            6 
   68000    1.0127224   -6.2302261     4161.226           10 
   69000    1.0088158    -6.255946    4157.8526            5 
   70000   0.99504573   -6.2503745     4164.769            6 
   71000    0.9974153    -6.277279    4159.7402            6 
   72000    1.0067661   -6.2540191    4163.3325            8 
   73000    0.9926018   -6.2752221    4142.6064            9 
   74000    1.0117683   -6.2409046    4165.9648            6 
   75000   0.99110266   -6.2611827    4149.7766            6 
   76000    1.0195534    -6.270472    4158.2805            4 
   77000    0.9789211   -6.2839289    4167.4492            4 
   78000    1.0024709   -6.2685448    4150.8848           10 
   79000    1.0105628   -6.2725688    4150.6225            4 
   80000    1.0023463   -6.2878209    4142.9723            6 
   81000   0.99971037   -6.3083983    4153.5588           13 
   82000   0.98778786   -6.3111966    4156.5078            8 
   83000   0.97981413   -6.2406404    4160.2276            4 
   84000    1.0294825   -6.2514196    4150.6254            5 
   85000    1.0193969   -6.2571543    4149.1213            8 
   86000    1.0216504   -6.2734334     4145.002            6 
   87000    1.0206379   -6.2504706     4152.735            5 
   88000      1.03804   -6.2776856    4170.3136            6 
   89000    1.0023986   -6.2644474    4150.9394            6 
   90000    1.0382395   -6.2945571    4144.8148            9 
   91000    1.0060266   -6.2828909    4145.4032            5 
   92000   0.99184579   -6.2696996    4152.6118            4 
   93000   0.99173006   -6.2998352    4143.5964            4 
   94000    1.0081918   -6.2669769    4151.4855            4 
   95000    1.0018298   -6.3098955    4162.2246            6 
   96000   0.99872608    -6.232872    4167.2715            7 
   97000    1.0078486   -6.2733302    4165.6937            3 
   98000    1.0202878   -6.2857365    4143.1831            4 
   99000     1.011032   -6.2913505     4139.623           11 
  100000     1.009823   -6.2788692    4142.6441            6 
  101000   0.98943266   -6.2446724     4146.001            6 
  102000   0.98291847   -6.2462765    4157.8767            4 
  103000   0.99715177    -6.272373    4147.4273            3 
  104000   0.98485729   -6.2707692    4147.3781            4 
  105000    0.9972908   -6.2725921    4143.5659            6 
  106000   0.99650365   -6.2692319     4153.155            9 
  107000    1.0166759    -6.253197    4151.7384            7 
  108000   0.97875012   -6.2616398    4147.5596            6 
  109000     1.009141   -6.2839716    4162.9816            7 
  110000   0.97986125   -6.2267405    4151.0985            2 
  111000    1.0058559   -6.2769964    4144.8202            4 
  112000    1.0129128   -6.2706042    4151.0978            7 
  113000   0.98831266   -6.2996738    4157.8594           10 
  114000   0.98978083   -6.2796055    4154.3249            5 
  115000   0.95641584   -6.2552371    4143.0173            5 
  116000   0.99989375   -6.2719091    4161.6799            8 
  117000    1.0222178   -6.2605181    4152.6735            4 
  118000   0.99210181    -6.277336    4156.6609            6 
  119000    1.0006909   -6.2700671    4150.2932            3 
  120000   0.98219637   -6.2788083    4159.4563           10 
  121000    1.0203129    -6.255976     4146.375            3 
  122000   0.98180906   -6.2698604    4149.9541            9 
  123000   0.98144278   -6.2759189    4144.5774           10 
  124000    1.0078207   -6.2865208    4156.3708            5 
  125000   0.99948685   -6.2750272    4161.2884            4 
  126000   0.99311732   -6.2792619    4149.8352            5 
  127000   0.99417773   -6.2424623    4169.6723            3 
  128000    1.0174766    -6.249201    4153.9084            7 
  129000   0.99296541   -6.2382434    4145.4567            4 
  130000   0.97898453   -6.2697867     4165.151           19 
  131000    1.0008863   -6.2569018    4156.0139            4 
  132000   0.98518856   -6.2839801    4136.6803            5 
  133000   0.99338641   -6.2850374    4145.4023           15 
  134000      1.00923   -6.3011387    4156.3716            8 
  135000   0.99819544   -6.2745264    4159.5511            8 
  136000    1.0151301   -6.2933817    4144.6809            7 
  137000   0.99890653   -6.2655399    4157.7053            6 
  138000   0.99966845   -6.2802001     4168.059            8 
  139000    0.9786021   -6.2876502     4141.932            7 
  140000    0.9939725   -6.2891694    4141.9819            6 
  141000   0.97815589    -6.283782    4128.7836            9 
  142000   0.99307506   -6.2915754    4155.2295            4 
  143000    1.0045124   -6.2764209    4164.6672            5 
  144000   0.98155908   -6.2349314    4152.3852            4 
  145000    1.0012653   -6.2937839    4136.2936           13 
  146000    1.0054577   -6.2541269    4152.0692            4 
  147000    1.0075122   -6.2479142    4143.4791           17 
  148000   0.98251683   -6.2539349    4151.8453           12 
  149000    1.0358939   -6.2644841    4147.3541            5 
  150000   0.99239438   -6.2693968    4152.8617            6 
  151000   0.99343246   -6.2340767    4141.6013           13 
  152000   0.98948925   -6.2783829    4130.4925            7 
  153000   0.98063496   -6.2729465    4153.6619           11 
  154000    1.0052896   -6.2692164    4152.0787            6 
  155000    0.9819807   -6.2824651    4136.8572            7 
  156000   0.98265034   -6.3076695    4148.6923            5 
  157000    1.0066797   -6.2547266    4174.5273            4 
  158000    1.0047598   -6.2734733    4146.9854            6 
  159000    1.0062211   -6.2846361    4139.2107            8 
  160000   0.99617406    -6.277289    4149.6011            9 
  161000   0.95934511   -6.2970224    4158.8013            8 
  162000     1.003625   -6.2598253    4161.5029            7 
  163000   0.97804335   -6.2746568    4136.0673           22 
  164000    1.0082374   -6.2922056     4136.983            6 
  165000    1.0199085   -6.2994802    4144.3231            2 
  166000    1.0133516   -6.2642354    4148.2688           11 
  167000   0.97896042   -6.2771386    4155.2529            4 
  168000   0.97106599   -6.2569878    4154.5937           13 
  169000    0.9900788   -6.2659661     4174.473           10 
  170000   0.99389063   -6.2476344    4158.0348            5 
  171000    1.0079261   -6.2766305    4152.5541           12 
  172000    1.0055982   -6.2992033    4132.8055            9 
  173000   0.99806264   -6.2521974    4152.8068           11 
  174000    1.0010031   -6.2665244    4156.5388            8 
  175000   0.99939828    -6.281578    4140.8293            4 
  176000   0.99793303   -6.2983028    4149.3517            8 
  177000    1.0059003   -6.2744174    4159.6878           11 
  178000    1.0138433    -6.266724    4152.0372            4 
  179000   0.97583644   -6.2460649     4151.326            5 
  180000   0.99287625   -6.2574934    4149.7745            6 
  181000   0.98392852   -6.2710455    4142.2974            3 
  182000   0.99547461   -6.2725113    4144.5088            7 
  183000    1.0025357   -6.2679305    4153.8351            5 
  184000    1.0237609   -6.2862836    4168.0702           11 
  185000   0.98644863   -6.2867288    4155.3995            7 
  186000   0.98950277   -6.2385463    4162.6809           10 
  187000    1.0031249   -6.2753996    4152.9716            7 
  188000   0.98047607   -6.2509819    4164.1054            4 
  189000   0.98556906   -6.2666649    4153.8176            7 
  190000    1.0082977   -6.2910906    4150.3686            4 
  191000   0.99420376   -6.2664023    4145.8255            4 
  192000   0.99482647   -6.2526562    4159.6503            6 
  193000    1.0100679   -6.2769627    4136.6632            5 
  194000    1.0096354   -6.2413689    4147.6922           14 
  195000    1.0007487   -6.2688708    4153.5414            6 
  196000   0.98778465    -6.266596    4149.4345            6 
  197000   0.99430443   -6.2643581    4155.4061            6 
  198000   0.97746594   -6.3110744    4137.3627            4 
  199000   0.99727826   -6.2790934    4135.2673            6 
  200000   0.98860453   -6.2936425    4138.1415            3 
  201000   0.98582979   -6.2920989    4146.7577            5 
  202000    0.9911923   -6.2648351    4148.5479           10 
  203000      1.02047   -6.2739431    4141.3233            9 
  204000   0.98893311   -6.2437851    4157.5018            9 
  205000    1.0208422   -6.2669479    4156.5057            4 
  206000   0.99815861   -6.3121164    4151.6753            8 
  207000   0.99284682   -6.2792839    4149.9968            5 
  208000     1.002507   -6.2627919    4149.9078            4 
  209000     1.010633   -6.2494097    4162.9058            6 
  210000    1.0131684    -6.285195     4143.461            5 
  211000     1.021418   -6.2595503    4143.0237            3 
  212000   0.98271219   -6.3106663    4145.0072           14 
  213000   0.99641634   -6.2562788    4173.4763            5 
  214000    1.0200114   -6.2585372    4159.2233            5 
  215000   0.99496388     -6.26253    4139.3392           19 
  216000    1.0080287   -6.2402375    4158.0054           11 
  217000   0.97187504   -6.2744556    4155.2868            3 
  218000    1.0180158   -6.2561942    4173.3748            6 
  219000    1.0126689   -6.2712167    4142.3637            3 
  220000    1.0112263   -6.2817725    4150.5433           10 
  221000   0.99208672   -6.2776268    4145.9253            6 
  222000    1.0106548   -6.2640629     4154.779            5 
  223000    0.9923871   -6.3022735    4161.0249            7 
  224000    1.0048196   -6.2651855    4130.3765            5 
  225000    0.9917819   -6.2796776    4140.2376            3 
  226000     0.998676   -6.2695677    4159.2537           10 
  227000   0.99812761   -6.2716723    4151.8322            4 
  228000   0.99762403   -6.2460926    4166.5569            7 
  229000   0.97431294   -6.2812039    4144.9507            4 
  230000   0.98881347   -6.2519318    4158.8968           10 
  231000   0.99462493   -6.2592972    4139.0888           13 
  232000   0.98584707   -6.2737671    4159.5447           11 
  233000    1.0182334   -6.2968077    4144.9411            9 
  234000    1.0067961   -6.2823839    4150.6218            7 
  235000    1.0287664   -6.2488371     4168.858            5 
  236000    1.0034251   -6.2902419    4139.9835            6 
  237000    1.0183147   -6.2702054    4162.6399            5 
  238000   0.99312776   -6.2679005    4162.6551            6 
  239000    0.9861477   -6.2606867    4149.5025            8 
  240000    1.0000138   -6.2699605    4155.7822            8 
  241000    1.0076249   -6.2789004    4168.1857            4 
  242000   0.99831605   -6.2623463     4148.283           10 
  243000   0.98345742   -6.2909582      4159.36            5 
  244000    1.0123632   -6.2958335    4155.0797            3 
  245000   0.98089143   -6.2629689    4154.1616            6 
  246000   0.98048854   -6.2944315    4140.1119            4 
  247000   0.98761162   -6.2708543    4156.8687           14 
  248000    1.0096297   -6.2525599    4156.0759            7 
  249000    1.0107787    -6.271351    4145.9813            7 
  250000    1.0300414    -6.297638    4151.1172            8 
  251000    1.0264251   -6.3027258    4147.8327            6 
  252000    0.9944812   -6.2439035    4160.4988           13 
  253000   0.98246488   -6.2975455    4137.5763           19 
  254000   0.99551375   -6.2574321      4146.29            7 
  255000    1.0093701   -6.2564898    4159.0753            5 
  256000   0.99151344   -6.2716367    4154.9077            6 
  257000   0.98292661   -6.2849197     4152.703            6 
  258000    1.0020331   -6.2612774    4165.7007            3 
  259000   0.99566145   -6.2652936    4165.3738            6 
  260000    1.0069714    -6.264492    4145.4483            6 
  261000   0.99643259   -6.2781743    4158.1525            7 
  262000   0.99593037   -6.2267601    4145.0674            9 
  263000   0.98339417   -6.2608357    4147.6742           18 
  264000    1.0005949    -6.266718    4158.3907            3 
  265000     1.008279   -6.2309078    4163.7025            5 
  266000    1.0012124    -6.274583    4157.2662            7 
  267000    1.0050188   -6.2524759    4148.9705            5 
  268000    0.9880117   -6.2566105    4156.1126            6 
  269000   0.98030387   -6.2605001    4143.7598           12 
  270000    1.0238349   -6.2959094    4158.5835            9 
  271000   0.98229063   -6.2584134    4132.5867            2 
  272000    1.0034285   -6.2669905    4147.9074            6 
  273000    1.0152561   -6.2490456    4154.8305            9 
  274000   0.99011135   -6.2565452    4147.5598            3 
  275000    1.0032264    -6.286414    4161.4846           11 
  276000    1.0172496    -6.281936    4153.9929            5 
  277000    1.0214179   -6.2549795    4160.5129            4 
  278000    1.0335661   -6.2873809    4165.2205           10 
  279000   0.98652283   -6.3283037     4133.732           18 
  280000    0.9915093   -6.2745617     4148.575            8 
  281000   0.99089962   -6.3028088    4133.0526            9 
  282000    1.0125002   -6.2619804    4144.0609            8 
  283000   0.99345976   -6.2735607      4139.49           12 
  284000    1.0121658   -6.2723023    4139.4294            4 
  285000   0.99510561   -6.2916091    4147.8287            7 
  286000    1.0114321   -6.2933643    4150.2846            6 
  287000   0.98904342   -6.2623238    4151.7841            5 
  288000   0.98589347   -6.2746487    4159.8098            5 
  289000    1.0059539   -6.2978951    4152.1146            7 
  290000    1.0013855   -6.2630243    4160.6569            5 
  291000   0.99749348     -6.27475    4154.3216            6 
  292000    1.0000879   -6.2908554    4152.0171            8 
  293000    1.0007729   -6.2748167    4160.4048           14 
  294000    1.0061051   -6.2711043    4143.5759           17 
  295000    1.0117467    -6.285584    4151.5433            3 
  296000    1.0188935   -6.2570087    4154.3852            4 
  297000   0.99887746   -6.2729188    4145.5426           10 
  298000    1.0123047   -6.2668156    4154.9308            9 
  299000   0.99752958   -6.2648903    4173.7525            8 
  300000   0.99113094   -6.2597732    4156.1848            5 
  301000    1.0053029   -6.2416169    4162.3358            4 
  302000    1.0023378   -6.3016685    4153.1581            6 
  303000    1.0178903   -6.2344919    4154.4619            4 
  304000    1.0024086   -6.2909585    4148.1897            6 
  305000    1.0203362   -6.3041976    4151.0324            4 
  306000    1.0138148   -6.2389421    4155.5566            6 
  307000   0.99303501   -6.2982616    4153.5187            6 
  308000   0.97640088   -6.2653671     4146.237            4 
  309000    1.0028341   -6.2883614    4165.5218            5 
  310000   0.97951479   -6.2726765    4154.7998            5 
  311000    1.0083776   -6.2623379    4150.9061            2 
  312000   0.99020393   -6.2898019     4149.907            9 
  313000     1.006929    -6.274666     4164.042            9 
  314000   0.98350387   -6.2589592     4144.426            8 
  315000    1.0303657   -6.2789092    4167.0893            9 
  316000   0.99465594   -6.2765334    4143.1245            4 
  317000   0.99547612   -6.2769784    4153.3739            7 
  318000    1.0078569   -6.2742939     4154.023            3 
  319000   0.98042911   -6.2941614    4161.0977            7 
  320000   0.98780648    -6.244302    4150.2371           10 
  321000    1.0011473   -6.2796473    4150.9851           15 
  322000    1.0122302   -6.2710333    4154.4379            7 
  323000   0.99756482   -6.2703986    4151.8145            7 
  324000    0.9952626   -6.2711065    4159.5992           15 
  325000   0.98063972   -6.2587336    4146.2889            3 
  326000    1.0092492   -6.2868987    4131.3054            4 
  327000   0.99047556   -6.2907753    4154.7911            8 
  328000   0.99621556   -6.2177451    4172.1559            7 
  329000   0.99628754    -6.282118     4158.517            6 
  330000    1.0083932   -6.2817259    4146.9183            5 
  331000    1.0044225   -6.2734385    4160.5444            6 
  332000   0.99650868   -6.2826149    4146.3423            5 
  333000   0.99593363   -6.2910888    4162.9907            8 
  334000    1.0088634   -6.2573761    4147.9404           21 
  335000    1.0002451    -6.293109    4156.0179            8 
  336000    1.0208876   -6.2447813    4164.1225            7 
  337000    1.0000824   -6.2445839     4157.575            9 
  338000    0.9869856   -6.2482961     4156.029            5 
  339000     1.011204   -6.2302251    4163.0372            5 
  340000   0.99647253    -6.263029    4163.8437            8 
  341000    0.9963401   -6.2653747    4157.0365            7 
  342000    1.0043676   -6.2876378    4144.6978            3 
  343000    0.9999028    -6.232992    4146.0933            4 
  344000    1.0027463   -6.2660913    4163.8325            7 
  345000   0.99912493   -6.2760237     4157.523            8 
  346000    1.0219534   -6.2600508    4151.0686            6 
  347000    0.9793483    -6.248858    4150.5867            5 
  348000    1.0021027   -6.2715218    4143.8202            3 
  349000   0.98283602   -6.2623289    4176.5745            6 
  350000   0.99737301   -6.2715552     4137.298            5 
  351000    1.0010698   -6.2988662    4159.4952            5 
  352000   0.99981021   -6.3046808    4139.5108           13 
  353000   0.98370975   -6.2683928     4167.343           13 
  354000   0.99030771   -6.2698773    4168.7394            6 
  355000    1.0076566   -6.3040777    4135.4308            7 
  356000    1.0064948   -6.2549649    4157.0988           11 
  357000    1.0064009   -6.2272106    4165.5714            7 
  358000       1.0079   -6.2473441    4155.8412            3 
  359000     1.008372    -6.302907    4137.5565            6 
  360000     1.014809   -6.2707844    4150.5914            7 
  361000    1.0015619   -6.2753007    4149.9757           16 
  362000     1.025854   -6.2618222    4161.5376            4 
  363000   0.97535188   -6.2642079    4169.4726            5 
  364000    0.9808121   -6.2326845    4158.4784            8 
  365000    1.0081546   -6.2543175    4158.5988            6 
  366000    1.0010196   -6.2759181    4153.8795           18 
  367000    0.9976094   -6.2952572    4141.3536           10 
  368000    1.0208748   -6.2938087     4170.942            6 
  369000   0.99318388   -6.2339414    4170.6752           13 
  370000   0.97376433   -6.2566376    4167.3011            5 
  371000    1.0212241   -6.2505937    4149.5259            4 
  372000    1.0195056   -6.2581329    4140.5039           10 
  373000    1.0034815   -6.2767732    4142.8586            8 
  374000   0.97990617   -6.2315888    4154.6116           10 
  375000   0.99205967   -6.2956791    4146.8837            4 
  376000    1.0001552    -6.284658    4158.4523           10 
  377000   0.97905669   -6.2694545    4148.3308            5 
  378000    1.0093448   -6.2833854    4149.2812            6 
  379000   0.99634797   -6.3181631    4152.4932            9 
  380000   0.98804395   -6.3039242    4122.9762            5 
  381000     1.008339   -6.2589236    4146.8015            6 
  382000    1.0096659   -6.2956793    4135.3921            6 
  383000   0.98522918   -6.2849095    4169.9108            9 
  384000   0.99834677   -6.2679856    4135.2816            7 
  385000   0.99642461   -6.2788597    4148.3483            4 
  386000    1.0168944   -6.2856255    4155.8368            7 
  387000   0.99256842   -6.2454668     4163.162           19 
  388000    1.0003939   -6.2690372    4150.5994            4 
  389000    1.0014907   -6.2874712    4152.1384            7 
  390000   0.99547309   -6.2863627    4161.9118            9 
  391000   0.99790773   -6.2539788    4148.4291           16 
  392000    0.9855854   -6.2961904    4146.6178            9 
  393000   0.98484414    -6.254097    4150.4372            8 
  394000   0.98136882   -6.2708178     4159.043           10 
  395000    1.0118807   -6.2612159    4167.3277            5 
  396000    1.0070334   -6.2758517    4137.3889            9 
  397000    1.0262533   -6.2423219    4175.0862            5 
  398000   0.99789943    -6.250744    4153.2076            7 
  399000    1.0068186   -6.3014968    4145.7304            7 
  400000    1.0091106   -6.2620698    4166.8112            6 
  401000   0.98757001   -6.2862676    4143.4302            7 
  402000    0.9923837    -6.244013    4148.1476           14 
  403000    0.9931358   -6.2264974    4166.6891            6 
  404000    1.0029777    -6.294854    4152.0447            7 
  405000    1.0230198   -6.2646218    4168.8602            5 
  406000   0.98438823   -6.2767618    4145.4321           11 
  407000   0.97916304   -6.2584018     4163.405            6 
  408000     0.997378   -6.2991062    4152.6443            5 
  409000   0.97869477   -6.2648342    4162.8617           16 
  410000   0.98535815   -6.2938966    4161.1285           12 
  411000   0.99269259   -6.2860455    4139.6738            7 
  412000     1.000175   -6.2543341    4155.3778            4 
  413000    1.0148991   -6.2518802     4143.505           11 
  414000    1.0221495   -6.2830397    4134.4413            6 
  415000   0.98960682   -6.2562888    4157.0209            3 
  416000   0.99251254   -6.2792252    4170.1737            6 
  417000    1.0220915   -6.2499651     4151.676            3 
  418000   0.98892523   -6.2317272     4161.401            2 
  419000   0.99098821    -6.273328    4159.9361            7 
  420000   0.99856708    -6.287556    4144.2754           14 
  421000    1.0013102   -6.2663507    4146.4297            6 
  422000   0.99617313   -6.2726404      4163.61           12 
  423000   0.99664215   -6.2518763    4161.1495            8 
  424000    1.0113233    -6.230298    4151.2858            3 
  425000    1.0149456   -6.3159122    4154.4565           14 
  426000    1.0012265   -6.2543737    4157.9009            4 
  427000   0.99224107   -6.2971381    4136.3624            8 
  428000    1.0001512   -6.2898088    4146.4182            5 
  429000    1.0147348   -6.2616975    4147.5082            4 
  430000    1.0165343   -6.2524916    4158.2189           10 
  431000   0.99934005   -6.2623942    4161.3092            5 
  432000    1.0186973    -6.272138    4141.7642           13 
  433000    1.0052784   -6.2820605    4142.2371            5 
  434000    1.0092741   -6.2628375    4159.2671            3 
  435000   0.98703503   -6.2665454    4140.3402            3 
  436000    1.0071517   -6.2550888    4149.9784           10 
  437000   0.99434177   -6.2453722     4153.408            9 
  438000    1.0101251     -6.29513    4146.8302            5 
  439000    0.9910433   -6.3110165    4144.0998            5 
  440000   0.98060699   -6.2600088    4143.3402            7 
  441000   0.99360882    -6.256083    4158.3818            7 
  442000   0.99437424   -6.2687188    4162.2378            7 
  443000   0.98889182   -6.2676238    4156.9702            4 
  444000     1.007364   -6.2404328     4143.302            3 
  445000   0.99086698   -6.2646066    4147.8451            6 
  446000   0.98325231   -6.2576255    4142.9583            7 
  447000   0.98840765   -6.2735679    4159.6312            6 
  448000   0.98241141   -6.3032789    4158.7322            5 
  449000    1.0352685   -6.2503072    4149.9066           11 
  450000    1.0013514   -6.2538243    4131.2352            4 
  451000   0.99137244   -6.2566233    4175.1506            9 
  452000   0.99681742    -6.260591    4157.1917           14 
  453000   0.98836363   -6.2707014    4150.6937            7 
  454000   0.98857366   -6.2719117    4148.6637            4 
  455000   0.99827713   -6.2497232    4164.0081            5 
  456000    1.0155045    -6.237207     4148.381            5 
  457000   0.99371976   -6.2736129    4147.3768            6 
  458000    1.0126625   -6.2727268    4146.2474            8 
  459000    1.0070478    -6.231454    4157.7794            5 
  460000    1.0039653   -6.2784096    4151.0533            4 
  461000   0.99691568   -6.2757962    4155.3261            7 
  462000    1.0026641   -6.2726637    4156.0655            4 
  463000   0.99011057   -6.2710476    4122.8818            3 
  464000   0.99390585   -6.2844281    4146.3982            4 
  465000    1.0091926   -6.2684788    4148.7173            5 
  466000   0.97458362   -6.3101813    4143.2734           10 
  467000   0.98927695   -6.2927114    4159.0726            7 
  468000   0.97532611   -6.2730666    4132.9393            3 
  469000   0.99606302   -6.2517088    4160.9694            6 
  470000    1.0080632   -6.2880287    4165.8513            8 
  471000    1.0126762   -6.3084835    4140.8924            3 
  472000   0.99647829   -6.2675147    4147.1509            8 
  473000   0.98657643   -6.3074687    4147.9871            5 
  474000    1.0129674   -6.2636553     4144.915            4 
  475000   0.99165039   -6.2512819    4152.4927            4 
  476000    1.0134126   -6.2856149    4149.1785            6 
  477000    1.0131865   -6.2564707    4151.7969            7 
  478000    1.0006995   -6.2854743    4158.8314            4 
  479000    1.0172892   -6.2665561    4155.1496            9 
  480000    1.0241447   -6.2582161    4164.6266            7 
  481000   0.99300427   -6.2938039    4160.9319            7 
  482000    1.0097445   -6.2831542    4149.2625            5 
  483000   0.99532454   -6.2471383    4162.4086            4 
  484000   0.99937918    -6.268543     4143.973           11 
  485000   0.98247786   -6.2913671    4150.9091            7 
  486000   0.99396285    -6.251627    4178.5927            5 
  487000   0.99565945   -6.2407951    4152.4138            6 
  488000   0.99210254   -6.2888249    4144.0173            6 
  489000    1.0184927    -6.265074    4127.8792           13 
  490000    1.0074217   -6.2596439    4148.2193            7 
  491000    1.0031116   -6.2521567    4155.5174            5 
  492000    1.0136508    -6.281425    4158.0701            9 
  493000    1.0080008   -6.3047309    4143.1574            6 
  494000   0.99135246   -6.3170628    4129.0001            9 
  495000    1.0060495    -6.279072    4145.8914            6 
  496000    1.0073215   -6.2641454    4147.8253           15 
  497000   0.99634491   -6.2786796    4156.3308            5 
  498000    1.0046712   -6.2546175      4173.99            4 
  499000    1.0108803   -6.2743745    4156.5014           12 
  500000   0.98024303   -6.2933189     4146.518            5 
  501000   0.98763617   -6.2864489    4146.0286            6 
  502000   0.98054821   -6.2900833    4150.3623            4 
  503000    1.0228849   -6.2621877    4143.0066            6 
  504000    1.0259925    -6.263469    4143.7788            7 
  505000    1.0004104   -6.2776778    4160.9118            5 
  506000    1.0028905   -6.2753944    4156.8404            8 
  507000     1.001562   -6.2771217    4151.5061            7 
  508000    1.0049696   -6.2703731    4136.0564            4 
  509000   0.97077406   -6.2632975    4165.9502           10 
  510000   0.99634027   -6.2698328    4151.4726            6 
  511000     0.988981   -6.2723514    4160.9765            9 
  512000    1.0097049   -6.2294157     4161.758            9 
  513000   0.98721877    -6.281329    4141.9032            9 
  514000    1.0047096   -6.2773731    4161.1337           12 
  515000    1.0261748   -6.2762989    4141.7876            5 
  516000    1.0180194   -6.2740587    4142.8472            4 
  517000   0.97403078   -6.2555279    4157.5099            7 
  518000   0.99668651   -6.2382004    4154.4685            5 
  519000   0.96656507   -6.2373101    4156.0743            6 
  520000   0.98570586   -6.2363673     4151.664            6 
  521000   0.99547594   -6.3017137    4143.4347           17 
  522000   0.98539572   -6.2628484    4137.9342            7 
  523000   0.97170885   -6.2547491    4149.4484            4 
  524000    0.9980764   -6.3076845    4135.2329           11 
  525000    1.0262293   -6.2681501    4151.7478           11 
  526000   0.97990104   -6.2847544    4171.5868            9 
  527000     1.017697   -6.2464116    4170.7678            3 
  528000   0.99711979   -6.2950473    4155.2466            5 
  529000    1.0219622   -6.2734918    4165.1161            4 
  530000   0.99099791   -6.2505586    4154.2619            7 
  531000   0.99159551   -6.3060599    4151.3414            8 
  532000    1.0080559   -6.2625206    4157.3518            6 
  533000   0.99642082    -6.277673    4164.6281            8 
  534000   0.99631781   -6.2888232    4157.9689            5 
  535000    1.0190668   -6.2974115    4136.2057            8 
  536000    1.0007114   -6.2689916    4157.8356            6 
  537000    1.0008599   -6.2469638    4146.8231           11 
  538000   0.99490018   -6.2761903    4159.2662           13 
  539000   0.99499955    -6.286884    4153.3454            8 
  540000    1.0026503   -6.2415934    4163.2209            4 
  541000   0.99954057   -6.2530828    4163.7997           16 
  542000    0.9927853   -6.2397841    4159.3916            8 
  543000   0.98787382   -6.2545593    4172.3381           14 
  544000    1.0058873   -6.2773572     4164.742           11 
  545000   0.99799055   -6.2644831    4152.3486            8 
  546000   0.99601879   -6.2648384    4162.4428            5 
  547000    1.0256514   -6.2780581    4145.7171            8 
  548000    1.0020451   -6.2820964    4147.4317           12 
  549000   0.99725059   -6.2821879    4154.9079           11 
  550000    1.0108577   -6.2574805    4171.4626            6 
  551000    1.0127216    -6.264003    4146.4536            7 
  552000   0.99302244   -6.2592422    4159.8576            4 
  553000   0.99133307   -6.2953267    4150.9037           11 
  554000   0.99134663   -6.2502809     4150.595            5 
  555000   0.99568393   -6.2697908     4156.707            9 
  556000     1.007298   -6.2633329    4140.7288            7 
  557000    1.0027927   -6.2620329    4162.0211            3 
  558000   0.97800104   -6.3035762    4139.7213           10 
  559000   0.98607883   -6.2669702    4144.4675            4 
  560000   0.99297618   -6.2842108    4154.3864           11 
  561000    1.0133708    -6.275288    4138.4857            9 
  562000    1.0078499   -6.2944537    4146.4317            6 
  563000   0.98336274   -6.2718941    4157.7773            4 
  564000    1.0027015    -6.280306    4121.9025            4 
  565000    1.0171543   -6.2652702    4151.2308           12 
  566000    1.0007449   -6.2953804    4152.5272            4 
  567000   0.99268422   -6.2397448    4161.5455            8 
  568000   0.99634895   -6.2670665     4136.213            8 
  569000    1.0047132   -6.2924296     4150.398            4 
  570000     1.018337   -6.2793247    4149.7243           13 
  571000    1.0137496   -6.2736578    4152.0288            4 
  572000    1.0011407   -6.2777775    4147.9077            5 
  573000     1.008926    -6.263549    4149.2176            7 
  574000   0.99225275   -6.3073342    4143.6202            9 
  575000     1.018181   -6.2555078    4171.3669            6 
  576000    1.0146711   -6.3132381    4147.8676           12 
  577000    0.9905711   -6.2798041    4150.3069            8 
  578000   0.98833859   -6.2267797    4166.1967            6 
  579000    1.0152281   -6.2866155    4158.9388            4 
  580000   0.99267988   -6.2567588    4150.4149            5 
  581000    1.0035137   -6.3008694     4152.836            7 
  582000     1.002106   -6.2439139    4155.5002            5 
  583000   0.99389505    -6.309074    4156.4283           10 
  584000   0.99685763   -6.2708662    4153.5308            8 
  585000    1.0017771   -6.3076416    4143.1713            3 
  586000   0.99264967   -6.2725468    4167.1338            5 
  587000    1.0096866   -6.2576732    4149.7362            7 
  588000    1.0123696    -6.257709    4143.2759            9 
  589000    1.0109635   -6.2699114    4136.1258            9 
  590000    0.9948931   -6.3162798    4130.0743            5 
  591000    1.0073498   -6.2801154     4140.296           10 
  592000    1.0085735   -6.2827234    4133.3694           15 
  593000    1.0203623   -6.2552745    4161.0002           16 
  594000    0.9813351   -6.2887861    4143.2253            8 
  595000    1.0075491   -6.2650206    4147.2398            9 
  596000   0.98172604   -6.2456809    4176.8557            6 
  597000    1.0022452   -6.2395025    4173.3507            8 
  598000    1.0175541   -6.2843058    4146.5544            5 
  599000     1.010451   -6.2664245    4153.8385           19 
  600000    1.0091586   -6.2790927    4121.1616            5 
  601000   0.99387746   -6.2432385    4160.4293            8 
  602000    1.0162299   -6.2935924    4144.9349            5 
  603000   0.98804943   -6.2649243    4153.3366            6 
  604000    1.0297881   -6.2957998    4133.0238           15 
  605000   0.99896128   -6.2625941    4173.6898            5 
  606000    1.0055838   -6.2721098    4149.7741            9 
  607000   0.98175414   -6.2935351     4150.209           20 
  608000    1.0124982   -6.2617825    4137.3392            4 
  609000   0.98847027   -6.2358801    4150.6841           17 
  610000    1.0152503    -6.290628    4137.9842            9 
  611000   0.99993737   -6.2715844    4164.8737            9 
  612000    1.0028578   -6.2844082    4163.4394            8 
  613000    1.0097486   -6.2853443    4139.6413            5 
  614000    1.0069568   -6.2648457    4163.1492           11 
  615000    1.0107031   -6.3183119     4155.426            9 
  616000    1.0036283   -6.3089144    4149.1023            4 
  617000   0.99214043   -6.2625094     4143.035            5 
  618000   0.99820337   -6.2560052     4151.206            5 
  619000    1.0242384   -6.2384985    4155.8884            5 
  620000    1.0225602   -6.2933335    4161.8937           14 
  621000    1.0030759   -6.2769425    4151.2853            9 
  622000   0.99838704   -6.2985383    4171.3013            6 
  623000   0.99046076   -6.2233366    4174.2746            5 
  624000   0.98818971   -6.2608667     4149.116            5 
  625000   0.99453162   -6.2791124    4145.8322            4 
  626000     1.020675    -6.271206    4148.9925            7 
  627000     1.004591   -6.2513107    4137.8655            8 
  628000   0.99702134   -6.2743232    4162.7659            6 
  629000   0.99550848   -6.2583054    4157.8411            4 
  630000    1.0118154   -6.2709634    4139.1284           13 
  631000   0.97751892   -6.2618737     4151.404            4 
  632000   0.99081755   -6.2496186    4157.1779            7 
  633000     0.985024   -6.2837833    4130.5213            8 
  634000    1.0076072    -6.271033    4151.2977            4 
  635000   0.99796154   -6.2070816    4155.1503           12 
  636000     0.998551   -6.2672559    4154.9191            5 
  637000    1.0029093   -6.2683616    4159.6323            7 
  638000   0.99055691   -6.2428209    4169.9822            6 
  639000    1.0002531   -6.2265533    4145.4979            6 
  640000    1.0093837   -6.2895602    4155.4752            9 
  641000    1.0160884   -6.2403402     4151.647            7 
  642000   0.99852196   -6.2828289    4147.4485            5 
  643000    1.0082022   -6.2797248    4154.3525            9 
  644000   0.99501356    -6.279425    4159.9297            5 
  645000   0.98193133   -6.2506201    4144.7982           10 
  646000    1.0173936    -6.259835     4169.716            9 
  647000    1.0143667   -6.2539552    4153.9733            7 
  648000   0.98755272   -6.2876616    4154.5982           11 
  649000   0.98551651   -6.2584065    4162.4865            6 
  650000     1.010583   -6.2898586    4164.6875            7 
  651000   0.98676542   -6.2794179    4142.7701           12 
  652000   0.98226391   -6.2399803       4156.1            6 
  653000   0.97652789   -6.2616076    4158.6539            8 
  654000    0.9878358   -6.2657603    4153.3047            4 
  655000   0.98622473   -6.2518798    4164.0461           10 
  656000    1.0093644    -6.297392     4151.672            6 
  657000    1.0082274   -6.2674235     4154.621            5 
  658000    1.0196168   -6.2721345    4148.5718            8 
  659000    1.0143603   -6.2655963    4164.1187            6 
  660000   0.99080738    -6.282951    4154.3367            7 
  661000   0.99183428   -6.2435309    4158.5865            8 
  662000   0.99140283   -6.2870957     4149.584           15 
  663000    1.0014813   -6.2571152    4149.2539            6 
  664000    1.0163476    -6.262248    4172.4532            6 
  665000    1.0010719   -6.2540069    4143.6531            8 
  666000    1.0009237   -6.2512177    4168.3442           10 
  667000    0.9794233   -6.2516747    4149.7507            7 
  668000    1.0136789   -6.2497958    4162.8117           15 
  669000   0.98816954   -6.3210685    4144.9579           11 
  670000   0.98651969   -6.2462508    4152.8308            8 
  671000   0.99157362   -6.2764702    4146.0434            5 
  672000    1.0070628   -6.2608542    4156.8214            9 
  673000    1.0095314   -6.2619277    4148.4327           10 
  674000    1.0116469   -6.2554526    4139.2812            7 
  675000   0.99485175   -6.2822965    4146.6451            9 
  676000    1.0043328   -6.2568716    4152.4963            8 
  677000    1.0150803   -6.2858186    4145.9859           11 
  678000    1.0062785   -6.2552632    4140.0075            6 
  679000    1.0076221   -6.2683941     4162.574            7 
  680000     1.016186   -6.2732441    4144.8599            6 
  681000    1.0152093   -6.2652816    4140.9801            2 
  682000    1.0067847   -6.2379049    4150.3499            6 
  683000    1.0077011    -6.243611    4131.1197            9 
  684000   0.99826871   -6.3001068    4141.3711            4 
  685000    1.0162521   -6.2593626     4149.826           11 
  686000    1.0079516   -6.2465966    4159.8127           13 
  687000    1.0193326   -6.2970194    4138.8145            7 
  688000    1.0114094   -6.2918437    4143.9939            8 
  689000   0.98382051   -6.2691448    4163.6984            9 
  690000    1.0206467   -6.3088607    4135.5008            4 
  691000   0.98278798   -6.2350405    4158.3921           22 
  692000   0.98512611   -6.2723054    4159.7044            4 
  693000    1.0096316   -6.2828367    4162.0291            9 
  694000    1.0143395   -6.2629663    4152.1233            5 
  695000    1.0025897    -6.253195    4142.6144           10 
  696000   0.96882491   -6.2589504      4157.85           10 
  697000    1.0097854   -6.2547814    4135.5058            3 
  698000   0.99226332   -6.2828813    4161.5481            5 
  699000     1.013386   -6.2449219    4150.6277            6 
  700000   0.99742617   -6.2905884    4138.9284            9 
  701000   0.99109335   -6.2692553    4165.0185            7 
  702000    1.0052738   -6.2686124    4155.8405            8 
  703000   0.98891558    -6.292043    4152.1366            5 
  704000    0.9959428   -6.2845197    4151.3913           10 
  705000   0.99465328   -6.2441559    4150.8222            9 
  706000   0.99556517   -6.2532721    4157.3637            4 
  707000   0.99067318     -6.26183     4167.988           10 
  708000   0.99933966   -6.2883232    4148.2537            5 
  709000    1.0030197   -6.2585614    4161.9547           12 
  710000   0.99671064   -6.2639293    4146.5216            7 
  711000   0.99834342   -6.2667211    4147.8309            5 
  712000    1.0144501   -6.2531445    4158.2537            5 
  713000    1.0024695   -6.2761087    4151.4446            4 
  714000    1.0028522   -6.2697518    4160.1797            7 
  715000   0.99853782   -6.2834467    4131.3137            6 
  716000    1.0002384   -6.2694771    4146.1375            3 
  717000    1.0133013   -6.2636809     4131.698            3 
  718000    1.0135923   -6.3148008    4130.0155            5 
  719000   0.98749988   -6.2803551    4139.0144            5 
  720000    1.0184407   -6.2413433    4160.1104            5 
  721000    1.0114854   -6.2815152    4136.9281            4 
  722000    1.0089527   -6.3019938     4138.922            6 
  723000   0.99041637   -6.2860471    4153.4122            3 
  724000   0.99589463   -6.2843908    4146.7726            4 
  725000   0.99504875   -6.2667441    4157.3154            9 
  726000    1.0011904   -6.2825004    4149.5332            5 
  727000    0.9832546   -6.2882412    4146.2038            4 
  728000    1.0020107   -6.2813886    4159.8062            5 
  729000    1.0096739   -6.3039496    4142.3685            5 
  730000   0.99705534    -6.272284    4134.5342            9 
  731000   0.99894746   -6.2729538    4150.1335            8 
  732000    1.0086917   -6.2651588    4146.0668            6 
  733000   0.99563269   -6.2827253     4162.285            4 
  734000    1.0178102   -6.2954912     4151.249            6 
  735000    1.0149484   -6.2621606    4145.7486            6 
  736000    1.0045404   -6.2570453    4160.7144            6 
  737000   0.99345273   -6.3010727    4168.6917            6 
  738000   0.99257435   -6.2767974    4153.9714            9 
  739000   0.98498121   -6.2770697    4136.1399            5 
  740000    1.0181773   -6.2939058    4157.9026            8 
  741000   0.99826337   -6.2576418    4155.0492            8 
  742000   0.98616716   -6.3037744    4153.8251            6 
  743000    1.0086454   -6.2681567    4148.2027            4 
  744000   0.99365836   -6.2746011    4165.7615            5 
  745000    1.0027548   -6.2645068    4149.0239            5 
  746000   0.99525754   -6.2686595     4149.504            8 
  747000   0.99780572   -6.2845533    4143.8115            5 
  748000   0.99142835   -6.2390391     4151.479            5 
  749000   0.98817252   -6.2917202    4158.4572            8 
  750000    0.9999413   -6.2609583    4149.1931            8 
  751000    1.0112777   -6.2434508    4166.4689            4 
  752000    1.0112447   -6.2616126    4137.9754            9 
  753000   0.99025138   -6.2697723    4153.4478            3 
  754000    1.0082411   -6.2504971    4152.0366            4 
  755000    1.0167151   -6.2645165    4159.6487            6 
  756000    1.0034943   -6.2456516    4155.9033            4 
  757000    1.0051072    -6.280789     4158.716            9 
  758000    1.0094502   -6.2780501    4144.3938           13 
  759000   0.96887717   -6.2893114    4149.6196            6 
  760000    1.0204745   -6.2512082    4163.5012            5 
  761000    1.0037759   -6.2688438    4149.1191            7 
  762000   0.98861232   -6.2782583    4138.6354            5 
  763000   0.98776447   -6.2895658    4151.8502            5 
  764000   0.99305121   -6.2491854    4153.0416            5 
  765000   0.98124907   -6.2544736    4152.5933           11 
  766000   0.99912552   -6.2467983    4153.4867            3 
  767000   0.99842987   -6.2736271    4139.8665            7 
  768000   0.99723338   -6.3035276    4148.6988            4 
  769000   0.98703636   -6.3073815    4138.6679            4 
  770000    1.0019781   -6.2892613    4147.4167            6 
  771000   0.97901731   -6.2398824    4165.7063            6 
  772000   0.97209626   -6.2769312     4148.184            4 
  773000   0.98964465   -6.2685977    4169.5056           13 
  774000   0.97716626   -6.2541765    4159.2028            7 
  775000    1.0132464   -6.2563891    4146.5739            5 
  776000    1.0004059    -6.285422    4144.9677            5 
  777000   0.98277949   -6.2664886    4151.5104            9 
  778000   0.99284218   -6.2793026    4152.6914           11 
  779000   0.99568315   -6.2785054    4154.7149            8 
  780000   0.99097195   -6.2821305    4139.8164            7 
  781000   0.99126047   -6.2562654    4157.5399            9 
  782000    1.0033012    -6.249856    4154.8682           12 
  783000   0.97902839   -6.2569854    4157.4055            4 
  784000    1.0154019   -6.2711964    4145.7328            4 
  785000    1.0136473    -6.281211    4150.8982            9 
  786000    1.0139176   -6.2733158    4152.5642            4 
  787000    1.0129351   -6.2611444     4172.405           10 
  788000   0.99337482   -6.2411433    4149.4627            6 
  789000    1.0051123    -6.285756    4145.0117           13 
  790000    1.0087821   -6.2645386    4153.1305            9 
  791000    1.0032734   -6.2527674    4153.4481            3 
  792000    0.9922524    -6.298691    4156.1667            4 
  793000    0.9984698   -6.3376729    4136.0487            7 
  794000   0.99480929   -6.2586708     4144.443            4 
  795000     1.004427   -6.2654734    4144.0104            4 
  796000     1.008541   -6.2918274    4147.4159            3 
  797000    1.0052982   -6.2707845    4153.6743            7 
  798000    1.0004812   -6.2959544    4137.3553            8 
  799000   0.99841513   -6.2335457    4162.4877            5 
  800000   0.98296069   -6.2828381    4166.0281            6 
  801000    1.0043168   -6.2745533    4153.9579            2 
  802000   0.98449014    -6.244247    4156.5283            4 
  803000    1.0262357   -6.2564847    4174.1219           20 
  804000   0.99780725   -6.2797583    4142.1617            5 
  805000   0.99319292   -6.3091882    4139.8592            5 
  806000    1.0078524   -6.2356175    4161.5536            6 
  807000    1.0033794   -6.3014951    4140.8194            4 
  808000    1.0237496   -6.2646592     4166.269            8 
  809000   0.98527538    -6.281479    4147.7762            4 
  810000   0.98292129   -6.3113652     4140.376            4 
  811000    1.0092573   -6.2630044     4144.779            5 
  812000     1.010154   -6.2708189    4156.5305           10 
  813000    1.0129289   -6.2698915    4149.1788            5 
  814000   0.97085775   -6.2470402     4145.817            7 
  815000    1.0106216   -6.2511177    4169.0121            9 
  816000     1.010258   -6.3008148    4152.4454            5 
  817000   0.98855798   -6.2852329    4145.0866            5 
  818000   0.98967388   -6.2570947    4153.2395            5 
  819000    0.9918805   -6.2776805    4133.8986           10 
  820000    1.0117156   -6.2797571     4151.651            7 
  821000    1.0083719   -6.2819189    4149.7193            9 
  822000    1.0077091   -6.2844303    4144.3037            8 
  823000    1.0262747   -6.2783766    4140.6205            6 
  824000   0.98348404   -6.2621385    4161.3354            8 
  825000    1.0077015   -6.2591436    4163.5283            4 
  826000    1.0331733   -6.2796869    4154.7746           12 
  827000   0.98603106   -6.3029805     4150.643            6 
  828000    1.0134574   -6.2465385    4159.9803            8 
  829000   0.98357128   -6.3068966    4166.2723            4 
  830000    1.0079081   -6.2738733    4150.5926            5 
  831000   0.99344487   -6.2645779    4160.7213            5 
  832000   0.98010753   -6.2780831    4153.0744            3 
  833000    1.0106078   -6.2803449    4150.2669            5 
  834000    1.0148321   -6.2653304    4146.0498            8 
  835000    1.0232126   -6.3124221    4152.6788            7 
  836000    1.0280602   -6.2489158    4148.7341            4 
  837000   0.99173653    -6.276817    4159.2812            6 
  838000   0.99626867   -6.2778756    4146.1671            7 
  839000   0.99784224   -6.2615735     4162.779            5 
  840000    1.0085283   -6.2722396    4145.6502            7 
  841000    0.9952157   -6.2380411    4162.3565            3 
  842000    1.0070011   -6.2390807    4145.7217           19 
  843000    1.0167216   -6.2777104    4176.8269            5 
  844000   0.99788941   -6.2868927    4143.2353            9 
  845000   0.99810518   -6.3002251    4153.5882            3 
  846000   0.98501234   -6.2677934    4157.6344           10 
  847000    1.0000355   -6.2721518    4153.7422           11 
  848000   0.98652405   -6.2572761    4154.2958            6 
  849000   0.98701366   -6.2562202    4148.6853            4 
  850000    0.9998032   -6.2503055    4149.5356            4 
  851000    1.0140831    -6.255268    4142.8842            4 
  852000   0.97343801   -6.2683853    4158.2018            7 
  853000    0.9990861   -6.2889205    4142.2515           11 
  854000    0.9878676   -6.2755084    4144.1271            6 
  855000    1.0088224   -6.2604831    4148.3655            6 
  856000   0.99309789    -6.254242    4154.7106            8 
  857000   0.98567949   -6.2687511    4158.2187            7 
  858000    1.0076654   -6.2681065     4144.944            4 
  859000    1.0262729    -6.277741    4164.4736            7 
  860000   0.98905983   -6.2422133    4136.5903            4 
  861000   0.99768594   -6.2373174    4170.3109            6 
  862000    1.0033219   -6.2637676    4153.2009            4 
  863000    1.0145199   -6.2568237    4142.4645            5 
  864000   0.97614287   -6.2874901    4153.6191            7 
  865000    1.0244662   -6.2702119    4144.6995            7 
  866000   0.98742476   -6.2590746    4149.8731            9 
  867000    1.0081503   -6.2902202    4151.3867           24 
  868000    1.0016181   -6.2593279    4155.0349            9 
  869000    1.0152146   -6.2458091     4136.327            4 
  870000   0.99768995   -6.2655876    4154.0589            3 
  871000    1.0109196   -6.2922311    4138.7973            7 
  872000    1.0060254   -6.2887465    4158.3492            4 
  873000    1.0059173   -6.2690356    4150.2831            8 
  874000    1.0074683   -6.2622825    4156.8291           13 
  875000   0.97866372   -6.2522422    4141.4125           13 
  876000   0.98993246    -6.318167     4133.604            6 
  877000    1.0203945   -6.2819077    4157.3631            9 
  878000   0.99605298   -6.2562177    4161.4831            9 
  879000    1.0031251   -6.2509831    4149.1514            4 
  880000    1.0074394   -6.2776189     4136.954            7 
  881000   0.97954601    -6.229192    4158.1065           14 
  882000    1.0190305   -6.2861356    4137.3772            7 
  883000   0.98608604   -6.2696575    4156.2093           11 
  884000   0.99939394   -6.2777281    4165.5426            6 
  885000   0.99933939   -6.2551757    4159.6305            5 
  886000    1.0029471   -6.2894914     4156.612            4 
  887000    1.0031517   -6.2189064    4149.0383            5 
  888000   0.99277142   -6.3064217    4140.6002            3 
  889000     1.005884    -6.276565    4157.0019            3 
  890000    0.9889255   -6.3033399     4152.525            5 
  891000    1.0017206   -6.2693443    4143.6473            5 
  892000   0.99659743   -6.2674819    4132.2188            7 
  893000   0.99574485   -6.2960043    4139.6592            6 
  894000   0.99340129   -6.3211711    4148.4621            7 
  895000   0.99050707   -6.2754623    4159.3948            6 
  896000   0.98119005   -6.2563727    4154.8542            6 
  897000    1.0009135   -6.2750033    4135.1122            6 
  898000   0.99114862   -6.2784947     4150.092            6 
  899000    0.9938756   -6.2946234    4146.1934            7 
  900000   0.99573106   -6.2270519    4163.5939            4 
  901000    1.0144869   -6.2839211    4140.4069            7 
  902000   0.99966422   -6.2451124     4155.897            4 
  903000   0.98617524   -6.2880515    4152.4166            5 
  904000    1.0178653   -6.3044892    4131.6127            6 
  905000    1.0335872   -6.2742334    4152.9111            7 
  906000   0.99317662   -6.2642185    4151.6043            4 
  907000   0.99446712   -6.3036165    4148.2691            5 
  908000    1.0043528   -6.2679721    4149.9012           12 
  909000    1.0016703   -6.2392573    4169.6297            6 
  910000    1.0037427   -6.2677933    4156.9108            8 
  911000    1.0019852   -6.2641902    4146.3901            9 
  912000    1.0138802    -6.247299    4142.8034            4 
  913000   0.99843502   -6.2922837    4156.4681            4 
  914000    1.0029201   -6.2870579    4133.1355            8 
  915000    1.0117111   -6.2455544    4154.9006            8 
  916000   0.98072664    -6.292169    4155.2486            6 
  917000    1.0134411   -6.2687654    4139.9774            5 
  918000   0.98961188   -6.2643326      4156.18            5 
  919000      1.00903   -6.2850404    4154.5066            9 
  920000   0.98657905   -6.3180534    4140.7742            6 
  921000    1.0110734   -6.2522917    4157.0225            6 
  922000    1.0018619   -6.2788245    4158.9881           12 
  923000   0.99597732   -6.2231527    4143.3158            8 
  924000    0.9895657   -6.2658417    4175.0042            6 
  925000   0.96577321   -6.2832643    4153.2282           11 
  926000    1.0075195   -6.2590985    4160.7575            7 
  927000   0.98639988   -6.2622875    4144.9899            8 
  928000    1.0085624   -6.2807861    4163.3291            7 
  929000    1.0166695   -6.2890988    4157.5971            9 
  930000    1.0081891   -6.2323223    4145.5608            8 
  931000    1.0076059   -6.2714307    4157.1243            8 
  932000    1.0116769   -6.2638735    4154.9612           10 
  933000   0.98753246   -6.2717982    4155.0754            7 
  934000    1.0080414   -6.2972726    4130.4459            8 
  935000   0.97358388   -6.2845445    4139.9796            8 
  936000   0.98387229   -6.2638306    4144.3464            5 
  937000    1.0069125   -6.2544726    4171.2581            3 
  938000    1.0167588   -6.2668721    4166.1299            4 
  939000   0.99894761   -6.2846466    4129.5823            5 
  940000   0.99885412   -6.2570962    4152.8689            6 
  941000    1.0008055   -6.2896776    4152.0625            8 
  942000   0.99331921   -6.2670948    4150.9437            6 
  943000   0.97922284   -6.2916167    4164.0929            8 
  944000    1.0092119    -6.282052    4162.3695            5 
  945000   0.99825676   -6.2921224    4141.8569            4 
  946000   0.99203358   -6.2666333    4143.9287            7 
  947000    1.0152449   -6.2865742     4138.769            3 
  948000   0.98696464   -6.2408063    4143.8934           27 
  949000   0.99118476   -6.2709742    4158.7946           15 
  950000    1.0198269   -6.2766355    4146.9081            5 
  951000     0.990802   -6.2630519    4155.3822            3 
  952000     1.003067   -6.2575557    4155.3056           21 
  953000   0.99255587   -6.3019418    4149.1284            8 
  954000   0.99790974   -6.2861742    4139.5526           10 
  955000   0.99734709   -6.2827172    4151.3996           12 
  956000   0.98918524   -6.2583343    4152.6262           10 
  957000   0.98779482   -6.2708465    4148.4819            4 
  958000    0.9985223   -6.2647401    4142.4848            4 
  959000    1.0017432   -6.2864781    4133.3095            6 
  960000    1.0030322   -6.2713498    4149.8404            6 
  961000   0.99407504   -6.2650241    4133.2907            7 
  962000    1.0032926   -6.2882956    4140.1909           15 
  963000    1.0005974   -6.2633124    4152.4026           10 
  964000    1.0151864   -6.2856356    4162.6753            3 
  965000    1.0260244   -6.2784063    4149.9165            6 
  966000   0.99659314   -6.2830639    4143.8237            5 
  967000    1.0117028    -6.289584    4146.2885            4 
  968000   0.98539466   -6.2777452    4154.8366            7 
  969000   0.99593513   -6.2526067    4156.8652            6 
  970000    1.0185505   -6.2943755    4148.1265            6 
  971000    1.0265351    -6.295745    4153.4572            7 
  972000    1.0126986   -6.2702031    4157.8234           13 
  973000   0.98584087   -6.2738036    4158.3525            6 
  974000   0.99349278    -6.270852    4155.3357           10 
  975000   0.99309213   -6.3053842    4152.8124            4 
  976000   0.98913709   -6.2829489    4145.5999            4 
  977000    1.0112699   -6.2704972    4166.8724            6 
  978000   0.98876188   -6.2673722    4153.6676            4 
  979000    1.0085305   -6.2585199    4142.0562            8 
  980000    1.0229749   -6.2692586    4160.0112           11 
  981000   0.98425304   -6.2770543    4162.1286            6 
  982000   0.99571332   -6.2666567    4157.0708            6 
  983000    0.9847447   -6.2888665    4149.7158           11 
  984000    0.9792755    -6.277316    4153.8763            4 
  985000   0.98878344   -6.2550408    4164.4872            6 
  986000   0.99232033    -6.301501    4135.3531           15 
  987000   0.98305555   -6.2409483    4158.9411            4 
  988000    1.0321421   -6.2499414    4167.3684           15 
  989000    0.9997566   -6.2837717    4145.7099            5 
  990000    1.0074823   -6.2653844    4142.4235            5 
  991000   0.98142934   -6.2862232    4152.4334            5 
  992000    1.0018677   -6.2895478    4162.3104           10 
  993000     1.009403   -6.2660405    4166.0568            3 
  994000     1.003603   -6.2811896    4155.0813           11 
  995000   0.99761677   -6.2616498    4174.8675            5 
  996000    1.0099628   -6.2793407    4162.5926            4 
  997000     1.001227   -6.2640952    4148.2515            6 
  998000   0.99413532   -6.2607684    4155.9192            9 
  999000    1.0158503   -6.2473196    4163.2033            4 
 1000000   0.97769074   -6.2261568    4157.4694            9 
 1001000    1.0016148   -6.2924983    4153.3893            9 
 1002000   0.98785492   -6.3158929    4144.3248            5 
 1003000    1.0158025   -6.2760832    4141.9442            7 
 1004000    1.0102059   -6.2461116    4171.2214           11 
Loop time of 2091.05 on 48 procs for 1000000 steps with 4000 atoms

Performance: 82638.018 tau/day, 478.229 timesteps/s
99.4% CPU use with 48 MPI tasks x no OpenMP threads

MPI task timing breakdown:
Section |  min time  |  avg time  |  max time  |%varavg| %total
---------------------------------------------------------------
Pair    | 119.41     | 128.85     | 135.51     |  22.8 |  6.16
Neigh   | 14.702     | 14.878     | 15.208     |   2.6 |  0.71
Comm    | 114.91     | 120.58     | 130.77     |  26.8 |  5.77
Output  | 1.2738     | 1.2752     | 1.2929     |   0.2 |  0.06
Modify  | 1796.8     | 1804.9     | 1811.5     |   8.6 | 86.32
Other   |            | 20.57      |            |       |  0.98

Nlocal:        83.3333 ave          92 max          75 min
Histogram: 1 2 6 3 13 12 5 3 2 1
Nghost:        1596.19 ave        1612 max        1575 min
Histogram: 2 1 4 4 8 8 4 6 6 5
Neighs:        9139.60 ave       10078 max        8180 min
Histogram: 1 2 3 9 7 10 8 5 1 2
FullNghs:      18278.4 ave       20132 max       16496 min
Histogram: 1 2 7 5 10 12 4 4 1 2

Total # of neighbors = 877361
Ave neighs/atom = 219.34025
Neighbor list builds = 59719
Dangerous builds = 0

#clear
#
#next RN
#
#jump SELF
Total wall time: 0:34:52
