
units lj                  # Use reduced LJ style units
atom_style atomic         # Uncharged point particles
atom_modify map hash      # Needed for indexing of clusters etc
                          # Used to be able to find where atoms are in relation to each other.

# Define a lattice with which to populate the simulation cell. With units
# set to 'lj' the second argument to the lattice command is the reduced
# density rho* and the spacings are multiples of that required to acheive
# that density. Also define a simulation cell called 'box' in lattice units
# and fill it with atoms. Here we're creating a box which is ten lattice
# constants in each direction.
lattice fcc 1.0 spacing 1 1 1                 # All equal sizes - gives the right reduced density.
Lattice spacing in x,y,z = 1.5874011 1.5874011 1.5874011

region box block 0 10 0 10 0 10 units lattice # Defines a region, "box", in lattice units
create_box 1 box                              # Creates a simulation box as specified above,
Created orthogonal box = (0.0000000 0.0000000 0.0000000) to (15.874011 15.874011 15.874011)
  2 by 3 by 3 MPI processor grid
                                              # with one type of atom
create_atoms 1 box                            # Creates particles on lattice points
Created 4000 atoms
  using lattice units in orthogonal box = (0.0000000 0.0000000 0.0000000) to (15.874011 15.874011 15.874011)
  create_atoms CPU = 0.001 seconds


# Set the mass of the first (and only) atom type.
mass 1 1.0

# Lennard-Jones interactions between particles, 3.5 sigma cut-off. Apply
# long range tail corrections to energy and pressure and set all coefficients
# to unity since we work in reduced units here. Note that this doesn't shift
# the potential such that it goes to zero at the cutoff. That would require
# pair_modify('shift', 'yes').
pair_style lj/cut  3.5      # non-GPU version
pair_modify tail  yes
pair_coeff 1  1  1.0  1.0   # Intearaction between 1 and 1 set with epsilon = 1 and sigma = 1

write_data data.*
System init for write_data ...
Neighbor list info ...
  update every 1 steps, delay 10 steps, check yes
  max neighbors/atom: 2000, page size: 100000
  master list distance cutoff = 3.8
  ghost atom cutoff = 3.8
  binsize = 1.9, bins = 9 9 9
  1 neighbor lists, perpetual/occasional/extra = 1 0 0
  (1) pair lj/cut, perpetual
      attributes: half, newton on
      pair build: half/bin/atomonly/newton
      stencil: half/bin/3d
      bin: standard

#############################
#   M E L T   S Y S T E M   #
#############################

velocity all create 2.4 9580093 mom yes dist gaussian # Assign velocities
                                                    # Temperature 2.4, random number seed, zero linear momentum
						                                                        # Gaussian distribution

timestep 0.002   # simulation timestep
thermo 100       # output thermodynamic data every 100 steps

# Define a fix  in this case with index 1 applied to all
# particles in the simulation. This fix is for simulations
# in the anisotropic NPT ensemble. Note that we use the MTK
# correction.
fix 1 all npt temp 2.4 2.4 0.1 iso 5.68 5.68 0.5 mtk yes tchain 5 pchain 5 # Use NPT ensemble
                                                                         # Set temperature and pressure and damping
                                                                         # Numbers of thermostats in chain and in barostat
run 1000         # run for 10000 steps
Per MPI rank memory allocation (min/avg/max) = 3.680 | 3.683 | 3.691 Mbytes
Step Temp E_pair E_mol TotEng Press Volume 
       0          2.4   -8.3859253            0   -4.7868253   -2.2405722         4000 
     100     1.259173   -6.5129234            0   -4.6246361    5.4934905    4087.7331 
     200    1.4428249   -6.2687115            0   -4.1050152    6.0785122    4146.9382 
     300    1.5891892   -6.0266188            0   -3.6434309    5.7981853    4270.6634 
     400    1.6864341   -5.7131876            0   -3.1841689    5.8606885    4403.8234 
     500    1.7726955   -5.3925361            0   -2.7341577    6.0308441    4545.5702 
     600    1.8621927   -5.1101682            0   -2.3175776     5.891941    4707.0977 
     700    2.0370972   -4.9322753            0   -1.8773933    5.7586815    4836.4856 
     800     2.148017   -4.7251145            0   -1.5038945     5.695937    4973.8339 
     900    2.2849312   -4.5953229            0    -1.168783    5.5901698    5080.7682 
    1000    2.3668384   -4.4671643            0  -0.91779423    5.6325458    5159.4021 
Loop time of 0.560202 on 18 procs for 1000 steps with 4000 atoms

Performance: 308459.928 tau/day, 1785.069 timesteps/s
99.5% CPU use with 18 MPI tasks x no OpenMP threads

MPI task timing breakdown:
Section |  min time  |  avg time  |  max time  |%varavg| %total
---------------------------------------------------------------
Pair    | 0.31605    | 0.34264    | 0.36576    |   2.2 | 61.16
Neigh   | 0.061972   | 0.064858   | 0.067309   |   0.6 | 11.58
Comm    | 0.10247    | 0.12483    | 0.1507     |   3.6 | 22.28
Output  | 0.00021892 | 0.00022616 | 0.00028626 |   0.0 |  0.04
Modify  | 0.021589   | 0.024745   | 0.028242   |   1.3 |  4.42
Other   |            | 0.002901   |            |       |  0.52

Nlocal:        222.222 ave         234 max         215 min
Histogram: 2 2 2 5 2 2 0 2 0 1
Nghost:        2027.72 ave        2047 max        2008 min
Histogram: 2 2 2 2 0 1 3 3 1 2
Neighs:        19701.2 ave       20972 max       19058 min
Histogram: 4 2 5 1 2 0 1 0 2 1

Total # of neighbors = 354621
Ave neighs/atom = 88.655250
Neighbor list builds = 86
Dangerous builds = 13

# Equilibrate just above the melting temperature to avoid step fn in T

fix 1 all npt temp 1.25 1.25 0.1 iso 5.68 5.68 0.5 mtk yes tchain 5 pchain 5
run 1000
Per MPI rank memory allocation (min/avg/max) = 3.680 | 3.684 | 3.691 Mbytes
Step Temp E_pair E_mol TotEng Press Volume 
    1000    2.3668384   -4.4671643            0  -0.91779423    5.6325458    5159.4021 
    1100    1.9574321   -4.6876242            0   -1.7522101     5.742239    4978.1866 
    1200    1.7073045   -4.9488657            0   -2.3885491    5.6650364    4816.0505 
    1300    1.5538685   -5.2008727            0   -2.8706526    5.5388719    4686.2818 
    1400    1.4591125   -5.3988943            0   -3.2107727    5.7038561    4562.2733 
    1500    1.3734001   -5.5325252            0     -3.47294    5.7668218    4485.3709 
    1600    1.3312993   -5.6768418            0    -3.680392    5.7740875    4414.4243 
    1700    1.2798366    -5.761926            0    -3.842651    5.6016442    4388.0724 
    1800    1.2633462   -5.8402242            0   -3.9456787    5.5372513    4356.6355 
    1900    1.2453639    -5.852051            0   -3.9844721    5.6853926     4338.989 
    2000     1.269018    -5.839491            0   -3.9364398    5.7926253    4334.2464 
Loop time of 0.537938 on 18 procs for 1000 steps with 4000 atoms

Performance: 321226.674 tau/day, 1858.951 timesteps/s
99.7% CPU use with 18 MPI tasks x no OpenMP threads

MPI task timing breakdown:
Section |  min time  |  avg time  |  max time  |%varavg| %total
---------------------------------------------------------------
Pair    | 0.32353    | 0.34185    | 0.35722    |   1.6 | 63.55
Neigh   | 0.055219   | 0.056885   | 0.058027   |   0.3 | 10.57
Comm    | 0.096188   | 0.10997    | 0.12646    |   2.5 | 20.44
Output  | 0.00021991 | 0.0002281  | 0.00028933 |   0.0 |  0.04
Modify  | 0.022731   | 0.025706   | 0.030824   |   1.6 |  4.78
Other   |            | 0.003298   |            |       |  0.61

Nlocal:        222.222 ave         232 max         213 min
Histogram: 1 1 3 3 0 4 2 2 1 1
Nghost:        2247.39 ave        2263 max        2230 min
Histogram: 2 1 1 3 2 0 1 4 3 1
Neighs:        23426.6 ave       25065 max       21406 min
Histogram: 1 1 1 3 1 4 2 2 1 2

Total # of neighbors = 421679
Ave neighs/atom = 105.41975
Neighbor list builds = 75
Dangerous builds = 6


# Small amount of linear quench

fix 1 all npt temp 1.25 ${temp} 0.1 iso 5.68 5.68 0.5 mtk yes tchain 5 pchain 5
fix 1 all npt temp 1.25 0.09 0.1 iso 5.68 5.68 0.5 mtk yes tchain 5 pchain 5
run 2000
Per MPI rank memory allocation (min/avg/max) = 3.680 | 3.684 | 3.691 Mbytes
Step Temp E_pair E_mol TotEng Press Volume 
    2000     1.269018    -5.839491            0   -3.9364398    5.7926253    4334.2464 
    2100    1.2259473    -5.861793            0   -4.0233318    5.6350667    4337.5895 
    2200    1.1758753   -5.8861794            0   -4.1228074    5.7798137    4307.7768 
    2300    1.1417938   -5.9627507            0   -4.2504881    5.7096213    4281.5984 
    2400    1.0646478   -5.9985034            0   -4.4019309    5.7650966    4258.1237 
    2500    1.0471564   -6.1168311            0   -4.5464891    5.6113509    4221.7031 
    2600   0.99684435   -6.1916198            0   -4.6967271    5.6510445    4185.6412 
    2700   0.94314525   -6.2714548            0   -4.8570906    5.6250619    4153.3014 
    2800   0.89672963   -6.3712168            0   -5.0264586    5.5616943     4117.105 
    2900   0.84498404   -6.4568242            0   -5.1896651    5.6513535    4077.0574 
    3000   0.79807405   -6.5522867            0   -5.3554749     5.716703    4037.5267 
    3100   0.74163796    -6.637341            0   -5.5251622    5.7770745    4000.7547 
    3200   0.66784567   -6.7038615            0   -5.7023434    5.7603426     3972.077 
    3300   0.61787521   -6.8015503            0   -5.8749692    5.7043358    3940.0959 
    3400    0.5699801   -6.8984672            0   -6.0437108     5.659545    3909.2022 
    3500   0.50217315   -6.9665604            0    -6.213489    5.6994967    3881.0115 
    3600   0.45756321   -7.0645339            0   -6.3783606    5.6036181    3853.0988 
    3700   0.39224646   -7.1304133            0   -6.5421907    5.6609227    3826.5506 
    3800    0.3450247   -7.2142042            0   -6.6967965    5.6542549    3798.2798 
    3900    0.2849813   -7.2889833            0   -6.8616182    5.5954989    3776.5421 
    4000   0.22779225   -7.3642739            0   -7.0226709    5.5914078    3751.8861 
Loop time of 1.13255 on 18 procs for 2000 steps with 4000 atoms

Performance: 305151.517 tau/day, 1765.923 timesteps/s
99.8% CPU use with 18 MPI tasks x no OpenMP threads

MPI task timing breakdown:
Section |  min time  |  avg time  |  max time  |%varavg| %total
---------------------------------------------------------------
Pair    | 0.74291    | 0.77541    | 0.81295    |   2.3 | 68.47
Neigh   | 0.078947   | 0.080925   | 0.083099   |   0.4 |  7.15
Comm    | 0.18518    | 0.21697    | 0.24471    |   3.5 | 19.16
Output  | 0.00043453 | 0.00044731 | 0.00055722 |   0.0 |  0.04
Modify  | 0.043769   | 0.050684   | 0.062348   |   2.7 |  4.48
Other   |            | 0.008118   |            |       |  0.72

Nlocal:        222.222 ave         228 max         216 min
Histogram: 1 2 1 2 0 6 1 3 0 2
Nghost:        2452.72 ave        2466 max        2440 min
Histogram: 1 2 3 2 2 1 1 2 2 2
Neighs:        27336.9 ave       28470 max       26079 min
Histogram: 2 3 1 0 4 1 0 1 2 4

Total # of neighbors = 492065
Ave neighs/atom = 123.01625
Neighbor list builds = 102
Dangerous builds = 0

#############################
# F R E E Z E  S Y S T E M  #
#############################

# Define solid atoms. This closely follows ten Wolde  Ruiz-Montero and Frenkel  Faraday Discuss  1996  104  93-110
# Compute components of the per-atom q6 vector
compute q6 all orientorder/atom degrees 1 6 components 6 nnn NULL cutoff 1.3 # compute the Q6 parameter.
                                                                             # Use all neighbours within 1.3 unit cell.

# get number of connections
compute coord_number all coord/atom orientorder q6 0.5

# An atom is solid if it has 8 or more connections (of a possible 14)
variable is_solid atom c_coord_number>=8
group solid dynamic all var is_solid    # Must be dynamic to update
dynamic group solid defined

# do clustering
compute cluster solid cluster/atom 1.3 # Create a cluster where all atoms within are solid and max 1.3 units from another member

# define chunks one chunk per cluster
compute clus_chunks solid chunk/atom c_cluster nchunk every compress yes  # Says which atoms are in which chunk

# count the size of each chunk
compute size_chunks solid property/chunk clus_chunks count


# Find the maximum entry in the vector of chunk sizes
variable max_n equal max(c_size_chunks)


# Thermo style which includes this variable
thermo_style custom step temp pe vol v_max_n

thermo ${N}  # Print the thermo information every 100 steps
thermo 100  

# Reset the npt fix at a lower temperature (below freezing)
fix 1  all npt temp  ${temp} ${temp}  0.1  iso  5.68  5.68  0.5  mtk yes tchain  5  pchain  5
fix 1  all npt temp  0.09 ${temp}  0.1  iso  5.68  5.68  0.5  mtk yes tchain  5  pchain  5
fix 1  all npt temp  0.09 0.09  0.1  iso  5.68  5.68  0.5  mtk yes tchain  5  pchain  5

dump dmp2 all dcd ${N} traj_${rand}.dcd
dump dmp2 all dcd 100 traj_${rand}.dcd
dump dmp2 all dcd 100 traj_462431.dcd


# fix rnuntil all halt ${N} v_max_n >= 3980 error soft message no   # Stop when solidified


run 100000 # 5000000  # Run for this many steps
Neighbor list info ...
  update every 1 steps, delay 10 steps, check yes
  max neighbors/atom: 2000, page size: 100000
  master list distance cutoff = 3.8
  ghost atom cutoff = 3.8
  binsize = 1.9, bins = 9 9 9
  4 neighbor lists, perpetual/occasional/extra = 1 3 0
  (1) pair lj/cut, perpetual
      attributes: half, newton on
      pair build: half/bin/atomonly/newton
      stencil: half/bin/3d
      bin: standard
  (2) compute orientorder/atom, occasional
      attributes: full, newton on
      pair build: full/bin/atomonly
      stencil: full/bin/3d
      bin: standard
  (3) compute coord/atom, occasional
      attributes: full, newton on
      pair build: full/bin/atomonly
      stencil: full/bin/3d
      bin: standard
  (4) compute cluster/atom, occasional
      attributes: full, newton on
      pair build: full/bin/atomonly
      stencil: full/bin/3d
      bin: standard
Per MPI rank memory allocation (min/avg/max) = 9.533 | 9.536 | 9.539 Mbytes
Step Temp PotEng Volume v_max_n 
    4000   0.22779225   -7.3642739    3751.8861           60 
    4100   0.18471437   -7.4132708    3727.2891          134 
    4200   0.15476589   -7.4663572    3716.8511           81 
    4300   0.13186826   -7.4973949    3705.8586           95 
    4400   0.11740337   -7.5206141     3696.155          144 
    4500   0.10785705   -7.5442689    3692.7045          133 
    4600   0.10051094   -7.5573088    3686.6897          133 
    4700  0.093947196   -7.5663946     3684.241           82 
    4800  0.091861084   -7.5764048    3682.3109          174 
    4900  0.089623841   -7.5784376    3679.7176          168 
    5000  0.089557455   -7.5832434    3679.9833          157 
    5100  0.088904819   -7.5855083    3679.1616          193 
    5200  0.089572713   -7.5886936    3676.8101          203 
    5300  0.088358062   -7.5966431    3677.7779          240 
    5400  0.091001178   -7.5936768    3675.3557          333 
    5500  0.090876714   -7.5940329    3675.7806          204 
    5600  0.089844637   -7.6013824    3677.5106          249 
    5700  0.089517881    -7.596504    3672.3011          200 
    5800  0.089578536   -7.6027434     3675.298          268 
    5900  0.090756109   -7.6045703    3674.8567          210 
    6000  0.090737947   -7.6035779    3670.1591          251 
    6100  0.091355964   -7.6149574    3674.3401          333 
    6200  0.089264121   -7.6095926      3670.62          272 
    6300  0.091544542   -7.6069408    3670.9395          244 
    6400  0.088359663   -7.6115967    3673.5086          403 
    6500  0.091467375   -7.6124384    3669.2427          386 
    6600  0.091922409   -7.6180296    3669.9792          371 
    6700  0.088680025   -7.6172414    3670.6668          389 
    6800  0.088067046   -7.6168205    3668.8276          384 
    6900  0.090785988   -7.6174974    3670.5674          385 
    7000  0.090598981   -7.6173055    3669.9943          379 
    7100  0.090485637   -7.6200384    3668.4555          381 
    7200  0.090088273   -7.6218057    3670.9904          357 
    7300  0.091132027   -7.6147842    3668.2416          275 
    7400  0.091459609   -7.6229041    3668.7394          349 
    7500   0.08922818   -7.6268383    3670.7472          379 
    7600  0.091555528   -7.6201653    3664.8135          388 
    7700  0.091090193   -7.6242856    3670.9123          389 
    7800  0.090377828   -7.6258281    3668.4044          435 
    7900  0.091278859   -7.6257319    3665.0754          444 
    8000   0.09002912   -7.6306178    3668.3941          376 
    8100  0.090062395   -7.6272836     3666.531          445 
    8200   0.09014307   -7.6307326    3665.8475          468 
    8300  0.089918015   -7.6333991    3666.5023          433 
    8400  0.089197007   -7.6350117    3664.0345          461 
    8500  0.089445416   -7.6343906    3665.1515          467 
    8600  0.089600901   -7.6328191    3665.8059          457 
    8700  0.089182908   -7.6312775    3665.6508          445 
    8800  0.090936358   -7.6335941    3665.3544          519 
    8900  0.090028586   -7.6368846    3664.4234          473 
    9000  0.089891019   -7.6362688    3664.2274          528 
    9100  0.087358029   -7.6348685    3665.1569          521 
    9200  0.087760298   -7.6384797    3663.5828          437 
    9300   0.09077287   -7.6384062    3663.6833          484 
    9400  0.092883627   -7.6383987    3663.8383          509 
    9500  0.091066115   -7.6411287    3662.8917          486 
    9600  0.089142229   -7.6415804    3662.8188          522 
    9700   0.09096778   -7.6397326    3663.5499          533 
    9800  0.089214048   -7.6385384    3663.5176          517 
    9900  0.088723381   -7.6418564    3662.7892          478 
   10000  0.089321872   -7.6416549    3662.7634          547 
   10100   0.08948968   -7.6398443    3663.1358          452 
   10200   0.09118211    -7.644126    3662.4102          491 
   10300  0.088847242    -7.642752    3662.3589          555 
   10400  0.092309513   -7.6416749    3662.2335          523 
   10500  0.090659076   -7.6448551    3663.0141          516 
   10600  0.090958081   -7.6445721    3661.6903          417 
   10700  0.089915809    -7.644518    3661.8808          366 
   10800  0.089225048   -7.6462082    3662.8557          430 
   10900   0.08952425   -7.6408298    3661.2996          466 
   11000  0.090042924   -7.6431229    3663.3702          428 
   11100  0.090073499   -7.6470362    3662.3752          472 
   11200  0.089608329   -7.6422976    3659.6868          498 
   11300   0.09129469   -7.6507358    3664.2023          477 
   11400  0.088560481   -7.6447903    3660.6718          468 
   11500  0.091639739   -7.6449572    3658.7616          541 
   11600  0.090588652   -7.6500415     3665.369          537 
   11700   0.08904626   -7.6410143    3659.9222          621 
   11800  0.088436795   -7.6479245    3660.7916          631 
   11900  0.089765164   -7.6484479    3662.3742          615 
   12000  0.091044767   -7.6447823    3660.4002          644 
   12100  0.090606559   -7.6473081    3661.8431          597 
   12200  0.089005224   -7.6479174    3661.5309          547 
   12300  0.088487048   -7.6464958    3660.1462          540 
   12400  0.091379001   -7.6497153    3662.5004          567 
   12500  0.089466669   -7.6471447    3660.3398          580 
   12600  0.090503936    -7.649552    3659.7728          629 
   12700  0.090838514    -7.650436    3662.6051          620 
   12800  0.090204321    -7.646783    3659.1704          616 
   12900  0.090057443    -7.651413    3660.7509          631 
   13000  0.090525037   -7.6518866    3662.3181          606 
   13100  0.093520773   -7.6448044    3658.7225          626 
   13200  0.090730276   -7.6520814    3662.5885          627 
   13300   0.08879334   -7.6500815    3660.5735          701 
   13400  0.089219341   -7.6465735    3658.6241          705 
   13500  0.088142499   -7.6545165     3662.974          655 
   13600  0.088751457   -7.6500004    3658.7301          646 
   13700  0.090322698   -7.6504872    3659.4986          656 
   13800  0.088995476   -7.6544077    3662.3609          693 
   13900  0.089118516   -7.6510597      3657.61          638 
   14000  0.090689278    -7.652462    3660.5988          649 
   14100  0.090862563   -7.6511353    3661.3368          611 
   14200  0.089297003   -7.6506153     3658.644          679 
   14300  0.089902866   -7.6525962    3660.6907          692 
   14400  0.088291676   -7.6516428     3659.924          659 
   14500  0.089296289   -7.6541924    3658.8222          656 
   14600  0.089857208   -7.6519945    3660.7283          616 
   14700   0.08931719   -7.6535672    3659.2721          606 
   14800  0.087431865   -7.6551062    3658.9486          667 
   14900  0.088806764     -7.65382    3660.1597          692 
   15000   0.09066205   -7.6533565      3659.07          681 
   15100  0.089259241   -7.6565846    3659.0242          675 
   15200  0.090970855   -7.6555494    3658.6686          643 
   15300   0.09087735   -7.6525581    3659.3967          665 
   15400  0.089309374   -7.6556309    3659.1847          650 
   15500  0.091922806   -7.6565809    3658.8863          674 
   15600  0.090347828   -7.6552814    3658.7471          722 
   15700  0.089193363   -7.6567982    3659.1254          690 
   15800  0.091290779    -7.655341    3658.7692          764 
   15900  0.088789262    -7.656164    3658.5806          725 
   16000  0.089393212   -7.6578901    3659.7143          739 
   16100  0.090964756   -7.6535662    3657.9296          726 
   16200  0.089324643   -7.6576161    3659.0935          728 
   16300  0.088422675   -7.6582538     3660.175          770 
   16400  0.089806714   -7.6510998    3656.4843          732 
   16500  0.089999616   -7.6588432    3661.4175          752 
   16600  0.091372129   -7.6560255    3658.7879          758 
   16700  0.090177657   -7.6550698    3655.2966          744 
   16800  0.090815433    -7.662377    3661.4663          752 
   16900  0.090138362   -7.6552022    3657.1836          768 
   17000  0.089579526   -7.6575439    3658.2271          715 
   17100  0.090606439   -7.6597413    3659.2508          731 
   17200  0.092234192   -7.6559305    3658.0521          791 
   17300  0.090324987     -7.65871     3658.842          814 
   17400   0.08963777   -7.6580328    3659.0322          796 
   17500  0.091011571   -7.6531811    3658.7713          793 
   17600  0.091499196   -7.6580616    3659.2216          785 
   17700  0.089273913   -7.6583333    3658.1681          786 
   17800  0.089714822   -7.6583731    3657.0929          759 
   17900  0.090337489   -7.6589146    3660.2774          762 
   18000  0.088497837   -7.6572412    3657.2565          802 
   18100  0.088245603   -7.6569582    3657.3441          823 
   18200  0.090438202   -7.6599274    3660.9806          823 
   18300  0.090367711   -7.6551926    3655.8406          863 
   18400  0.089933444    -7.661995    3657.8716          860 
   18500  0.089487208   -7.6614295     3659.826          877 
   18600  0.090221743   -7.6544978    3655.3728          890 
   18700  0.091394062   -7.6629018    3659.3638          874 
   18800  0.089924255   -7.6602828    3658.0078          895 
   18900  0.090270348   -7.6573055    3656.3516          893 
   19000  0.089132432   -7.6610406    3659.0738          844 
   19100  0.090498805   -7.6570572    3657.8285          873 
   19200   0.08956521   -7.6612855     3657.192          885 
   19300  0.090014782   -7.6608012    3658.3062          827 
   19400  0.090757401   -7.6597626    3656.9557          855 
   19500  0.090651471   -7.6601741    3657.5238          832 
   19600  0.090598878    -7.657943    3659.1185          839 
   19700  0.090820911   -7.6549624     3657.329          803 
   19800  0.088495713   -7.6612975    3658.7559          820 
   19900  0.091415779   -7.6607074    3658.5793          863 
   20000  0.090174865   -7.6551654    3654.6384          875 
   20100  0.091656233   -7.6651451    3660.0753          851 
   20200  0.089878491   -7.6597075    3656.3587          849 
   20300   0.08770721   -7.6596254    3655.7223          836 
   20400  0.089627018   -7.6631944    3660.3992          837 
   20500  0.090446584   -7.6569524    3655.9147          799 
   20600   0.09047259   -7.6611951    3657.0625          833 
   20700  0.091517809    -7.660679    3659.2238          895 
   20800  0.089388945   -7.6580519    3656.2193          834 
   20900  0.088832726   -7.6592904    3658.1388          861 
   21000   0.09175974   -7.6615695    3657.6091          906 
   21100  0.088836617   -7.6603112    3656.8611          885 
   21200  0.092028276   -7.6621724      3657.64          859 
   21300  0.089205565   -7.6613523    3657.0146          881 
   21400  0.089292474   -7.6610784     3656.769          865 
   21500  0.090062145   -7.6587582    3658.4798          904 
   21600  0.089019328   -7.6589322    3657.0539          867 
   21700  0.090205229   -7.6617326    3656.6179          894 
   21800  0.092977935   -7.6616665    3658.4421          893 
   21900  0.089643236   -7.6575155    3656.0259          896 
   22000  0.089776356    -7.661847    3657.6467          889 
   22100  0.090724604   -7.6633959    3657.9152          887 
   22200  0.088008394   -7.6593412    3653.8303          811 
   22300  0.090495762   -7.6659204    3658.7036          868 
   22400  0.089582857   -7.6589073    3657.3343          895 
   22500  0.088562666   -7.6571188    3655.3326          829 
   22600  0.088888035   -7.6664161    3659.2295          869 
   22700  0.091993968   -7.6598767    3655.3755          833 
   22800  0.088859266   -7.6601195    3656.5228          852 
   22900  0.086616368   -7.6652971    3658.6239          813 
   23000  0.090488999   -7.6610943    3655.1801          895 
   23100  0.090320205   -7.6614452    3657.6623          900 
   23200  0.089491596    -7.662272    3657.2498          902 
   23300  0.090258552    -7.661227    3656.0477          892 
   23400  0.092168853   -7.6611588    3657.9883          935 
   23500  0.089966864   -7.6616602    3657.0308          926 
   23600  0.089756669    -7.662958    3655.9879          878 
   23700  0.089953948   -7.6619643    3657.8557          885 
   23800  0.091484578   -7.6596675    3656.9821          895 
   23900  0.088217929   -7.6610137    3656.7521          859 
   24000  0.091182325   -7.6639408    3658.2076          856 
   24100  0.089411042   -7.6611402    3654.1796          923 
   24200  0.089524159   -7.6633847      3657.92          957 
   24300   0.09022235   -7.6650171    3658.3139          935 
   24400  0.090602213   -7.6592072    3653.5011          935 
   24500  0.091289098   -7.6640742    3659.7886          944 
   24600  0.090258359   -7.6632137    3656.8723          907 
   24700  0.090821616   -7.6600718    3654.0961          899 
   24800  0.090462004   -7.6652626    3659.5735          940 
   24900  0.088673576   -7.6622487    3655.4908          920 
   25000  0.088139003   -7.6626241    3656.1833          885 
   25100  0.089739109   -7.6620297     3657.448          945 
   25200  0.090346936   -7.6601909    3656.5846          891 
   25300  0.089993633   -7.6628755    3656.9253          896 
   25400  0.089208124   -7.6628855    3656.5526          942 
   25500  0.090299446   -7.6603443    3656.5094          916 
   25600  0.090916833   -7.6640921    3657.2994          926 
   25700  0.092088953    -7.664029    3656.1265          931 
   25800  0.091026968   -7.6623541     3655.436          916 
   25900  0.089094859   -7.6630824    3659.7347          925 
   26000  0.090561631   -7.6589184    3655.1033          931 
   26100   0.08935314   -7.6620679     3656.311          934 
   26200  0.089374132   -7.6661648    3658.7473          927 
   26300  0.088977352   -7.6585193    3653.5582          919 
   26400   0.09134639   -7.6647598    3658.1899          910 
   26500   0.09060682   -7.6654403    3657.4556          889 
   26600   0.08967188   -7.6590505    3654.0811          893 
   26700  0.091222129   -7.6644332     3659.172          920 
   26800  0.090559168   -7.6621607    3655.9002          947 
   26900  0.088701177   -7.6618693    3655.2892          931 
   27000  0.089899152   -7.6626576    3657.9932          917 
   27100  0.090765153   -7.6615862    3655.9999          900 
   27200  0.089024235   -7.6628915    3656.4277          939 
   27300  0.089736764   -7.6611438    3657.4528          907 
   27400  0.089472732   -7.6598733    3656.7313          930 
   27500  0.088313801   -7.6630637    3656.5621          908 
   27600  0.090779688   -7.6649796    3656.4325          865 
   27700  0.090127932   -7.6613926    3655.3421          934 
   27800  0.093823274   -7.6652052    3657.6217          906 
   27900  0.090862603   -7.6633936     3656.314          929 
   28000  0.090299406   -7.6623809    3654.2488          933 
   28100   0.08962554   -7.6675196    3659.0831          951 
   28200  0.092377896   -7.6598905    3654.5547          890 
   28300  0.090303979   -7.6635816    3655.7025          957 
   28400  0.090114438   -7.6675362    3658.9788          987 
   28500  0.089993927   -7.6583295    3653.6504          950 
   28600  0.089504961   -7.6655081    3657.3103          946 
   28700  0.089309653   -7.6651154    3657.0114          947 
   28800  0.090398928   -7.6607883    3655.2333          944 
   28900  0.090344639   -7.6663291    3656.4409          947 
   29000  0.091493535   -7.6660699    3655.3326          985 
   29100  0.090866643   -7.6607253    3656.8213          962 
   29200  0.091494453   -7.6652628    3657.2116          978 
   29300  0.088707676   -7.6633384    3655.1269          949 
   29400  0.090634108   -7.6656242    3655.6842          972 
   29500   0.09272552   -7.6655248    3657.7515          948 
   29600  0.089129968   -7.6602372    3653.5698          964 
   29700  0.089331548   -7.6669945    3657.8915          847 
   29800  0.090928631   -7.6691465    3656.0631          918 
   29900  0.091103081   -7.6593029     3653.341          863 
   30000  0.089499381   -7.6681618    3658.8313          952 
   30100  0.089318468   -7.6649894    3654.4202          939 
   30200  0.089358958   -7.6665485    3653.8509          951 
   30300  0.089315862   -7.6669663    3658.1089          934 
   30400  0.090578962   -7.6621652     3654.648          944 
   30500   0.09249029   -7.6648456    3655.9566          927 
   30600  0.089287253   -7.6663892    3656.3395          937 
   30700  0.087888148   -7.6624884    3655.4287          950 
   30800  0.089825795    -7.664256    3656.2107          947 
   30900  0.088833374   -7.6672121    3654.8446          931 
   31000  0.089818912   -7.6650153    3655.3669          901 
   31100  0.089904144   -7.6654469    3655.8945          892 
   31200  0.089592137   -7.6659755    3655.4379          910 
   31300  0.090412996   -7.6658095     3655.046          923 
   31400  0.091754943   -7.6654675    3656.2186          950 
   31500  0.089576258   -7.6647483    3655.3378          911 
   31600  0.090023174   -7.6651152    3655.2773          950 
   31700  0.090923172   -7.6683969    3656.4213          944 
   31800  0.088888229   -7.6653239    3653.9728          935 
   31900  0.090988251   -7.6644559    3655.9521          977 
   32000  0.090012858   -7.6683452    3656.5302          944 
   32100  0.091101419   -7.6634676    3653.0149          950 
   32200   0.08836941   -7.6691532    3656.9785          947 
   32300  0.089393873   -7.6673138    3655.8707          976 
   32400  0.090162948    -7.661429    3652.6368          957 
   32500  0.089861471   -7.6724374    3658.4796          983 
   32600  0.090061052   -7.6634369    3654.2058          970 
   32700  0.091008539   -7.6645449     3654.224         1025 
   32800  0.091538584   -7.6717594    3656.8547          960 
   32900  0.089523675   -7.6653503    3653.5747          972 
   33000  0.089224462    -7.669904    3654.4464          964 
   33100  0.090359827   -7.6686279    3655.8939          989 
   33200  0.090343698    -7.664055    3654.4629         1007 
   33300  0.089317861   -7.6674194    3655.9525         1001 
   33400   0.08940397    -7.667613    3655.5297          997 
   33500   0.09157099   -7.6666079    3653.9007          988 
   33600  0.088526139   -7.6698172    3656.5273          996 
   33700  0.089369737   -7.6679139    3654.4309         1017 
   33800  0.091364133   -7.6670269    3653.7442          989 
   33900  0.088997775   -7.6714471    3657.8054          999 
   34000  0.090561992   -7.6683687    3651.9594         1007 
   34100  0.089091539   -7.6694548    3654.4873         1027 
   34200  0.092297113   -7.6735164    3658.1407         1045 
   34300  0.090911277     -7.66296    3650.8018         1038 
   34400  0.090234474    -7.673194    3656.7398         1024 
   34500  0.089645777   -7.6715777    3655.7832         1019 
   34600  0.090666606   -7.6660385    3652.8272         1031 
   34700  0.090595701   -7.6698302    3656.8034         1056 
   34800  0.091337354   -7.6714856    3654.0299         1015 
   34900  0.087294887   -7.6675504    3654.2758         1061 
   35000  0.089891517   -7.6708843     3656.285         1047 
   35100  0.088718439   -7.6698009    3653.2737         1062 
   35200    0.0908267   -7.6689692     3654.584         1066 
   35300  0.089242425   -7.6707322    3656.6054         1040 
   35400  0.088808068   -7.6645057    3652.2393         1031 
   35500  0.088491717   -7.6751902    3656.3248         1012 
   35600  0.088941137   -7.6717181    3657.5839         1032 
   35700  0.091840682   -7.6640927    3650.4325         1077 
   35800  0.088702313   -7.6766422    3656.8718         1037 
   35900  0.089912788   -7.6700114    3653.9192         1072 
   36000  0.090689893   -7.6684543    3653.0594         1086 
   36100  0.091281471   -7.6746582    3656.3364         1055 
   36200  0.088793335   -7.6704669    3652.9532         1060 
   36300  0.089567324   -7.6703347     3654.364         1065 
   36400  0.088760582   -7.6726263    3656.5059         1079 
   36500  0.089220765   -7.6692134    3652.2374         1063 
   36600  0.091300099   -7.6718292    3655.6632         1061 
   36700  0.089579082   -7.6729493    3655.2299         1009 
   36800   0.08829627   -7.6664668    3649.9388         1064 
   36900  0.091148067   -7.6797224    3658.9422         1067 
   37000  0.091855977   -7.6689961    3653.3161         1055 
   37100   0.08923921   -7.6687373    3652.2445         1097 
   37200   0.08934903   -7.6740664    3657.0995         1090 
   37300  0.090632172    -7.668582     3653.071         1093 
   37400   0.08989162   -7.6704074    3654.3456         1103 
   37500  0.091308648   -7.6723113    3655.9135         1085 
   37600  0.090559865   -7.6687581    3652.5712         1081 
   37700  0.088831461   -7.6726677    3655.2973         1058 
   37800  0.092127917   -7.6744018     3654.434         1089 
   37900  0.090675062   -7.6690162    3651.6216         1033 
   38000  0.090028689   -7.6733343    3658.4171         1088 
   38100  0.090379957   -7.6713436     3652.529         1059 
   38200  0.089882522    -7.666481    3650.2867         1060 
   38300  0.087866568   -7.6770471    3659.4666         1031 
   38400  0.091582314   -7.6659182    3652.5963         1061 
   38500  0.089786924   -7.6694343    3654.6294         1084 
   38600  0.090350275   -7.6745573    3656.1589         1060 
   38700  0.087960786   -7.6677813    3652.2711         1033 
   38800  0.088848428   -7.6731778    3655.2152         1052 
   38900  0.091215389   -7.6730981    3655.0859         1091 
   39000  0.088802276   -7.6695678    3652.0906         1105 
   39100  0.089732392   -7.6774833    3655.1508         1073 
   39200  0.090285634   -7.6703336    3653.8106         1097 
   39300  0.089053029   -7.6691841    3652.6423         1119 
   39400  0.088774451     -7.68028    3656.0261         1110 
   39500  0.088082888   -7.6691509    3651.4402         1107 
   39600  0.090415862   -7.6715433    3653.6322         1142 
   39700  0.092565131   -7.6764282    3657.8773         1116 
   39800  0.089693345   -7.6682331    3651.1421         1099 
   39900  0.090057163   -7.6751506    3654.9829         1104 
   40000  0.089142127   -7.6764971    3653.4934         1134 
   40100   0.09084759   -7.6723474    3652.6092         1127 
   40200  0.090398274   -7.6744084    3655.0454         1156 
   40300  0.090217722   -7.6733957    3653.3544         1125 
   40400  0.089167674    -7.672107    3652.9284         1026 
   40500  0.089289186   -7.6721109    3655.9508         1119 
   40600  0.090808243   -7.6724284    3653.2848         1124 
   40700  0.088515224   -7.6737804    3653.4008         1124 
   40800  0.089471775   -7.6720208    3655.6844         1096 
   40900  0.089629152   -7.6703422    3652.4581         1097 
   41000  0.088938767   -7.6747701    3654.6443         1121 
   41100  0.090384824   -7.6740085    3654.6302         1124 
   41200  0.090333043    -7.669759    3651.8946         1113 
   41300  0.089376172   -7.6793704     3656.018         1140 
   41400  0.090419228   -7.6729405    3652.5383         1107 
   41500  0.090960415   -7.6717471    3651.4432         1098 
   41600  0.091413748   -7.6806635    3657.1806         1096 
   41700  0.091298088   -7.6683822    3651.7554         1110 
   41800  0.088580599   -7.6737306    3653.4089         1088 
   41900  0.091468072   -7.6760528    3654.4481         1128 
   42000  0.089975146   -7.6715773     3653.133         1101 
   42100  0.088333675   -7.6764675    3653.6622         1119 
   42200  0.086808507   -7.6720546    3654.6076         1157 
   42300  0.088407089   -7.6712283    3653.0771         1153 
   42400  0.089673574   -7.6741127     3654.753         1140 
   42500  0.088256559   -7.6729411    3653.5781         1107 
   42600  0.089891833   -7.6705201    3652.7007         1129 
   42700  0.088784229   -7.6758273    3657.0053         1132 
   42800  0.087958291   -7.6697014    3651.8899         1130 
   42900  0.089731706   -7.6738336    3652.9359         1112 
   43000   0.09015381    -7.678075    3656.4996         1115 
   43100  0.091832294   -7.6688323    3650.9287         1102 
   43200  0.089749499   -7.6763597    3654.3382         1110 
   43300  0.089311289    -7.677043    3654.4499         1113 
   43400  0.090220425   -7.6695013    3652.0269         1111 
   43500  0.090273836   -7.6751699    3655.1873         1013 
   43600  0.090011491   -7.6763243    3652.7136         1076 
   43700  0.090065797    -7.672293    3652.9845         1055 
   43800   0.09114534   -7.6752396    3654.1715         1080 
   43900  0.089958732   -7.6769201    3652.4962         1113 
   44000  0.091698072   -7.6757644    3653.0819         1089 
   44100  0.090300811   -7.6756935    3653.7402         1112 
   44200  0.090067185   -7.6754909    3652.7299         1110 
   44300  0.090318577   -7.6749833    3653.4953         1113 
   44400  0.089947243   -7.6730483    3654.3741         1031 
   44500  0.087993832    -7.674038    3652.5186         1102 
   44600  0.088970792   -7.6758142    3654.3485         1098 
   44700  0.092141118   -7.6750667      3653.48         1136 
   44800  0.090370531   -7.6729826    3651.9397         1133 
   44900  0.088841725    -7.676273    3655.5133         1122 
   45000  0.089418841   -7.6724024    3652.3016         1107 
   45100  0.088134477   -7.6728404    3652.8281         1142 
   45200  0.089073407   -7.6811545    3655.1825         1102 
   45300  0.090406084   -7.6715657    3650.8261         1034 
   45400  0.090113819   -7.6763944    3654.0928         1114 
   45500  0.087700462   -7.6794993    3654.7071         1127 
   45600  0.089657307   -7.6709342    3650.1528         1012 
   45700  0.091059943   -7.6778854    3655.7196         1132 
   45800  0.092229687   -7.6718515    3654.3695         1164 
   45900  0.090203942   -7.6718889    3652.0859         1129 
   46000  0.089501592   -7.6769335    3654.9375         1101 
   46100  0.088158657   -7.6753417    3652.8469         1145 
   46200   0.08989116    -7.674692    3653.0157         1068 
   46300  0.091049687   -7.6759206    3654.4763         1131 
   46400  0.089097583   -7.6760937    3652.0369         1020 
   46500  0.089620789   -7.6768182      3653.11         1155 
   46600  0.090921371   -7.6763167    3653.5289         1166 
   46700   0.09070064   -7.6743336    3653.1166         1164 
   46800  0.089030584   -7.6754221    3653.4443         1091 
   46900  0.088372011   -7.6754388    3653.3537         1130 
   47000  0.092264521    -7.676451    3652.7185         1060 
   47100  0.089271894   -7.6764214    3653.3647         1129 
   47200  0.089724919   -7.6779458    3652.4767         1138 
   47300  0.090478833   -7.6751954    3652.9987         1143 
   47400  0.088892611   -7.6768014    3653.8288         1123 
   47500  0.089576746   -7.6764346    3652.0252         1156 
   47600  0.090240066    -7.674889    3653.2554         1174 
   47700  0.089779318   -7.6769888    3654.6334         1138 
   47800  0.087192512   -7.6741395    3650.9495         1115 
   47900  0.090270826   -7.6790704    3653.4358         1120 
   48000  0.090754447   -7.6772754    3654.5179         1152 
   48100  0.091283778   -7.6711961     3649.781         1124 
   48200  0.089336005   -7.6815428    3655.4772         1160 
   48300  0.091573997   -7.6754384    3653.0761         1148 
   48400  0.090294453    -7.672812    3650.8495         1150 
   48500  0.089846391   -7.6801333    3655.6138         1157 
   48600  0.089468513   -7.6763466    3651.5447         1155 
   48700  0.090546346   -7.6765933    3652.7524         1146 
   48800  0.092203165   -7.6765653    3654.0165         1112 
   48900  0.090385605   -7.6785669    3651.4072         1170 
   49000   0.08975906   -7.6804015    3652.2845         1147 
   49100   0.08979906   -7.6770914    3653.6476         1053 
   49200  0.089699604   -7.6772275    3651.0786         1044 
   49300  0.090292079   -7.6806044    3653.2865         1112 
   49400  0.088512137   -7.6800449    3651.9046         1147 
   49500  0.089740164   -7.6770972    3650.1432         1170 
   49600  0.091633138   -7.6837446    3655.1107         1123 
   49700  0.089302353   -7.6788035    3649.8146         1140 
   49800   0.09048228   -7.6797228     3650.446         1170 
   49900  0.090271183   -7.6825252    3656.0867         1143 
   50000  0.089717698     -7.67762    3648.5736         1154 
   50100  0.090856605   -7.6821375    3652.0488         1144 
   50200   0.09294852   -7.6800481    3653.2557         1137 
   50300  0.091126579   -7.6799977    3649.9184         1125 
   50400  0.090028833   -7.6843669    3651.6587         1147 
   50500  0.092562367   -7.6826908    3651.1413         1175 
   50600   0.09150436   -7.6819359    3650.5398         1159 
   50700  0.088667478   -7.6841655    3651.5886         1206 
   50800  0.090079448   -7.6813033    3651.0788         1181 
   50900  0.092502264   -7.6823382    3650.7138         1169 
   51000  0.089349468    -7.684601    3651.6981         1164 
   51100  0.092759558   -7.6837016    3649.1423         1172 
   51200   0.09232648   -7.6822784    3651.4421         1062 
   51300  0.090696618   -7.6867333    3650.9847         1154 
   51400  0.091162397   -7.6815837    3649.2941         1031 
   51500  0.089821806   -7.6851002    3652.0472         1042 
   51600  0.090628287   -7.6832135    3651.6696         1148 
   51700   0.09181173   -7.6797028    3648.6664         1140 
   51800  0.088963379   -7.6886781    3654.2339         1152 
   51900  0.090174799   -7.6800062    3649.6032         1084 
   52000  0.089183873   -7.6777068    3650.3139         1213 
   52100  0.088460923   -7.6859693    3654.8965         1192 
   52200  0.090060319   -7.6826357    3648.4581         1193 
   52300  0.090120375   -7.6837882    3651.3186         1205 
   52400   0.09133697   -7.6840168    3651.8616         1173 
   52500  0.087472844   -7.6829075    3649.7268         1199 
   52600  0.089352068    -7.685893    3651.0204         1188 
   52700  0.091358673   -7.6832236    3651.2005         1217 
   52800  0.090456885     -7.68236    3649.9354         1214 
   52900  0.088733036   -7.6878766    3651.2063         1175 
   53000   0.08844838    -7.682831    3650.3918         1218 
   53100  0.091134437   -7.6835003    3649.6698         1203 
   53200  0.089588787   -7.6871183    3652.9509         1244 
   53300  0.087768721   -7.6807118    3648.8241         1216 
   53400  0.089467019   -7.6825131    3651.5658         1217 
   53500  0.092333204   -7.6878107    3652.9327         1255 
   53600  0.088098657   -7.6789564    3647.8989         1225 
   53700  0.090101378   -7.6843756    3652.9018         1184 
   53800  0.088116162   -7.6826086    3652.4101         1240 
   53900  0.090315557   -7.6824933    3648.0953         1246 
   54000  0.091658441   -7.6866799    3652.7703         1231 
   54100  0.090116976   -7.6835041    3650.4284         1240 
   54200  0.089750084   -7.6843682    3649.5453         1220 
   54300  0.091147928   -7.6854775    3652.3799         1231 
   54400  0.089877793   -7.6822164    3650.5673         1276 
   54500   0.08781914   -7.6840031    3650.6411         1251 
   54600  0.089444347   -7.6834459    3651.6826         1237 
   54700   0.08896902   -7.6816503    3650.7155         1252 
   54800  0.089999346   -7.6859769    3650.4708         1254 
   54900  0.089040935   -7.6854736     3650.339         1269 
   55000  0.088945903    -7.682035    3650.5153         1223 
   55100  0.090735622   -7.6842625    3651.0217         1244 
   55200  0.088504837   -7.6857496    3650.3695         1252 
   55300  0.089853167    -7.684744    3650.2679         1266 
   55400  0.092237168   -7.6853716    3651.0458         1259 
   55500  0.090110612   -7.6848302    3650.8952         1236 
   55600  0.088277815   -7.6842178    3650.0806         1232 
   55700  0.092302355   -7.6850799    3651.8309         1261 
   55800   0.08894375    -7.682592    3650.0647         1273 
   55900  0.091362867   -7.6842178    3650.4539         1252 
   56000  0.090903076   -7.6849605    3652.8002         1243 
   56100  0.089079561   -7.6815646    3648.3603         1241 
   56200  0.089694571   -7.6865731    3651.4396         1242 
   56300   0.08988984   -7.6853858    3652.3565         1265 
   56400  0.088993406   -7.6800439    3647.2432         1210 
   56500  0.086631959   -7.6887745    3653.6004         1259 
   56600   0.08875003   -7.6828045     3650.834         1263 
   56700  0.090729031   -7.6803333    3649.3049         1237 
   56800  0.092122469   -7.6887074    3651.6732         1232 
   56900  0.089320824   -7.6850989    3649.8272         1229 
   57000  0.090035506   -7.6827909    3650.8218         1231 
   57100  0.090271635   -7.6850349    3651.1211         1241 
   57200  0.091589696   -7.6847011    3649.8228         1242 
   57300  0.089242784   -7.6867885    3650.5913         1255 
   57400  0.089303139   -7.6848592    3651.3234         1281 
   57500  0.089790845   -7.6829699    3649.2689         1248 
   57600  0.089107296    -7.685638    3652.1936         1249 
   57700  0.092507285   -7.6849931    3650.6602         1245 
   57800  0.089347066   -7.6824272    3648.3874         1246 
   57900  0.090399967   -7.6886838     3653.215         1242 
   58000  0.089101064   -7.6809705    3649.4682         1251 
   58100  0.088485492   -7.6845169    3649.4399         1244 
   58200  0.090107892   -7.6872604    3653.5332         1263 
   58300  0.088468157   -7.6802579     3648.665         1241 
   58400  0.088441272   -7.6868854    3650.9223         1273 
   58500  0.090506131   -7.6872916    3651.4571         1251 
   58600  0.090093783   -7.6806321    3648.8584         1275 
   58700  0.089316452   -7.6873212    3651.5851         1240 
   58800  0.091301514   -7.6853995    3650.7459         1259 
   58900  0.087652843   -7.6789723    3649.8278         1289 
   59000  0.088675659   -7.6892987    3652.0888         1271 
   59100    0.0887853   -7.6835861    3649.9481         1282 
   59200   0.08943806    -7.682488    3649.9583         1261 
   59300  0.092709936   -7.6873809    3653.2082         1297 
   59400  0.090896328   -7.6818882    3647.7481         1249 
   59500  0.090100221   -7.6857002    3650.6782         1234 
   59600  0.089108164   -7.6883442     3654.282         1253 
   59700  0.090008557   -7.6779466    3645.9817         1250 
   59800  0.091853067    -7.686284    3653.0735         1240 
   59900  0.091001909   -7.6859126    3651.0048         1242 
   60000  0.090117005   -7.6842394    3648.7246         1282 
   60100  0.089726631   -7.6863906     3652.162         1277 
   60200  0.090679318   -7.6831104    3650.6281         1280 
   60300  0.089585941   -7.6831972    3650.3331         1264 
   60400  0.090150833   -7.6859402    3652.3794         1258 
   60500  0.088638223   -7.6835861    3649.2831         1264 
   60600  0.090854562   -7.6835797     3650.908         1237 
   60700  0.089514513   -7.6850789    3653.3167         1251 
   60800  0.088624877   -7.6806917    3647.4171         1287 
   60900  0.090056116   -7.6877488    3652.5683         1252 
   61000  0.088994068   -7.6850946     3652.173         1264 
   61100  0.092325097   -7.6793486    3647.1732         1247 
   61200  0.089673851   -7.6883948    3652.8905         1251 
   61300  0.090744012   -7.6837223    3650.4086         1244 
   61400  0.091185271   -7.6826285    3650.4692         1266 
   61500  0.089175017   -7.6862372    3651.3495         1290 
   61600  0.090693979   -7.6837441    3650.0014         1268 
   61700  0.092307994   -7.6823907    3651.3956         1246 
   61800  0.092919015   -7.6884119    3650.9761         1256 
   61900  0.091091323    -7.683978    3648.9679         1261 
   62000  0.093364015   -7.6860659    3651.8476         1250 
   62100  0.089554367   -7.6852489    3651.9627         1269 
   62200  0.089314183   -7.6801021    3647.1968         1257 
   62300  0.088443349   -7.6877073    3653.9935         1255 
   62400  0.093789816    -7.684421    3649.7713         1291 
   62500  0.089028868   -7.6814669    3648.2586         1291 
   62600  0.091120718   -7.6885498    3653.4505         1277 
   62700  0.090718498   -7.6815454    3649.0195         1245 
   62800  0.090834269   -7.6841262    3650.3096         1272 
   62900   0.08891052   -7.6875167    3652.3797         1269 
   63000  0.090024128   -7.6817767    3649.1896         1277 
   63100  0.092387365   -7.6856003    3650.9583         1234 
   63200  0.090223493   -7.6876312    3650.5374         1246 
   63300   0.09118004   -7.6840298    3650.1257         1268 
   63400  0.090398792   -7.6843645    3651.1011         1286 
   63500  0.090831394   -7.6847668     3650.507         1268 
   63600  0.090590372   -7.6847722    3650.1996         1248 
   63700  0.091853812   -7.6844379    3651.3301         1227 
   63800  0.088735132   -7.6818717    3650.8341         1244 
   63900  0.090846122   -7.6858611    3650.3281         1272 
   64000  0.088648502   -7.6845795    3651.2717         1237 
   64100  0.091088748   -7.6842205    3649.4852         1264 
   64200  0.092150267   -7.6844469    3651.7448         1249 
   64300  0.090852347   -7.6878217    3650.7756         1276 
   64400  0.091122487   -7.6828537    3648.9278         1274 
   64500   0.09049481   -7.6862809    3652.8251         1243 
   64600  0.089622746    -7.684202    3649.9948         1260 
   64700  0.088661393   -7.6818257    3648.7302         1271 
   64800  0.090519265   -7.6879813    3654.2859         1264 
   64900  0.089556169   -7.6809269    3648.2647         1252 
   65000  0.088155798    -7.685271    3650.0576         1222 
   65100  0.090703799      -7.6896    3653.2564         1246 
   65200  0.090763773   -7.6809159     3648.083         1259 
   65300  0.092814964   -7.6841086    3651.7484         1269 
   65400  0.088184031   -7.6838607    3651.4256         1249 
   65500  0.087204755   -7.6820782     3650.052         1262 
   65600   0.09063565   -7.6836396    3651.9168         1241 
   65700  0.090188645   -7.6857083    3650.1152         1282 
   65800  0.087453642   -7.6827413    3650.5282         1263 
   65900  0.088962429   -7.6834261    3652.3872         1256 
   66000  0.088968717   -7.6829926    3650.2619         1255 
   66100  0.088393321   -7.6867574    3649.6562         1268 
   66200  0.087871801   -7.6866616    3652.6835         1270 
   66300  0.091274782   -7.6807181    3647.7482         1287 
   66400    0.0907379   -7.6887584    3650.7971         1262 
   66500  0.090082349   -7.6892904    3651.3592         1279 
   66600  0.089856725     -7.67875    3648.1678         1277 
   66700  0.090780902   -7.6878742    3652.8153         1267 
   66800  0.089801941   -7.6870673    3649.6623         1257 
   66900  0.088918393   -7.6822125    3648.9535         1252 
   67000  0.090843334   -7.6877001    3652.1647         1264 
   67100   0.09149178   -7.6828938    3650.0881         1259 
   67200  0.089365931   -7.6841039     3650.252         1235 
   67300   0.08959364   -7.6869546    3651.4021         1272 
   67400  0.090337112   -7.6834946     3650.435         1265 
   67500  0.090133174   -7.6820458    3651.5978         1244 
   67600  0.089600015   -7.6850853      3650.99         1250 
   67700    0.0913267   -7.6846123    3650.0594         1297 
   67800  0.091359654   -7.6829135    3651.6048         1244 
   67900  0.088090805   -7.6827024    3651.3977         1248 
   68000  0.089289388   -7.6855139    3649.8338         1256 
   68100  0.089054543   -7.6837952    3651.4981         1246 
   68200  0.089529426   -7.6832171    3650.9349         1260 
   68300  0.090183616   -7.6838583    3650.5154         1288 
   68400   0.09136292   -7.6894157    3650.2274         1267 
   68500  0.091127659    -7.682756    3649.9629         1238 
   68600   0.09012509   -7.6833544    3651.5078         1246 
   68700  0.089831961   -7.6880563    3650.8187         1252 
   68800  0.089682733   -7.6831527    3648.8113         1262 
   68900  0.090694661   -7.6861439    3652.1873         1273 
   69000  0.090849419   -7.6865464    3650.6486         1238 
   69100   0.09057573    -7.680054    3648.7996         1251 
   69200  0.091838834     -7.69022    3653.5582         1253 
   69300  0.088125979   -7.6828684     3649.424         1249 
   69400  0.089640376   -7.6814839    3649.2093         1249 
   69500  0.089480138   -7.6856739    3654.8156         1262 
   69600   0.08984767   -7.6816099      3648.76         1253 
   69700  0.090994478    -7.686066    3650.4432         1293 
   69800  0.087661215   -7.6854298     3651.497         1263 
   69900  0.089765188   -7.6823585    3650.1038         1244 
   70000  0.091083854   -7.6846403    3651.3377         1267 
   70100  0.089967141   -7.6839094    3651.0576         1238 
   70200  0.088544806   -7.6852641    3649.3971         1282 
   70300  0.090184452   -7.6853442    3651.8142         1276 
   70400  0.089989745   -7.6833022    3650.0908         1234 
   70500  0.086932848   -7.6841126    3649.6801         1273 
   70600  0.088731138   -7.6879101     3653.065         1279 
   70700  0.090058184    -7.680162    3648.7794         1272 
   70800  0.088265113   -7.6843084    3651.0934         1228 
   70900  0.089814284   -7.6886081    3652.6031         1256 
   71000  0.090860988   -7.6790202    3648.0784         1264 
   71100  0.089345102   -7.6881163    3651.8178         1265 
   71200  0.089621134    -7.686682    3650.7042         1255 
   71300  0.089808009   -7.6807483    3649.7964         1251 
   71400    0.0901413   -7.6857937    3651.8871         1243 
   71500  0.089392731    -7.685249    3649.8168         1244 
   71600  0.089033453   -7.6860807    3649.7515         1274 
   71700  0.091685121   -7.6856066    3651.1098         1267 
   71800   0.08938929   -7.6845326    3650.3539         1253 
   71900  0.089338372   -7.6871214    3650.0495         1244 
   72000  0.089806968   -7.6844598    3651.8874         1272 
   72100   0.09030516   -7.6825432    3650.2247         1285 
   72200  0.092217557   -7.6875242     3650.987         1225 
   72300  0.088457202   -7.6848541    3651.9125         1240 
   72400  0.090472271   -7.6798446     3649.038         1246 
   72500  0.091033618   -7.6886164    3652.7501         1246 
   72600   0.08920646   -7.6844226    3650.6086         1243 
   72700   0.09106646   -7.6802863    3649.4173         1259 
   72800  0.089955675   -7.6878315    3653.6697         1249 
   72900  0.089484739   -7.6819643    3649.1695         1283 
   73000  0.091069859   -7.6813504     3650.767         1268 
   73100  0.090555589   -7.6885567    3652.4205         1274 
   73200  0.089861524   -7.6821238    3648.4578         1244 
   73300  0.091547381   -7.6846757    3652.0469         1259 
   73400  0.090947488   -7.6860474    3651.0288         1254 
   73500  0.087345561   -7.6815202    3650.0838         1264 
   73600  0.089756563   -7.6838949    3651.6727         1245 
   73700  0.090014941   -7.6838282     3650.753         1277 
   73800  0.089935293   -7.6839069    3650.2259         1242 
   73900  0.088168657   -7.6854617    3651.4836         1249 
   74000  0.090442155    -7.682472    3650.3503         1245 
   74100  0.092538354   -7.6797856    3651.6601         1277 
   74200  0.091767477   -7.6859284    3652.5744         1264 
   74300  0.089743983   -7.6811027    3647.7672         1264 
   74400  0.088669494    -7.686224    3652.6732         1252 
   74500  0.090482065   -7.6842824     3652.609         1274 
   74600  0.088458142    -7.679387    3647.3843         1270 
   74700  0.087981397   -7.6871749    3653.8336         1268 
   74800  0.088108046   -7.6820066    3650.6968         1245 
   74900  0.091171976   -7.6819962    3649.3894         1240 
   75000  0.088508642   -7.6847926    3653.0412         1262 
   75100  0.087553698   -7.6818803    3650.0728         1259 
   75200  0.091526916   -7.6847991    3650.4189         1262 
   75300  0.087308734   -7.6857615    3651.2055         1252 
   75400  0.088847538   -7.6828775    3650.0213         1261 
   75500  0.090175326    -7.683225    3651.2963         1282 
   75600  0.090081473   -7.6860122    3650.6492         1253 
   75700  0.087461723   -7.6866777     3649.736         1247 
   75800  0.089318704    -7.684966    3650.5572         1251 
   75900  0.090711489   -7.6827731    3651.1297         1250 
   76000  0.090428358   -7.6830815    3650.7423         1248 
   76100  0.087520959   -7.6834264    3651.3438         1250 
   76200  0.089200281   -7.6849928    3650.5118         1278 
   76300  0.090217811    -7.686005    3649.6842         1266 
   76400  0.091107061   -7.6848617    3651.3643         1245 
   76500  0.089480685   -7.6833208    3650.8693         1242 
   76600  0.088601794   -7.6860252    3649.5845         1255 
   76700  0.088270917   -7.6855364     3651.785         1260 
   76800  0.089699697    -7.681505    3649.7296         1251 
   76900  0.089448203   -7.6841192    3651.1387         1249 
   77000  0.088812928   -7.6864075    3651.9321         1255 
   77100   0.09028538   -7.6807789    3648.0541         1264 
   77200  0.091996389   -7.6862749    3653.0343         1249 
   77300  0.089478689   -7.6860299    3651.2071         1265 
   77400  0.089566181   -7.6812078    3646.8806         1304 
   77500  0.091475859   -7.6887085    3654.1527         1287 
   77600  0.089416212   -7.6824146    3649.7628         1267 
   77700    0.0886703   -7.6854312     3649.265         1253 
   77800  0.091611415   -7.6878357    3651.1538         1249 
   77900  0.089185307   -7.6822727    3650.1078         1265 
   78000  0.089897488   -7.6822778    3651.4511         1274 
   78100  0.091598254   -7.6868718    3650.8309         1262 
   78200  0.088769092   -7.6847488    3649.4222         1239 
   78300  0.089721569   -7.6838281    3651.8303         1241 
   78400  0.088502062   -7.6851976    3651.1483         1278 
   78500  0.089006171   -7.6805649     3649.399         1267 
   78600  0.089726593   -7.6863365    3653.1257         1244 
   78700   0.08853493   -7.6857501    3649.7144         1229 
   78800  0.089126366   -7.6837565    3647.8776         1256 
   78900  0.090261693   -7.6880786    3654.0969         1276 
   79000    0.0900587   -7.6819767    3648.9478         1259 
   79100  0.088420611   -7.6853928    3649.8541         1272 
   79200  0.090517984   -7.6873108    3652.9566         1257 
   79300  0.089248696   -7.6809302    3648.6498         1237 
   79400  0.091642307   -7.6825619    3652.3447         1215 
   79500  0.090320186   -7.6849608    3651.8742         1240 
   79600  0.090445553   -7.6841796    3648.9227         1236 
   79700  0.089062666   -7.6866937    3650.8779         1239 
   79800  0.090510232   -7.6830868    3651.0254         1269 
   79900  0.088343045   -7.6818831    3650.7952         1256 
   80000   0.08733081   -7.6870483    3650.4591         1279 
   80100  0.089149046   -7.6845672    3650.3719         1293 
   80200  0.091273506   -7.6851226    3650.6688         1278 
   80300  0.088595883   -7.6853069    3650.9058         1276 
   80400  0.087864092   -7.6817937    3650.8492         1260 
   80500  0.090879884   -7.6833613    3651.0289         1277 
   80600  0.088173278   -7.6852894    3651.3951         1252 
   80700  0.089743484     -7.68325    3650.1149         1266 
   80800  0.090452009   -7.6828687     3651.534         1264 
   80900  0.089746318   -7.6850099     3650.959         1274 
   81000  0.089652752   -7.6838686    3649.3577         1277 
   81100  0.092518426   -7.6861041    3651.6004         1242 
   81200    0.0908312   -7.6848755    3650.3802         1243 
   81300  0.089070486    -7.683013     3649.185         1261 
   81400  0.092395196   -7.6890621     3652.292         1233 
   81500  0.088071856   -7.6845298    3648.8002         1239 
   81600  0.090028655   -7.6838003    3649.5126         1265 
   81700  0.089472232   -7.6889009    3654.5524         1259 
   81800  0.087872264   -7.6804233    3647.0797         1267 
   81900  0.090706877   -7.6862001    3651.0832         1275 
   82000  0.089892948   -7.6867535    3652.3419         1261 
   82100  0.089516341    -7.682142    3648.6286         1273 
   82200  0.088943799   -7.6851922    3651.6823         1257 
   82300  0.091443747   -7.6849571    3650.7241         1260 
   82400  0.091035589   -7.6837648     3649.465         1245 
   82500  0.090083893   -7.6879682    3651.1724         1260 
   82600  0.092169271   -7.6841453    3650.4826         1273 
   82700  0.092533814   -7.6867149    3648.9533         1267 
   82800  0.090034446   -7.6891307    3651.5319         1272 
   82900  0.091220815   -7.6829694    3649.3759         1301 
   83000  0.089990179   -7.6851102    3649.6827         1315 
   83100  0.090296117    -7.690619    3652.6223         1335 
   83200  0.091589149   -7.6826731    3646.9695         1337 
   83300  0.089897391   -7.6906074    3650.7104         1324 
   83400  0.090549886    -7.690465    3651.1452         1292 
   83500  0.091195727   -7.6816531    3647.4187         1314 
   83600  0.089278285   -7.6905843    3652.0528         1293 
   83700  0.090659897   -7.6892416    3649.5532         1317 
   83800  0.092499736   -7.6841666    3648.7728         1302 
   83900   0.09017953   -7.6880333    3652.2969         1297 
   84000  0.090153174   -7.6856431    3649.4128         1315 
   84100  0.088630531   -7.6883453    3648.6411         1285 
   84200  0.090030725   -7.6889454    3650.0674         1327 
   84300  0.090393287   -7.6858325    3649.6776         1319 
   84400  0.088644703   -7.6868836    3650.0784         1317 
   84500  0.089476583   -7.6882084    3649.9886         1301 
   84600  0.088940267   -7.6834711    3650.3587         1285 
   84700  0.090952492   -7.6877875    3649.9541         1324 
   84800  0.090358846   -7.6877456    3649.8308         1303 
   84900  0.090629694   -7.6893575    3648.3886         1295 
   85000  0.089000696   -7.6870378    3650.7761         1312 
   85100  0.089811442   -7.6851339    3649.5029         1320 
   85200  0.088883032   -7.6870326    3648.8891         1320 
   85300  0.088863251   -7.6935255    3649.8799         1277 
   85400  0.089418119    -7.686041    3648.0392         1293 
   85500  0.089917814   -7.6858681    3649.9763         1285 
   85600  0.089255301    -7.690749    3650.7999         1269 
   85700  0.088823641   -7.6841415    3647.2292         1315 
   85800  0.093070984   -7.6909459    3650.9266         1302 
   85900  0.089791451   -7.6904019    3650.3367         1310 
   86000  0.090652028    -7.684413     3645.623         1284 
   86100  0.091712677   -7.6902363      3653.63         1277 
   86200  0.090708338   -7.6864338    3648.4955         1269 
   86300  0.090900297   -7.6892754    3647.5099         1291 
   86400   0.08849868   -7.6916739    3650.4303         1305 
   86500  0.090246903   -7.6858279    3648.9489         1305 
   86600  0.090259274   -7.6903418    3648.7148         1328 
   86700  0.090014575   -7.6916975    3649.5395         1338 
   86800  0.090288236   -7.6854684    3648.6077         1328 
   86900  0.090624573   -7.6893841    3650.0424         1319 
   87000  0.087690317   -7.6902476    3649.7159         1303 
   87100  0.091494468   -7.6877588    3646.9808         1319 
   87200  0.090063202   -7.6932132    3651.8142         1319 
   87300  0.089226178   -7.6895464    3647.9561         1327 
   87400  0.090764483   -7.6827731    3646.6484         1323 
   87500  0.089659004   -7.6947721    3653.8818         1331 
   87600  0.090181598     -7.68633    3646.7212         1284 
   87700  0.089346733   -7.6880137    3648.6774         1319 
   87800  0.088526032   -7.6937061    3650.8238         1309 
   87900  0.090288246   -7.6868074    3647.2986         1348 
   88000   0.08856066   -7.6881118    3650.5159         1339 
   88100  0.089208278    -7.689661    3650.3322         1363 
   88200  0.090499247   -7.6885395    3646.4208         1334 
   88300  0.089796683   -7.6921974    3650.0448         1313 
   88400  0.091414312   -7.6880913    3649.3462         1323 
   88500   0.09079048   -7.6863735    3646.4986         1312 
   88600  0.089468316   -7.6969523     3653.721         1332 
   88700  0.090827636   -7.6830758    3646.7157         1315 
   88800  0.089716177   -7.6878333    3647.5219         1318 
   88900  0.090258587   -7.6937067    3652.1991         1343 
   89000  0.090352466   -7.6838381    3647.8078         1321 
   89100  0.087179094   -7.6885166    3650.0542         1326 
   89200  0.090112564   -7.6908887    3650.3799         1320 
   89300  0.092524454   -7.6853038    3647.7554         1331 
   89400  0.087215919   -7.6887515     3650.969         1319 
   89500  0.087941253    -7.689091    3649.4817         1296 
   89600  0.091988639   -7.6888489     3647.081         1327 
   89700  0.091172909    -7.691598    3651.8985         1340 
   89800  0.090334247   -7.6890154    3647.2596         1297 
   89900  0.091710341   -7.6891419    3647.3166         1336 
   90000  0.090849331   -7.6912944    3653.8162         1357 
   90100  0.090598163    -7.684299    3644.9747         1330 
   90200  0.089981939    -7.691517    3649.6999         1348 
   90300  0.089447557   -7.6946037    3650.4644         1310 
   90400  0.091081689   -7.6876431    3647.2745         1332 
   90500  0.089792263   -7.6907882    3649.9805         1335 
   90600  0.090361682   -7.6931221    3648.0587         1328 
   90700  0.090178006   -7.6892404    3647.9965         1305 
   90800  0.089995377   -7.6905407    3649.9495         1307 
   90900  0.091915008   -7.6877853    3648.6741         1310 
   91000  0.089142213   -7.6891472    3648.4978         1318 
   91100  0.089766582   -7.6924085     3650.439         1320 
   91200  0.089771823   -7.6855041    3647.3575         1334 
   91300  0.087701651   -7.6902271    3649.6568         1335 
   91400  0.090032585   -7.6929579     3651.261         1319 
   91500  0.089822874   -7.6830978    3645.5866         1306 
   91600   0.08889774   -7.6941679    3650.8884         1312 
   91700   0.08988819   -7.6897128    3649.9809         1298 
   91800  0.089965553   -7.6859843    3646.9654         1289 
   91900  0.089932586   -7.6949575    3650.3221         1314 
   92000  0.088659254   -7.6882268    3648.5545         1279 
   92100  0.090840095   -7.6898146    3647.9277         1329 
   92200  0.089948055   -7.6929747    3650.0271         1312 
   92300   0.09050592   -7.6900766    3647.6998         1327 
   92400  0.089246356   -7.6889194    3649.4072         1301 
   92500  0.088908513   -7.6934205     3649.015         1283 
   92600  0.089421872    -7.691087    3648.2523         1309 
   92700  0.088918399   -7.6885768    3649.7028         1292 
   92800  0.089663295   -7.6904831    3649.1512         1277 
   92900  0.089678361   -7.6934848    3647.8339         1267 
   93000  0.088758351   -7.6945484    3647.9226         1293 
   93100  0.090560742   -7.6910972    3648.6956         1289 
   93200  0.090090376    -7.690291     3648.874         1287 
   93300  0.089651965   -7.6944778    3648.2222         1312 
   93400  0.090801768   -7.6912074    3648.5221         1287 
   93500  0.090295956   -7.6896927    3648.5113         1309 
   93600  0.089792399   -7.6920715    3649.5585         1328 
   93700  0.089044401   -7.6933478    3647.1799         1294 
   93800   0.09043418   -7.6922786     3648.082         1293 
   93900  0.088958156   -7.6926037    3649.8258         1278 
   94000  0.091073277    -7.686797    3647.7412         1292 
   94100  0.090053561   -7.6915543    3649.3086         1296 
   94200   0.09226684   -7.6954475    3649.3686         1285 
   94300  0.089938913   -7.6871464    3645.8723         1288 
   94400  0.089248924   -7.6928387    3651.5044         1300 
   94500  0.087909042    -7.692974    3648.3292         1311 
   94600  0.089658862   -7.6893215    3646.2689         1296 
   94700   0.09004248   -7.6951951    3651.5055         1283 
   94800  0.092563958   -7.6886894    3647.5903         1301 
   94900  0.089413194   -7.6912841     3647.522         1313 
   95000  0.090504836   -7.6951171    3651.2108         1299 
   95100  0.091549135   -7.6890028    3646.3164         1275 
   95200  0.089841794   -7.6931626    3648.3362         1285 
   95300  0.088954797   -7.6939754    3650.3115         1287 
   95400  0.088646942   -7.6863211    3646.9839         1257 
   95500  0.091947227   -7.6939121    3649.8307         1279 
   95600  0.090390801   -7.6938911    3648.5235         1295 
   95700  0.091583355   -7.6882197    3647.4482         1310 
   95800   0.09141531   -7.6936395    3650.3475         1329 
   95900  0.088778727   -7.6901597    3648.2931         1327 
   96000  0.089614343   -7.6896812    3647.7911         1311 
   96100  0.091547455    -7.693688    3650.6616         1296 
   96200  0.091114171   -7.6900232     3647.176         1311 
   96300  0.089929571   -7.6925072    3648.1201         1309 
   96400  0.091263613   -7.6934296    3651.6863         1299 
   96500  0.091661168   -7.6860317    3644.4037         1273 
   96600  0.090465769   -7.6956796    3650.9342         1330 
   96700  0.091449001   -7.6935628    3650.7529         1315 
   96800  0.090804578   -7.6864202    3645.6931         1314 
   96900  0.089673975   -7.6946188    3650.2913         1292 
   97000  0.092732117   -7.6917158     3648.499         1292 
   97100  0.089202207   -7.6897992    3647.6722         1267 
   97200  0.089625774   -7.6948072     3649.909         1274 
   97300  0.091280835   -7.6903651    3647.9527         1284 
   97400  0.092157254   -7.6890692    3648.8858         1312 
   97500  0.090791756   -7.6943201    3650.5729         1306 
   97600  0.091860383   -7.6904768    3645.9528         1315 
   97700  0.090600651   -7.6914405    3649.8598         1308 
   97800  0.089059259   -7.6928347    3651.4704         1326 
   97900  0.088601095   -7.6866152    3643.6603         1337 
   98000  0.090851495   -7.6982554    3652.5301         1325 
   98100  0.089283599   -7.6905741    3649.5195         1305 
   98200  0.087670994   -7.6883889    3646.4495         1305 
   98300  0.089347375   -7.6946493    3650.4134         1294 
   98400  0.092690187   -7.6914835    3647.9458         1300 
   98500  0.089570186    -7.690151    3648.2851         1315 
   98600  0.088976119   -7.6936945    3649.8837         1321 
   98700  0.092022226   -7.6921753    3647.1075         1314 
   98800   0.09032835   -7.6914291    3648.7682         1310 
   98900   0.08874983   -7.6926374    3650.4341         1287 
   99000   0.08974593    -7.689269    3645.8297         1293 
   99100  0.089386343   -7.6929355    3651.8573         1304 
   99200  0.089955942   -7.6934344    3650.1504         1319 
   99300  0.090600854   -7.6870506    3643.9312         1348 
   99400  0.088654973   -7.6957307    3652.5236         1332 
   99500  0.090051809   -7.6897621    3648.2715         1332 
   99600  0.086632607   -7.6883696    3647.1888         1326 
   99700  0.089382554     -7.69459     3651.561         1343 
   99800  0.090525172    -7.689608    3646.8475         1327 
   99900  0.090460511   -7.6882111    3649.1726         1332 
  100000  0.090270662   -7.6942203     3650.239         1332 
  100100  0.090406378   -7.6886859    3646.5735         1344 
  100200  0.089194909   -7.6931443    3649.3026         1345 
  100300   0.08973544   -7.6922417    3649.5856         1351 
  100400  0.089508115   -7.6858282    3647.3138         1316 
  100500   0.08940616   -7.6947445    3650.5596         1309 
  100600  0.089791976   -7.6912033    3648.5578         1348 
  100700  0.090215004   -7.6872286    3646.5609         1320 
  100800  0.091867816   -7.6978971    3652.0579         1332 
  100900  0.090532093    -7.689527    3646.2859         1332 
  101000  0.090953869   -7.6911721    3647.4544         1326 
  101100  0.091661992   -7.6958326    3651.1485         1333 
  101200  0.089318746   -7.6901199    3645.8305         1369 
  101300  0.089125263    -7.692015    3649.0711         1328 
  101400  0.088912022   -7.6917629    3649.8749         1337 
  101500   0.09098937   -7.6884976    3647.7635         1352 
  101600  0.091636484   -7.6926136    3649.4277         1331 
  101700  0.088711019   -7.6917847    3649.0394         1324 
  101800  0.089132055   -7.6884436    3647.9012         1297 
  101900  0.090952004   -7.6924412    3650.5329         1314 
  102000  0.089082068   -7.6909538    3648.0494         1305 
  102100  0.092182628   -7.6912914     3647.159         1308 
  102200  0.090765615   -7.6931266    3652.8306         1330 
  102300  0.089015025   -7.6874077    3645.5808         1336 
  102400  0.088359229   -7.6910684     3649.132         1313 
  102500  0.089790086   -7.6926067    3652.1277         1307 
  102600  0.089417727   -7.6873984    3645.3676         1322 
  102700  0.090906839     -7.69515    3649.8566         1325 
  102800  0.087141129   -7.6928487    3649.2581         1290 
  102900  0.092359542   -7.6906023    3646.2445         1294 
  103000  0.088859556   -7.6937078    3650.8385         1296 
  103100   0.08886281   -7.6912985    3647.9566         1311 
  103200  0.092164747   -7.6891968    3647.5523         1328 
  103300  0.089850092   -7.6957637     3650.654         1337 
  103400  0.092630056   -7.6917911    3646.0858         1321 
  103500  0.089813658   -7.6908424    3648.6897         1337 
  103600  0.089069851   -7.6969486    3651.0654         1325 
  103700  0.089836114   -7.6854394    3643.9645         1343 
  103800  0.090503409   -7.6945986    3651.1426         1334 
  103900  0.088848393   -7.6951561    3650.3981         1333 
  104000  0.087391678   -7.6899753    3644.8549         1313 
Loop time of 293.328 on 18 procs for 100000 steps with 4000 atoms

Performance: 58910.110 tau/day, 340.915 timesteps/s
99.6% CPU use with 18 MPI tasks x no OpenMP threads

MPI task timing breakdown:
Section |  min time  |  avg time  |  max time  |%varavg| %total
---------------------------------------------------------------
Pair    | 41.859     | 43.803     | 45.995     |  17.8 | 14.93
Neigh   | 1.002      | 1.0342     | 1.064      |   1.8 |  0.35
Comm    | 9.642      | 11.613     | 13.634     |  28.3 |  3.96
Output  | 10.955     | 10.957     | 10.973     |   0.1 |  3.74
Modify  | 218.16     | 220.79     | 224.18     |  14.5 | 75.27
Other   |            | 5.13       |            |       |  1.75

Nlocal:        222.222 ave         229 max         214 min
Histogram: 1 0 1 2 4 1 4 3 0 2
Nghost:        2493.78 ave        2509 max        2473 min
Histogram: 1 0 0 1 5 2 3 2 2 2
Neighs:        28232.1 ave       29946 max       25922 min
Histogram: 1 0 1 0 3 5 4 2 0 2
FullNghs:      56463.6 ave       58348 max       54299 min
Histogram: 1 1 1 1 5 2 1 4 1 1

Total # of neighbors = 1016345
Ave neighs/atom = 254.08625
Neighbor list builds = 1273
Dangerous builds = 0

#clear
#
#next RN
#
#jump SELF
Total wall time: 0:04:55
