
units lj                  # Use reduced LJ style units
atom_style atomic         # Uncharged point particles
atom_modify map hash      # Needed for indexing of clusters etc
                          # Used to be able to find where atoms are in relation to each other.

# Define a lattice with which to populate the simulation cell. With units
# set to 'lj' the second argument to the lattice command is the reduced
# density rho* and the spacings are multiples of that required to acheive
# that density. Also define a simulation cell called 'box' in lattice units
# and fill it with atoms. Here we're creating a box which is ten lattice
# constants in each direction.
lattice fcc 1.0 spacing 1 1 1                 # All equal sizes - gives the right reduced density.
Lattice spacing in x,y,z = 1.5874011 1.5874011 1.5874011

region box block 0 10 0 10 0 10 units lattice # Defines a region, "box", in lattice units
create_box 1 box                              # Creates a simulation box as specified above,
Created orthogonal box = (0.0000000 0.0000000 0.0000000) to (15.874011 15.874011 15.874011)
  3 by 4 by 4 MPI processor grid
                                              # with one type of atom
create_atoms 1 box                            # Creates particles on lattice points
Created 4000 atoms
  using lattice units in orthogonal box = (0.0000000 0.0000000 0.0000000) to (15.874011 15.874011 15.874011)
  create_atoms CPU = 0.002 seconds


# Set the mass of the first (and only) atom type.
mass 1 1.0

# Lennard-Jones interactions between particles, 3.5 sigma cut-off. Apply
# long range tail corrections to energy and pressure and set all coefficients
# to unity since we work in reduced units here. Note that this doesn't shift
# the potential such that it goes to zero at the cutoff. That would require
# pair_modify('shift', 'yes').
pair_style lj/cut  3.5      # non-GPU version
pair_modify tail  yes
pair_coeff 1  1  1.0  1.0   # Intearaction between 1 and 1 set with epsilon = 1 and sigma = 1

write_data data.*
System init for write_data ...
Neighbor list info ...
  update every 1 steps, delay 10 steps, check yes
  max neighbors/atom: 2000, page size: 100000
  master list distance cutoff = 3.8
  ghost atom cutoff = 3.8
  binsize = 1.9, bins = 9 9 9
  1 neighbor lists, perpetual/occasional/extra = 1 0 0
  (1) pair lj/cut, perpetual
      attributes: half, newton on
      pair build: half/bin/atomonly/newton
      stencil: half/bin/3d
      bin: standard

#############################
#   M E L T   S Y S T E M   #
#############################

velocity all create 2.4 9622624 mom yes dist gaussian # Assign velocities
                                                    # Temperature 2.4, random number seed, zero linear momentum
						                                                        # Gaussian distribution

timestep 0.002   # simulation timestep
thermo 1000       # output thermodynamic data every 1000 steps

# Define a fix  in this case with index 1 applied to all
# particles in the simulation. This fix is for simulations
# in the anisotropic NPT ensemble. Note that we use the MTK
# correction.
fix 1 all npt temp 2.4 2.4 0.1 iso 5.68 5.68 0.5 mtk yes tchain 5 pchain 5 # Use NPT ensemble
                                                                         # Set temperature and pressure and damping
                                                                         # Numbers of thermostats in chain and in barostat
run 1000         # run for 10000 steps
Per MPI rank memory allocation (min/avg/max) = 3.642 | 3.644 | 3.648 Mbytes
Step Temp E_pair E_mol TotEng Press Volume 
       0          2.4   -8.3859253            0   -4.7868253   -2.2405722         4000 
    1000    2.3675277   -4.4709979            0  -0.92059417    5.6600046    5150.2326 
Loop time of 0.237691 on 48 procs for 1000 steps with 4000 atoms

Performance: 726993.719 tau/day, 4207.140 timesteps/s
99.1% CPU use with 48 MPI tasks x no OpenMP threads

MPI task timing breakdown:
Section |  min time  |  avg time  |  max time  |%varavg| %total
---------------------------------------------------------------
Pair    | 0.093414   | 0.10085    | 0.11716    |   1.4 | 42.43
Neigh   | 0.017906   | 0.018883   | 0.020376   |   0.4 |  7.94
Comm    | 0.066838   | 0.08406    | 0.097677   |   2.9 | 35.37
Output  | 2.5352e-05 | 2.5984e-05 | 3.3841e-05 |   0.0 |  0.01
Modify  | 0.024174   | 0.032332   | 0.04214    |   4.0 | 13.60
Other   |            | 0.001544   |            |       |  0.65

Nlocal:        83.3333 ave          90 max          75 min
Histogram: 3 2 3 4 10 0 12 2 7 5
Nghost:        1388.62 ave        1413 max        1360 min
Histogram: 1 2 4 4 7 12 8 6 2 2
Neighs:        7393.46 ave        8492 max        6395 min
Histogram: 2 3 7 3 11 8 7 4 2 1

Total # of neighbors = 354886
Ave neighs/atom = 88.721500
Neighbor list builds = 87
Dangerous builds = 21

# Equilibrate just above the melting temperature to avoid step fn in T

fix 1 all npt temp 1.25 1.25 0.1 iso 5.68 5.68 0.5 mtk yes tchain 5 pchain 5
run 1000
Per MPI rank memory allocation (min/avg/max) = 3.642 | 3.644 | 3.648 Mbytes
Step Temp E_pair E_mol TotEng Press Volume 
    1000    2.3675277   -4.4709979            0  -0.92059417    5.6600046    5150.2326 
    2000    1.2613379    -5.848842            0   -3.9573082    5.7258602    4335.5859 
Loop time of 0.214066 on 48 procs for 1000 steps with 4000 atoms

Performance: 807227.024 tau/day, 4671.453 timesteps/s
99.6% CPU use with 48 MPI tasks x no OpenMP threads

MPI task timing breakdown:
Section |  min time  |  avg time  |  max time  |%varavg| %total
---------------------------------------------------------------
Pair    | 0.09194    | 0.10011    | 0.10783    |   0.9 | 46.77
Neigh   | 0.015596   | 0.016589   | 0.017427   |   0.3 |  7.75
Comm    | 0.066803   | 0.073484   | 0.082614   |   1.2 | 34.33
Output  | 2.4775e-05 | 2.5254e-05 | 3.1908e-05 |   0.0 |  0.01
Modify  | 0.019419   | 0.021944   | 0.024351   |   0.9 | 10.25
Other   |            | 0.001912   |            |       |  0.89

Nlocal:        83.3333 ave          91 max          78 min
Histogram: 6 4 3 15 4 4 7 1 2 2
Nghost:        1554.67 ave        1575 max        1533 min
Histogram: 2 4 1 5 7 14 6 4 2 3
Neighs:        8779.02 ave        9592 max        8178 min
Histogram: 5 6 7 5 5 7 7 1 3 2

Total # of neighbors = 421393
Ave neighs/atom = 105.34825
Neighbor list builds = 76
Dangerous builds = 9


# Small amount of linear quench

fix 1 all npt temp 1.25 ${temp} 0.1 iso 5.68 5.68 0.5 mtk yes tchain 5 pchain 5
fix 1 all npt temp 1.25 0.6 0.1 iso 5.68 5.68 0.5 mtk yes tchain 5 pchain 5
run 2000
Per MPI rank memory allocation (min/avg/max) = 3.643 | 3.645 | 3.648 Mbytes
Step Temp E_pair E_mol TotEng Press Volume 
    2000    1.2613379    -5.848842            0   -3.9573082    5.7258602    4335.5859 
    3000   0.95970635   -6.2475827            0    -4.808383    5.6626744    4160.3217 
    4000   0.64420568   -6.7834838            0   -5.8174169    5.7637231    3944.8077 
Loop time of 0.450433 on 48 procs for 2000 steps with 4000 atoms

Performance: 767260.873 tau/day, 4440.167 timesteps/s
99.6% CPU use with 48 MPI tasks x no OpenMP threads

MPI task timing breakdown:
Section |  min time  |  avg time  |  max time  |%varavg| %total
---------------------------------------------------------------
Pair    | 0.20971    | 0.21992    | 0.24437    |   1.6 | 48.82
Neigh   | 0.025528   | 0.026591   | 0.030031   |   0.5 |  5.90
Comm    | 0.12901    | 0.15389    | 0.17134    |   2.4 | 34.16
Output  | 4.7727e-05 | 4.8993e-05 | 6.0998e-05 |   0.0 |  0.01
Modify  | 0.037432   | 0.044898   | 0.053934   |   1.9 |  9.97
Other   |            | 0.005089   |            |       |  1.13

Nlocal:        83.3333 ave          91 max          76 min
Histogram: 2 1 1 6 18 5 9 3 2 1
Nghost:        1659.33 ave        1676 max        1646 min
Histogram: 4 7 6 5 5 4 7 3 5 2
Neighs:        9713.12 ave       10501 max        8881 min
Histogram: 4 1 1 8 13 5 6 4 2 4

Total # of neighbors = 466230
Ave neighs/atom = 116.55750
Neighbor list builds = 116
Dangerous builds = 0

#############################
# F R E E Z E  S Y S T E M  #
#############################

# Define solid atoms. This closely follows ten Wolde  Ruiz-Montero and Frenkel  Faraday Discuss  1996  104  93-110
# Compute components of the per-atom q6 vector
compute q6 all orientorder/atom degrees 1 6 components 6 nnn NULL cutoff 1.3 # compute the Q6 parameter.
                                                                             # Use all neighbours within 1.3 unit cell.

# get number of connections
compute coord_number all coord/atom orientorder q6 0.5

# An atom is solid if it has 8 or more connections (of a possible 14)
variable is_solid atom c_coord_number>=8
group solid dynamic all var is_solid    # Must be dynamic to update
dynamic group solid defined

# do clustering
compute cluster solid cluster/atom 1.3 # Create a cluster where all atoms within are solid and max 1.3 units from another member

# define chunks one chunk per cluster
compute clus_chunks solid chunk/atom c_cluster nchunk every compress yes  # Says which atoms are in which chunk

# count the size of each chunk
compute size_chunks solid property/chunk clus_chunks count


# Find the maximum entry in the vector of chunk sizes
variable max_n equal max(c_size_chunks)


# Thermo style which includes this variable
thermo_style custom step temp pe vol v_max_n

thermo ${N}  # Print the thermo information every 100 steps
thermo 1000  

# Reset the npt fix at a lower temperature (below freezing)
fix 1  all npt temp  ${temp} ${temp}  0.1  iso  5.68  5.68  0.5  mtk yes tchain  5  pchain  5
fix 1  all npt temp  0.6 ${temp}  0.1  iso  5.68  5.68  0.5  mtk yes tchain  5  pchain  5
fix 1  all npt temp  0.6 0.6  0.1  iso  5.68  5.68  0.5  mtk yes tchain  5  pchain  5

dump dmp2 all dcd ${N} traj_${rand}.dcd
dump dmp2 all dcd 1000 traj_${rand}.dcd
dump dmp2 all dcd 1000 traj_462431.dcd


# fix rnuntil all halt ${N} v_max_n >= 3980 error soft message no   # Stop when solidified


run 1000000 # 5000000  # Run for this many steps
Neighbor list info ...
  update every 1 steps, delay 10 steps, check yes
  max neighbors/atom: 2000, page size: 100000
  master list distance cutoff = 3.8
  ghost atom cutoff = 3.8
  binsize = 1.9, bins = 9 9 9
  4 neighbor lists, perpetual/occasional/extra = 1 3 0
  (1) pair lj/cut, perpetual
      attributes: half, newton on
      pair build: half/bin/atomonly/newton
      stencil: half/bin/3d
      bin: standard
  (2) compute orientorder/atom, occasional
      attributes: full, newton on
      pair build: full/bin/atomonly
      stencil: full/bin/3d
      bin: standard
  (3) compute coord/atom, occasional
      attributes: full, newton on
      pair build: full/bin/atomonly
      stencil: full/bin/3d
      bin: standard
  (4) compute cluster/atom, occasional
      attributes: full, newton on
      pair build: full/bin/atomonly
      stencil: full/bin/3d
      bin: standard
Per MPI rank memory allocation (min/avg/max) = 9.377 | 9.383 | 9.388 Mbytes
Step Temp PotEng Volume v_max_n 
    4000   0.64420568   -6.7834838    3944.8077           25 
    5000   0.59570898   -6.9305527    3903.9978           13 
    6000   0.59389793   -6.9856085    3902.3447           17 
    7000   0.59448171   -6.9649419    3883.3844           32 
    8000   0.60235536   -6.9970619    3877.5289           52 
    9000   0.59974353    -6.986572    3888.7734           46 
   10000    0.6096313   -7.0009736    3880.0065          111 
   11000   0.59217573   -7.0154839     3866.583          112 
   12000   0.60344811   -7.0243831    3873.7851          135 
   13000   0.60255955    -7.023026    3859.2579          272 
   14000   0.58651674   -7.0251567    3864.9141          254 
   15000   0.59501672   -6.9910913    3870.8731          472 
   16000   0.60261891   -7.0349719    3867.1888          204 
   17000   0.60178235   -7.0343687     3873.331          417 
   18000   0.59723662   -7.0267543    3866.9631          617 
   19000   0.59558549   -7.0423697    3865.4377          583 
   20000   0.59070908    -7.037103    3864.5139          617 
   21000   0.60717322   -7.0425611    3861.3712          684 
   22000   0.61165613   -7.0615553    3855.4684          842 
   23000   0.59330843   -7.0354977    3851.3862          848 
   24000   0.61423486   -7.0532606    3863.7438          894 
   25000   0.59938347   -7.0583078    3855.8281          975 
   26000   0.59368964   -7.0682412    3854.9599          935 
   27000   0.60956168   -7.0714291    3863.0895         1026 
   28000   0.59176675   -7.0805463    3863.5716          983 
   29000   0.61801111   -7.0711843    3848.4684         1016 
   30000   0.59445632    -7.064504    3847.9212         1055 
   31000   0.59891569   -7.0762251    3837.3568         1079 
   32000   0.60294145   -7.0841574    3853.4915         1128 
   33000   0.60141937   -7.0855023    3852.2156         1152 
   34000    0.6031531   -7.0817597    3855.9536         1205 
   35000   0.61387013   -7.0760501    3858.3091         1331 
   36000   0.60630157   -7.0867585    3856.0401         1268 
   37000    0.6168884   -7.0800286     3845.202         1340 
   38000   0.59261674   -7.1126941    3845.1852         1417 
   39000   0.60506583   -7.0891907    3845.8536         1539 
   40000   0.60774116   -7.1058684    3851.2841         1427 
   41000   0.59785617   -7.1080262    3830.9092         1491 
   42000    0.5966594   -7.0960397    3844.3334         1603 
   43000   0.61105853   -7.1225562    3838.5715         1630 
   44000   0.61175113    -7.126486    3846.0727         1619 
   45000   0.60059667   -7.1280643    3838.7481         1671 
   46000   0.59682624   -7.1204748    3837.1352         1731 
   47000   0.60172992   -7.1273271    3841.4112         1817 
   48000   0.61256953   -7.1252339    3829.6811         1869 
   49000   0.60392023    -7.125499    3840.1093         1843 
   50000   0.60781334    -7.118263    3836.9988         1930 
   51000   0.59569515   -7.1310985    3837.2673         1979 
   52000   0.59297288   -7.1260664    3833.7232         2095 
   53000    0.5955515   -7.1232291    3840.0801         2044 
   54000   0.58990445   -7.1313461    3836.6658         2167 
   55000   0.59172303   -7.1261835    3834.1581         2169 
   56000   0.60859495   -7.1345512    3833.6074         2182 
   57000   0.61411003   -7.1361999    3828.3493         2075 
   58000   0.60583045   -7.1160476    3836.1898         2136 
   59000   0.59698536   -7.1492526    3824.5886         2316 
   60000   0.59304394   -7.1594247    3824.9686         2409 
   61000   0.59571216   -7.1592077      3828.63         2361 
   62000   0.58977626   -7.1562092    3828.8234         2409 
   63000   0.60358875   -7.1819242    3824.7995         2431 
   64000   0.59816665   -7.1705463    3817.5539         2449 
   65000   0.58901294   -7.1563596    3820.8535         2497 
   66000   0.60726174   -7.1732636    3821.7208         2523 
   67000   0.61136693   -7.1849794    3836.9923         2632 
   68000   0.60803906   -7.1698142    3818.4921         2575 
   69000   0.59348627   -7.1891667    3811.8691         2624 
   70000   0.59483804   -7.1697966    3819.8864         2714 
   71000   0.59201034   -7.1846296    3813.8552         2691 
   72000   0.59736688    -7.175529    3810.9662         2795 
   73000   0.60121255   -7.1881822    3815.7621         2765 
   74000   0.58961781   -7.1978027    3818.8856         2730 
   75000   0.60464072   -7.1963013    3809.2455         2751 
   76000   0.60473323    -7.191974    3813.6892         2786 
   77000   0.59813604   -7.1893961    3818.7709         2770 
   78000   0.58322383   -7.2033646    3816.0894         2811 
   79000   0.59451706   -7.2174334    3811.7693         2828 
   80000   0.60803828   -7.2051539    3810.7928         2902 
   81000   0.58889113   -7.1912606    3813.8866         2795 
   82000   0.59887019   -7.1759198    3811.5575         2867 
   83000   0.57895943   -7.2117372    3813.5725         2899 
   84000   0.60075417   -7.1853845    3808.3395         2918 
   85000   0.59495204   -7.2003276    3812.5276         2898 
   86000   0.59738755   -7.1979469    3808.6977         3010 
   87000    0.6116902   -7.2166977    3808.5618         2841 
   88000   0.60981822   -7.2309935    3802.7541         2944 
   89000   0.59289137    -7.217762    3799.3725         2989 
   90000   0.61152594   -7.2340887    3789.9872         3048 
   91000    0.5873849   -7.2251642    3800.4396         2986 
   92000   0.60111112   -7.2455167    3802.3376         3048 
   93000   0.59999605     -7.25571    3799.9569         3195 
   94000   0.61400391    -7.259962    3807.5782         3103 
   95000     0.584605   -7.2687005    3809.0802         3184 
   96000   0.59656437   -7.2887321    3789.8041         3222 
   97000   0.60193635   -7.2591147     3790.645         3180 
   98000   0.60010445   -7.2528894    3784.5164         3219 
   99000   0.60259252   -7.2551026    3785.5001         3278 
  100000   0.58301269    -7.253923    3797.7311         3148 
  101000   0.61134899   -7.2442995    3799.4614         3204 
  102000   0.60127352   -7.2621612    3796.1277         3201 
  103000   0.58746745   -7.2598451    3789.8233         3217 
  104000   0.59347167   -7.2723015    3790.9999         3179 
  105000   0.61149046   -7.2782621     3791.518         3202 
  106000    0.5969623   -7.2677164     3793.822         3158 
  107000   0.60678328    -7.260175     3791.075         3203 
  108000   0.60667889   -7.2535623    3794.9561         3196 
  109000   0.59831734   -7.2803962    3795.1972         3201 
  110000   0.61026049   -7.2554174    3790.0169         3241 
  111000   0.59351753   -7.2536433    3793.6118         3214 
  112000   0.59707031    -7.257699    3794.9587         3249 
  113000   0.57974951   -7.2729715    3797.3224         3260 
  114000   0.59576793   -7.2649219     3783.874         3217 
  115000   0.59263552   -7.2839232    3788.2339         3294 
  116000   0.60597405    -7.265149    3789.3386         3210 
  117000   0.60077573   -7.2842362    3797.9657         3251 
  118000   0.58516014   -7.2798128    3791.4145         3279 
  119000    0.6000716   -7.2819734    3789.7423         3278 
  120000   0.60854127    -7.263533     3794.384         3190 
  121000   0.61140985    -7.284521    3788.5815         3258 
  122000   0.59246201    -7.289306     3783.029         3272 
  123000   0.59955855   -7.2727153    3794.1988         3254 
  124000   0.59626143   -7.2944249    3790.9915         3282 
  125000   0.59433466   -7.2697647    3789.2416         3302 
  126000   0.59619705   -7.2671628    3789.3357         3277 
  127000   0.60274668   -7.2778253    3789.5324         3303 
  128000   0.60292697   -7.2746645    3793.7629         3288 
  129000   0.60635133   -7.2808231    3793.5101         3338 
  130000   0.59588245   -7.2756897     3798.211         3367 
  131000   0.59659056   -7.2876776    3785.8789         3403 
  132000   0.60227948   -7.2903319     3789.882         3372 
  133000   0.60181498   -7.2846574    3782.8295         3361 
  134000   0.59784159   -7.2635433    3787.4682         3363 
  135000   0.59304908   -7.2891787    3789.1213         3373 
  136000    0.5890259    -7.283852    3784.2293         3420 
  137000    0.6092362   -7.2996178    3781.4404         3402 
  138000   0.57645687   -7.2986065    3792.3993         3357 
  139000     0.618073   -7.2900569      3788.49         3327 
  140000    0.6003717   -7.2885266    3795.5607         3333 
  141000   0.59987315   -7.2832038    3778.8986         3399 
  142000   0.59910776   -7.3063102    3778.7084         3379 
  143000   0.60551881   -7.3179907    3788.3942         3405 
  144000   0.59642725   -7.2976635     3765.853         3417 
  145000    0.6101839   -7.3139962    3786.1957         3432 
  146000   0.62159081   -7.3152306    3784.6404         3441 
  147000   0.58742895   -7.3146215    3789.3459         3464 
  148000   0.60275911   -7.3238809    3782.8188         3471 
  149000   0.61516989   -7.3083291    3786.0705         3498 
  150000   0.59099964   -7.3077903    3772.8682         3477 
  151000   0.60677657   -7.3417245    3784.1027         3538 
  152000   0.60347445   -7.3202557    3782.5331         3469 
  153000   0.60492312   -7.3340288    3775.9274         3537 
  154000   0.60205985   -7.3618861    3762.9961         3600 
  155000   0.59729809   -7.3394249    3771.4246         3561 
  156000   0.60846741    -7.346875     3771.257         3580 
  157000    0.5948932   -7.3481798    3772.3975         3632 
  158000   0.59608416   -7.3489143    3761.0578         3586 
  159000   0.61181324   -7.3384257    3773.2008         3562 
  160000   0.59880839   -7.3561742    3776.9067         3574 
  161000    0.6102804   -7.3643945    3775.1892         3592 
  162000   0.60966486   -7.3426217    3763.9519         3660 
  163000   0.59248838   -7.3668396    3759.7353         3644 
  164000   0.61160134   -7.3600481     3766.192         3634 
  165000    0.5888459   -7.3763597    3756.9973         3659 
  166000   0.59753265   -7.3956983    3747.3316         3657 
  167000   0.60266247   -7.4036526    3753.7669         3669 
  168000   0.60737459   -7.3904069    3759.9761         3638 
  169000   0.59378809   -7.3946547    3761.6578         3714 
  170000   0.60430169   -7.3951139    3747.5258         3673 
  171000    0.5978806   -7.4105708    3755.7414         3690 
  172000   0.59520003   -7.4183185    3743.9969         3656 
  173000   0.59374482   -7.4252545    3747.5518         3676 
  174000   0.59658652   -7.4240539    3738.9208         3686 
  175000   0.58943455   -7.4728912    3743.1664         3703 
  176000   0.60450137   -7.4778113    3734.9186         3701 
  177000   0.60051397   -7.5250118    3721.8325         3745 
  178000    0.5972558     -7.59975    3696.6291         3959 
  179000   0.58707422   -7.6152618    3689.9966         3991 
  180000   0.60422938   -7.6297479    3692.4597         3987 
  181000   0.60719719   -7.6412451    3688.5425         3980 
  182000   0.60817082   -7.6513518    3681.5123         3982 
  183000   0.60756982     -7.65136    3692.3448         3986 
  184000   0.59320126   -7.6615645    3690.6414         3982 
  185000   0.60197662   -7.6570712    3691.0074         3984 
  186000   0.59733185   -7.6497999    3680.6789         3985 
  187000   0.59562891   -7.6509374    3678.6137         3988 
  188000   0.60182731   -7.6618297    3683.6094         3985 
  189000   0.58232496   -7.6341595    3686.6815         3988 
  190000   0.60337063   -7.6535273    3685.2217         3982 
  191000   0.59319259   -7.6520893    3689.7735         3984 
  192000   0.60650659   -7.6427452    3686.7868         3981 
  193000   0.59477463   -7.6552497    3689.1488         3985 
  194000   0.60741425   -7.6354275    3689.6803         3980 
  195000   0.59423315   -7.6266263    3694.8927         3985 
  196000   0.60674398   -7.6460559    3684.7469         3988 
  197000   0.60098264   -7.6528124    3685.2112         3989 
  198000   0.60416958   -7.6308065    3695.0107         3987 
  199000   0.59031106   -7.6437732       3688.3         3988 
  200000   0.59426609   -7.6377277    3688.6698         3988 
  201000   0.59405734   -7.6529494    3689.7251         3987 
  202000   0.59662486   -7.6470738    3697.1381         3986 
  203000   0.60827525   -7.6183868    3681.0127         3985 
  204000    0.6059364   -7.6522528    3680.5703         3982 
  205000   0.60544698   -7.6394961    3686.2163         3978 
  206000   0.59051291   -7.6445144    3690.2243         3993 
  207000   0.59410819   -7.6506876    3689.0342         3985 
  208000   0.60990957   -7.6508767    3689.9545         3991 
  209000   0.60178836   -7.6572167    3687.2503         3995 
  210000   0.59351639   -7.6489074    3669.8675         3992 
  211000    0.5974185   -7.6593366    3672.9808         3991 
  212000   0.60000089   -7.6779769    3694.7082         3994 
  213000   0.60670934   -7.6479435    3679.1876         3993 
  214000   0.59677548   -7.6467598    3682.6227         3991 
  215000   0.59718444   -7.6609933    3688.6535         3993 
  216000   0.59660017   -7.6686636    3679.4785         3998 
  217000    0.6041944   -7.6636485    3684.7519         3996 
  218000   0.60623771    -7.653121    3690.6443         3991 
  219000   0.59587859   -7.6805933    3690.3891         3996 
  220000    0.5950692   -7.6719833    3681.0362         3989 
  221000   0.60031262   -7.6620484      3677.89         3991 
  222000    0.6017224   -7.6725044    3685.7384         3987 
  223000   0.60852224   -7.6487408    3682.6601         3996 
  224000   0.60866145   -7.6670118    3686.5216         3997 
  225000   0.60112964   -7.6517017    3690.3807         3994 
  226000   0.60267027   -7.6618163     3683.178         3991 
  227000   0.58829022   -7.6492182    3681.1008         3994 
  228000   0.60422742   -7.6696911    3680.5495         3991 
  229000   0.60341918   -7.6647744    3687.1211         3994 
  230000   0.60413861   -7.6626086    3689.2018         3993 
  231000   0.59958088   -7.6404766      3693.62         3993 
  232000    0.5956194   -7.6769947    3688.1413         3991 
  233000   0.59251679   -7.6684219    3685.7455         3990 
  234000   0.59913245    -7.664504    3675.2357         3989 
  235000   0.58219142   -7.6618134    3682.2679         3994 
  236000    0.5929476   -7.6792109    3685.2305         3994 
  237000   0.61780736    -7.665178    3688.4083         3997 
  238000   0.60007862   -7.6666845    3689.1011         3991 
  239000    0.6068886   -7.6767635    3679.5244         3994 
  240000   0.59975844   -7.6714972    3683.0278         3987 
  241000   0.59427901   -7.6640445    3689.5665         3995 
  242000   0.60335421   -7.6814621    3688.1213         3999 
  243000   0.60495371   -7.6523716    3687.5575         3989 
  244000   0.61634674   -7.6472527    3678.6521         3992 
  245000   0.60908613   -7.6528888    3691.9014         3997 
  246000   0.60631368   -7.6540057    3684.4984         3989 
  247000   0.60135606   -7.6569091    3675.6826         3994 
  248000   0.60599632    -7.656067    3680.9569         3991 
  249000   0.59682529   -7.6420531    3684.4586         3989 
  250000   0.59740683   -7.6464111    3684.0083         3990 
  251000   0.62094145   -7.6538149    3678.7346         3995 
  252000   0.59595832   -7.6617123    3681.7205         3994 
  253000   0.60152378   -7.6425106    3682.3721         3991 
  254000    0.5953354   -7.6577128    3689.0522         3991 
  255000   0.60202386   -7.6555461    3687.4437         3990 
  256000   0.59915448   -7.6509992    3673.8773         3995 
  257000    0.5988895   -7.6583206     3684.315         3993 
  258000   0.60069735   -7.6639978    3687.2675         3994 
  259000   0.60423778   -7.6666743    3688.1085         3993 
  260000   0.59743523   -7.6553611    3691.3808         3993 
  261000   0.58772293   -7.6558949    3676.2661         3997 
  262000   0.59211321   -7.6807968    3683.1859         3993 
  263000   0.59709913    -7.651809    3679.0305         3989 
  264000   0.60195305   -7.6704498    3685.1184         3995 
  265000   0.60165001   -7.6586297    3681.5956         3992 
  266000   0.58698877   -7.6677349     3679.147         3989 
  267000   0.59369672   -7.6650091    3679.5949         3991 
  268000   0.59290146   -7.6744818    3683.5943         3986 
  269000   0.59980763   -7.6826779    3683.2413         3985 
  270000   0.59442912    -7.664072    3674.5424         3991 
  271000   0.60230091    -7.659654    3678.9258         3996 
  272000   0.58758462   -7.6454823    3686.3464         3990 
  273000   0.58726882   -7.6798472    3678.7479         3987 
  274000    0.5989428   -7.6333488    3684.9201         3994 
  275000   0.58850273   -7.6622519    3679.5469         3993 
  276000   0.61656386   -7.6650142    3679.3604         3997 
  277000   0.59521798   -7.6752655     3694.848         3995 
  278000    0.5914892   -7.6735602    3678.6357         3997 
  279000   0.59019345   -7.6814614    3679.3076         3989 
  280000   0.60779271   -7.6748939    3672.9897         3993 
  281000   0.59272578   -7.6540505    3674.7548         3992 
  282000   0.59541775   -7.6578584    3679.7328         3995 
  283000   0.60860234   -7.6619708    3680.7062         3994 
  284000   0.60212672   -7.6564233    3684.4667         3995 
  285000   0.60638065   -7.6653183    3690.5308         3989 
  286000    0.5999208   -7.6617153    3681.3093         3997 
  287000   0.59713952   -7.6608207    3677.2676         3993 
  288000   0.60301363   -7.6641998    3673.6721         3990 
  289000   0.59520579   -7.6705551     3680.124         3991 
  290000   0.58734509   -7.6666775    3678.9284         3992 
  291000     0.603885   -7.6704415    3682.3051         3995 
  292000   0.59304075   -7.6723381    3687.4634         3994 
  293000   0.59105698    -7.669073    3684.5705         3989 
  294000   0.60203104   -7.6444925    3692.2699         3992 
  295000   0.59918369   -7.6868615     3686.951         3997 
  296000   0.60031283   -7.6733268    3686.2812         3992 
  297000   0.59407262   -7.6410065    3683.6118         3995 
  298000   0.60234949   -7.6729479    3681.2198         3995 
  299000    0.6043606   -7.6737855    3688.4113         3996 
  300000   0.61306156   -7.6819805    3678.1704         3995 
  301000   0.60123945   -7.6502592    3686.2415         3991 
  302000   0.59382516    -7.650871    3676.1399         3991 
  303000    0.5937066   -7.6687686    3683.5118         3993 
  304000   0.60092146   -7.6804508    3686.6314         3996 
  305000   0.60640748   -7.6502856    3680.9589         3991 
  306000   0.61091059   -7.6510898     3689.211         3990 
  307000   0.60084673   -7.6868977    3682.8952         3988 
  308000   0.60766595    -7.671188    3679.2141         3994 
  309000   0.58742303   -7.6402591    3674.2188         3991 
  310000   0.58907644   -7.6712492    3681.3402         3992 
  311000    0.5881782   -7.6598516    3683.1227         3996 
  312000   0.60850856   -7.6713159    3686.1974         3993 
  313000   0.59268526   -7.6623617    3676.9154         3997 
  314000   0.59904009   -7.6565953    3685.1993         3995 
  315000   0.59606341   -7.6627514    3688.2155         3994 
  316000   0.60297473   -7.6706461    3675.0676         3990 
  317000   0.60973122   -7.6658344    3670.3458         3990 
  318000   0.58944829   -7.6504182      3677.19         3998 
  319000   0.59930552   -7.6822722    3679.2339         3992 
  320000   0.60382815   -7.6630972    3685.1351         3989 
  321000   0.59994551   -7.6798461    3690.4305         3994 
  322000   0.60940798   -7.6532782    3687.6069         3996 
  323000   0.59607574    -7.688768    3690.3862         3997 
  324000   0.60587288   -7.6838449    3681.9952         3989 
  325000   0.60398296   -7.6662607    3680.3594         3998 
  326000    0.5967408   -7.6797059    3680.1036         3993 
  327000   0.59868033   -7.6606649    3684.2577         3997 
  328000   0.58585211   -7.6410861    3688.3425         3988 
  329000   0.59609836   -7.6561096    3676.9247         3996 
  330000   0.60361119   -7.6672699    3680.0584         3992 
  331000   0.58986924   -7.6731383    3683.2536         3992 
  332000   0.59765021   -7.6620013    3675.3864         3993 
  333000   0.60538597   -7.6457166    3681.7222         3991 
  334000   0.60741065   -7.6688755    3676.3736         3994 
  335000    0.6002177   -7.6625421    3675.9419         3995 
  336000    0.5896396   -7.6632517    3681.8051         3990 
  337000   0.60287561   -7.6775392    3686.7992         3998 
  338000   0.58903736   -7.6355997    3682.6719         3992 
  339000   0.58986364   -7.6837114    3690.7711         3993 
  340000   0.59802068   -7.6689186    3687.3588         3998 
  341000   0.58967057   -7.6527545    3690.0618         3994 
  342000   0.60861765   -7.6670463    3680.0206         3993 
  343000   0.59291952   -7.6736779    3683.4252         3991 
  344000   0.60558117   -7.6286907    3683.2008         3994 
  345000   0.59146129   -7.6757175    3689.8002         3995 
  346000   0.61362403   -7.6506762    3684.5598         3995 
  347000   0.59695551   -7.6787498    3680.2091         3999 
  348000   0.59581009   -7.6626579    3689.9865         3997 
  349000   0.58676807    -7.641913    3677.2261         3994 
  350000   0.60529808   -7.6497345     3685.085         3994 
  351000   0.60504442   -7.6624678    3670.9152         3991 
  352000   0.60680435    -7.658354    3674.5211         3992 
  353000   0.59865348   -7.6654231     3679.362         3994 
  354000   0.61766486   -7.6702014    3690.1705         3995 
  355000   0.58870593   -7.6618737    3677.3471         3994 
  356000   0.61158934   -7.6741856    3690.9915         3995 
  357000   0.59416584    -7.657644    3677.8296         3998 
  358000   0.60600124   -7.6813035    3683.4673         3996 
  359000   0.60471261   -7.6647834    3682.9861         4000 
  360000   0.59551748   -7.6519421    3675.3498         3998 
  361000   0.59592384   -7.6662971    3675.7003         3999 
  362000   0.58812237   -7.6694736    3679.4893         3998 
  363000   0.59884133   -7.6749658    3678.4362         3995 
  364000   0.59829914   -7.6605768    3681.6256         3993 
  365000   0.60805533   -7.6699831    3676.6885         3999 
  366000   0.60445351   -7.6578948    3676.7088         3999 
  367000   0.58462502    -7.677609    3674.0994         3996 
  368000   0.58501152   -7.6550447    3679.9208         3999 
  369000   0.59331093   -7.6775681    3685.6964         3998 
  370000   0.60087116   -7.6567699    3685.5173         3997 
  371000   0.60133745   -7.6609712    3690.8973         3998 
  372000     0.592195    -7.672341    3670.9615         3994 
  373000    0.5957353   -7.6714838    3678.6998         4000 
  374000   0.60906001   -7.6685758    3689.3728         3999 
  375000   0.58764534   -7.6714735    3676.6186         3998 
  376000   0.60170306   -7.6567997    3683.2891         3995 
  377000   0.61113387   -7.6655059    3688.6627         3995 
  378000   0.59372663   -7.6553731    3676.5788         3997 
  379000   0.59254396   -7.6678945    3682.6433         3997 
  380000   0.59534728   -7.6666998    3692.8971         3999 
  381000   0.60863719   -7.6747453    3685.2344         3996 
  382000   0.59913419   -7.6617148    3676.4305         3997 
  383000   0.59711529   -7.6790832    3686.1151         3997 
  384000    0.5984222   -7.6670382    3678.3756         3997 
  385000   0.60594403   -7.6658859    3676.7662         3999 
  386000   0.59412654   -7.6597256    3676.9508         3995 
  387000   0.59833471   -7.6740362    3677.7006         3994 
  388000   0.60253013    -7.654754     3679.146         3996 
  389000   0.61139128   -7.6717873    3680.5635         3995 
  390000   0.59907295   -7.6615638    3680.4273         3993 
  391000    0.6025833   -7.6635383    3681.1579         3997 
  392000   0.59323391   -7.6686339    3679.2782         3990 
  393000    0.6068231    -7.658772     3682.553         3998 
  394000   0.60874994    -7.684809    3673.3861         3998 
  395000   0.59831201   -7.6804105    3675.9079         3999 
  396000   0.59797688   -7.6690011    3674.7425         3997 
  397000   0.61400269   -7.6500469      3681.18         3998 
  398000    0.5961543   -7.6950901    3679.6759         3999 
  399000   0.60864475   -7.6803652    3685.7029         3998 
  400000   0.61022435   -7.6712233    3679.8584         3998 
  401000   0.59154494   -7.6625306    3683.0014         3998 
  402000   0.59498346   -7.6644939    3682.9092         3997 
  403000   0.60349945   -7.6746068    3683.1452         3997 
  404000   0.61010748   -7.6597482    3691.3771         3998 
  405000   0.60035812   -7.6720947    3688.3913         3997 
  406000   0.59581823   -7.6558787    3684.1292         3996 
  407000   0.61007317   -7.6594832    3674.4574         3998 
  408000   0.58784503   -7.6735127    3674.5577         3996 
  409000   0.58879975   -7.6651239    3678.7213         3999 
  410000   0.60413451   -7.6496665    3676.4937         3996 
  411000   0.59173371   -7.6662681    3678.9038         3998 
  412000   0.57738283   -7.6666674     3678.946         3996 
  413000    0.6017461   -7.6738067    3675.0429         4000 
  414000   0.60421896   -7.6452994    3680.8657         3999 
  415000   0.60677982   -7.6709426    3688.6982         3994 
  416000   0.60338947   -7.6814982    3686.9929         3997 
  417000   0.58864052    -7.666942    3693.2277         3999 
  418000   0.59975242    -7.660483    3683.7875         3995 
  419000   0.60516283   -7.6637906    3678.0014         3993 
  420000   0.59516313   -7.6383913    3679.3783         3998 
  421000   0.58924629   -7.6801337    3679.9352         3994 
  422000   0.59286637    -7.657516    3671.8556         3999 
  423000    0.6007588   -7.6587163    3679.7226         3994 
  424000    0.5993912   -7.6588133    3681.1071         3997 
  425000   0.60804917   -7.6642814    3680.8894         3995 
  426000   0.59854099   -7.6631213    3676.6783         3993 
  427000   0.59632718   -7.6626487    3675.6132         3996 
  428000   0.59003101   -7.6917395    3685.0453         3994 
  429000   0.58481407   -7.6763564    3685.6767         3995 
  430000   0.60768324   -7.6865432    3680.3665         3996 
  431000   0.60998264   -7.6814261     3678.434         3997 
  432000   0.60996121   -7.6878385    3673.9415         3993 
  433000   0.59788355   -7.6734647    3671.9484         3992 
  434000   0.59678281   -7.6649114    3677.6006         3997 
  435000    0.5895809   -7.6638459    3681.7493         3999 
  436000   0.59436699   -7.6851792    3678.2264         3997 
  437000   0.59832211   -7.6958499    3674.8572         4000 
  438000   0.61866063   -7.6534596     3666.706         3998 
  439000   0.60750308   -7.6695126    3683.2664         3998 
  440000   0.60473058   -7.6441781    3688.4038         3997 
  441000    0.6082681   -7.6591171    3677.7501         4000 
  442000   0.60991705    -7.652945     3681.178         3996 
  443000   0.61287062   -7.6649331    3682.9425         3997 
  444000   0.59696971   -7.6684978    3680.5918         3996 
  445000   0.58713206   -7.6813101    3683.9335         3996 
  446000    0.6017948   -7.6448814    3675.4172         3998 
  447000   0.60065649   -7.6691325    3669.1813         3999 
  448000   0.59728757   -7.6864004    3679.3841         3998 
  449000    0.5998101   -7.6708811    3674.9799         3996 
  450000   0.59282439   -7.6697378    3682.3623         3998 
  451000   0.59378994   -7.6713326    3678.5716         3993 
  452000   0.60401393   -7.6705899    3677.6907         3993 
  453000   0.60243393   -7.6747106    3682.3202         3998 
  454000   0.60181923   -7.6593064     3679.614         3996 
  455000   0.61333716   -7.6663259    3692.0184         3995 
  456000   0.59873602   -7.6394875    3669.5143         3995 
  457000   0.59730913   -7.6682392     3679.908         3997 
  458000   0.58634441   -7.6764955     3677.151         3997 
  459000   0.60036096   -7.6816703    3680.3765         3994 
  460000   0.59563834   -7.6702623    3678.2847         3999 
  461000   0.58873726   -7.6764191    3684.1098         3997 
  462000   0.60360268    -7.683884    3673.3406         3995 
  463000   0.58920747   -7.6707331    3681.2371         3996 
  464000   0.59370996   -7.6517878    3689.5671         3996 
  465000   0.61661117   -7.6642803      3679.11         3991 
  466000   0.60046115   -7.6693885    3683.2763         3993 
  467000   0.59693469   -7.6676325     3682.175         3994 
  468000   0.60218469   -7.6869773    3688.7754         3998 
  469000   0.60641723   -7.6759072    3680.0066         3997 
  470000   0.60613916   -7.6775796    3684.2369         3994 
  471000   0.60049386    -7.681133     3692.539         3997 
  472000   0.59540493   -7.6755217    3685.8628         3994 
  473000   0.60214852   -7.6593658    3674.4999         3995 
  474000   0.59175538   -7.6676711    3678.4298         3996 
  475000   0.59176182   -7.6722896    3691.3761         3993 
  476000   0.61141026   -7.6822702    3680.8611         3998 
  477000   0.58456413   -7.6771463    3673.6965         3996 
  478000   0.59802153   -7.6885472    3685.7489         3996 
  479000    0.5957033   -7.6585747    3682.7047         3996 
  480000   0.60456139    -7.664633    3679.6236         3996 
  481000   0.60800264   -7.6635796    3676.6453         3998 
  482000   0.60562756   -7.6552487    3681.1867         3997 
  483000   0.60877166   -7.6535775    3673.9925         3998 
  484000   0.60281168   -7.6729256    3691.0155         3997 
  485000   0.61686063   -7.6690324    3682.0313         3993 
  486000   0.60569682   -7.6654001    3693.0046         3999 
  487000   0.59120329   -7.6614505    3684.5423         3997 
  488000   0.59672538   -7.6799164    3682.8017         3994 
  489000   0.59856762   -7.6828044    3680.1371         3995 
  490000   0.59809075   -7.6711302    3678.8502         3997 
  491000   0.61466792   -7.6355484     3676.392         3999 
  492000   0.59881307   -7.6799521    3687.6524         3999 
  493000   0.59424973   -7.6726584    3678.8448         3997 
  494000    0.5898085   -7.6503336    3687.1463         3995 
  495000   0.59514109    -7.658349    3678.4186         3997 
  496000   0.59942692   -7.6784921    3681.3133         3994 
  497000   0.58958684   -7.6719473    3679.2962         3999 
  498000   0.60935627   -7.6828522    3678.6758         3997 
  499000   0.59338498   -7.6680285    3678.4821         3997 
  500000   0.59768059   -7.6672693    3679.1562         3999 
  501000   0.58414854   -7.6614211    3676.5567         3996 
  502000   0.60538319   -7.6581769    3675.1646         3994 
  503000    0.5912909   -7.6787836    3687.7898         3997 
  504000   0.58055847   -7.6526943    3685.7785         3996 
  505000   0.59900261   -7.6642819    3677.7982         3998 
  506000   0.61041867   -7.6639416    3670.3552         3999 
  507000   0.60447854   -7.6604526    3680.6187         3999 
  508000   0.59489014   -7.6952137    3684.8167         3999 
  509000   0.59641677   -7.6753304    3687.6123         3995 
  510000   0.59991934    -7.671776     3667.386         3998 
  511000   0.59960219    -7.678306      3684.89         3998 
  512000   0.59073522   -7.6691677    3679.2918         3996 
  513000   0.60398671   -7.6684879    3683.8476         3997 
  514000   0.61399331   -7.6682025    3671.1704         3997 
  515000   0.58508665   -7.6453367     3673.482         3995 
  516000   0.60038911   -7.6817878    3678.8099         3995 
  517000   0.61400716   -7.6816188    3687.7548         3999 
  518000   0.60430348    -7.670399    3667.3197         3995 
  519000   0.61114788   -7.6571371     3681.711         3997 
  520000    0.5886803     -7.66925    3683.9752         3999 
  521000   0.60865825   -7.6609841    3685.9394         3997 
  522000   0.61461274   -7.6740233     3674.059         3998 
  523000   0.59165489    -7.674363    3676.4794         3997 
  524000   0.59562965    -7.663845    3675.9837         3997 
  525000   0.59412454   -7.6787148    3677.3648         3999 
  526000   0.60226894   -7.6701374    3670.2289         3996 
  527000   0.60486935   -7.6764778    3668.5684         3994 
  528000   0.60511554    -7.678234    3681.3425         3998 
  529000   0.60840329   -7.6638362    3686.3413         3998 
  530000   0.61260882   -7.6599704      3683.87         3996 
  531000   0.60348107   -7.6939991    3685.0526         3994 
  532000   0.59629077   -7.6420859    3677.8942         4000 
  533000   0.59635665   -7.6344782    3681.4144         3994 
  534000   0.59540895   -7.6798815    3683.0243         3999 
  535000   0.60733617     -7.66547    3682.0913         3998 
  536000   0.60402757   -7.6495052     3687.337         3997 
  537000   0.60110481   -7.6376148    3672.4249         3992 
  538000   0.59650751   -7.6758317    3671.1579         4000 
  539000   0.59465986   -7.6624739    3688.6219         3996 
  540000   0.59263221   -7.6603607    3677.0756         3996 
  541000   0.59908941   -7.6669643    3672.6729         3997 
  542000   0.61513339   -7.6638982    3682.7189         3995 
  543000   0.60469431   -7.6901225    3680.4162         3997 
  544000   0.60249494   -7.6566984    3680.8527         3995 
  545000   0.60325635   -7.6662566    3677.4562         3998 
  546000   0.58612245   -7.6743547    3680.2965         3995 
  547000   0.59573417   -7.6678904    3677.8299         3994 
  548000   0.60309529   -7.6543796    3679.6622         3994 
  549000   0.60386692   -7.6771777    3683.3713         3998 
  550000   0.58842978   -7.6633906    3683.6339         3993 
  551000   0.61289058   -7.6752049    3681.0454         3993 
  552000   0.60840714    -7.665225     3681.681         3997 
  553000   0.59955847   -7.6743087    3679.3882         3997 
  554000   0.59913293   -7.6766545    3670.0014         3999 
  555000   0.60089093   -7.6756779    3679.8499         3999 
  556000   0.59406629    -7.682628     3675.784         3996 
  557000   0.59139207   -7.6727726    3682.5185         3996 
  558000   0.59914771   -7.6693606    3681.6533         3994 
  559000   0.59224527   -7.6722753    3677.6123         3996 
  560000   0.61325736   -7.6514184    3682.9827         3998 
  561000   0.61437908   -7.6523127    3691.0747         3998 
  562000   0.59208438   -7.6573946    3672.9134         3999 
  563000   0.59809363   -7.6614333    3695.3666         3997 
  564000   0.60027747    -7.668418    3681.3858         3997 
  565000   0.59964763   -7.6639801    3677.2783         3998 
  566000   0.58579916   -7.6662702    3679.0809         3995 
  567000   0.58800054   -7.6507396    3680.6335         3998 
  568000   0.59751144     -7.68664    3682.6327         3996 
  569000    0.5964497   -7.6636593    3681.7687         4000 
  570000     0.602882   -7.6792256     3676.625         3999 
  571000   0.60266347   -7.6729668    3677.3126         3998 
  572000   0.60387963   -7.6842789    3686.0133         3994 
  573000   0.60394843   -7.6634331    3679.5383         3999 
  574000   0.59549509   -7.6672561    3687.8721         3992 
  575000   0.61058605   -7.6869967    3675.4536         3999 
  576000   0.59805061   -7.6849058    3669.3432         3998 
  577000   0.60084631   -7.6403307    3686.8959         3996 
  578000    0.6054967   -7.6705722    3667.5509         3998 
  579000   0.61963688   -7.6827655    3676.3116         3994 
  580000   0.59140905    -7.680452    3677.9465         3997 
  581000   0.60014927   -7.6710122     3685.331         3994 
  582000   0.59986701   -7.6526514    3687.0716         3996 
  583000   0.60209755   -7.6780595    3681.4001         3995 
  584000   0.60623481   -7.6648988    3684.2564         3998 
  585000   0.59066046   -7.6704871    3687.3853         3997 
  586000   0.59231087   -7.6785082    3682.1472         3997 
  587000   0.60300384   -7.6776866    3684.2145         3999 
  588000    0.6041864   -7.6410814    3677.5031         3998 
  589000   0.60546875   -7.6598412    3672.1208         3996 
  590000   0.59749708   -7.6605101    3679.6402         4000 
  591000   0.59981108   -7.6704584    3680.0955         3991 
  592000    0.5954636   -7.6859561    3677.8568         3994 
  593000    0.6012224    -7.674521    3683.0516         4000 
  594000   0.59751228   -7.6619098    3677.1943         3998 
  595000   0.59534426    -7.672807    3678.0406         3999 
  596000    0.6026708   -7.6582038    3679.9849         3998 
  597000   0.59925869   -7.6600747    3680.9845         3998 
  598000   0.60600648   -7.6701794    3682.6316         3998 
  599000   0.60038233   -7.6598498     3691.456         3997 
  600000   0.61239078   -7.6836816     3679.678         3997 
  601000   0.59302264   -7.6674535    3675.4009         3999 
  602000   0.59921366   -7.6608197    3683.0804         3994 
  603000   0.60153265   -7.6683468    3693.3655         3998 
  604000   0.61358657   -7.6916726    3684.6974         3995 
  605000   0.59422917   -7.6710693    3682.7334         3996 
  606000   0.59128669   -7.6825395    3668.9697         3998 
  607000   0.60808112   -7.6504136    3677.5609         3997 
  608000    0.6025785    -7.648044    3680.2183         3999 
  609000   0.60011904   -7.6550622    3682.2489         3996 
  610000    0.5887442   -7.6526285    3680.9123         3996 
  611000   0.60157167   -7.6678456    3674.6638         3999 
  612000   0.59693888   -7.6618131    3682.7708         3995 
  613000   0.60139487   -7.6769634    3685.2996         3997 
  614000   0.60007804    -7.666558    3678.8731         3994 
  615000   0.60838207   -7.6722737    3685.1324         3998 
  616000   0.59116943   -7.6728565    3679.7034         3995 
  617000   0.59264907   -7.6571693    3684.5332         3996 
  618000   0.60518924   -7.6802073    3676.0516         3998 
  619000   0.59024789   -7.6760781     3681.253         3999 
  620000   0.59289598   -7.6589073    3690.6902         3997 
  621000   0.58165125   -7.6559017    3682.1868         3997 
  622000   0.60184032   -7.6520355    3674.5474         3996 
  623000   0.61113567   -7.6731007    3675.8731         3998 
  624000   0.60315695   -7.6538075    3683.5877         3998 
  625000   0.60045418   -7.6781836    3680.9341         3995 
  626000   0.61699022   -7.6657486    3682.1802         3997 
  627000   0.60909767   -7.6724962    3677.4697         3997 
  628000   0.60871479   -7.6506129    3678.7223         3998 
  629000   0.60350144   -7.6825819    3679.5132         3998 
  630000   0.60402698   -7.6745354    3688.2632         3997 
  631000   0.59193639    -7.647592    3686.6434         3996 
  632000    0.6098132   -7.6621013    3680.3008         3997 
  633000   0.60360023   -7.6706528    3681.8147         3996 
  634000   0.60172043   -7.6731973    3675.2006         3998 
  635000   0.59413031   -7.6758831    3673.0413         3995 
  636000   0.60439902   -7.6649441    3684.3651         3999 
  637000    0.5996664    -7.682535    3680.3301         3994 
  638000   0.60008103   -7.6532978    3679.6707         3999 
  639000   0.59184664   -7.6810168    3673.3485         3996 
  640000   0.59884456   -7.6657866     3680.686         3992 
  641000   0.60803335    -7.680441    3677.2586         3997 
  642000   0.61004612   -7.6802245    3687.5682         3996 
  643000   0.60152567   -7.6657558    3680.6248         3996 
  644000   0.59597208   -7.6697302    3680.6473         3999 
  645000   0.59981824   -7.6708977    3682.1046         3998 
  646000   0.61968277   -7.6661703    3677.7091         3997 
  647000   0.59765807   -7.6642948    3673.1638         3997 
  648000   0.61522973   -7.6695979    3679.7175         3999 
  649000   0.61032786   -7.6673761    3677.8326         3997 
  650000   0.60821737   -7.6676364    3685.0283         4000 
  651000    0.6009499   -7.6500946    3674.9414         3997 
  652000   0.59606694   -7.6794927    3683.0908         3996 
  653000   0.60591953   -7.6516279    3672.3784         3994 
  654000   0.59422201   -7.6463457    3684.6808         3997 
  655000   0.59997987   -7.6628089    3676.6236         3998 
  656000   0.60639806   -7.6831101    3677.2981         3997 
  657000   0.60534369   -7.6684068    3678.7629         3995 
  658000   0.59532571   -7.6554672    3689.9619         3998 
  659000   0.61111809   -7.6679938    3680.3594         3998 
  660000   0.59650331   -7.6556118    3685.7633         3996 
  661000   0.60463407   -7.6619976    3680.8341         4000 
  662000   0.60287582   -7.6672624    3678.8801         4000 
  663000   0.61617121   -7.6850986    3677.8132         3995 
  664000   0.59533232   -7.6702317    3683.5372         3999 
  665000   0.60620664   -7.6498251    3686.7663         3995 
  666000   0.59608797   -7.6742585    3666.5554         3997 
  667000   0.58683031   -7.6806361    3681.1629         3997 
  668000   0.59657309   -7.6814331    3686.9388         3998 
  669000   0.58259659   -7.6859042    3676.5843         3999 
  670000   0.60090023   -7.6636377    3688.4944         3997 
  671000   0.58936619   -7.6507989    3684.1369         3998 
  672000   0.59132869   -7.6529969    3686.1539         3996 
  673000   0.60296848   -7.6632719    3677.0894         3999 
  674000   0.59818691   -7.6881592    3674.5282         3999 
  675000   0.58878926   -7.6655745     3677.293         3997 
  676000   0.59412566   -7.6428066    3675.3946         3995 
  677000   0.60178128   -7.6732451    3668.1749         3997 
  678000   0.60878141   -7.6621216    3685.0667         3997 
  679000   0.61272717    -7.677188    3672.3362         3995 
  680000   0.60054782   -7.6494289    3687.0657         3998 
  681000   0.59582749   -7.6756369    3673.4523         3996 
  682000   0.59456268   -7.6655685    3684.8298         3998 
  683000   0.60507181   -7.6502223    3688.2736         3998 
  684000    0.6012816   -7.6493564    3685.2433         3992 
  685000   0.59541006   -7.6665677     3675.324         3996 
  686000   0.59882793   -7.6365191    3688.7182         3997 
  687000   0.60322882   -7.6790785    3674.9509         3995 
  688000   0.60443996   -7.6609283    3675.0915         3996 
  689000   0.58429179   -7.6711662    3684.5009         3997 
  690000   0.59543375     -7.65109    3678.9467         3999 
  691000   0.60258398   -7.6704442    3678.4888         3995 
  692000   0.60252282   -7.6572563    3672.6861         3994 
  693000   0.59561447   -7.6480878     3677.217         3994 
  694000   0.60301965   -7.6596221    3678.5401         3995 
  695000   0.60357608   -7.6608855    3674.5281         3995 
  696000   0.58129149   -7.6819271    3678.4615         3992 
  697000   0.58899865   -7.6585359    3688.4962         3995 
  698000   0.61109827   -7.6849412    3678.0298         3999 
  699000    0.5997649    -7.669549     3682.626         3998 
  700000   0.58888666   -7.6699331    3669.7276         3998 
  701000   0.59598944   -7.6820011    3681.8606         3988 
  702000    0.5892706   -7.6655322    3683.3438         3995 
  703000    0.6039488   -7.6736263     3686.475         3996 
  704000   0.59852141   -7.6605401    3696.3648         3999 
  705000   0.60803537   -7.6864505    3684.2174         3998 
  706000   0.59369344   -7.6973002    3677.9166         3995 
  707000   0.59829988   -7.6774812    3683.6419         3996 
  708000   0.58726783   -7.6548021    3686.3211         3996 
  709000   0.60347446   -7.6601691    3682.3746         3996 
  710000   0.60228657   -7.6762636    3686.0563         3998 
  711000   0.58771445   -7.6724613    3676.8742         3999 
  712000   0.59925749   -7.6558774    3677.5942         3997 
  713000   0.60522019   -7.6921254      3675.95         4000 
  714000   0.59233598    -7.677542    3675.2684         3997 
  715000   0.59163079   -7.6715786    3685.4789         3998 
  716000   0.60006081   -7.6405847    3680.2784         3994 
  717000    0.5930652   -7.6610847    3679.5887         3995 
  718000   0.58897773   -7.6644969    3689.4143         3995 
  719000   0.60113076   -7.6688049    3688.7965         3993 
  720000   0.57988862   -7.6877937    3674.7673         3994 
  721000   0.59633794   -7.6619331    3681.0615         3996 
  722000   0.59910726   -7.6617933    3685.3522         3996 
  723000   0.59510594   -7.6804722    3683.7506         3998 
  724000   0.59679599   -7.6708444    3685.2176         3995 
  725000   0.60257319   -7.6554969     3676.456         3997 
  726000   0.59683785   -7.6716152    3675.7879         3997 
  727000   0.60766624   -7.6753504    3679.7504         3998 
  728000   0.60902478   -7.6521751    3683.6798         3990 
  729000   0.59549718   -7.6425261    3685.2968         3996 
  730000   0.61159972   -7.6775441    3673.6573         3997 
  731000   0.60064725   -7.6616906      3677.21         3996 
  732000   0.59791325   -7.6659397    3673.0215         3995 
  733000   0.60003116   -7.6645942    3685.7503         3989 
  734000   0.60163044   -7.6622863      3681.24         3994 
  735000   0.59172385   -7.6687092    3682.4745         3998 
  736000   0.60558876   -7.6707843    3687.9031         3995 
  737000   0.58963371   -7.6526955    3681.0619         3996 
  738000   0.61497855   -7.6708015    3678.5893         3995 
  739000   0.60161837   -7.6576063    3688.8791         3995 
  740000   0.60998244   -7.6702691    3679.4791         3996 
  741000   0.60751552   -7.6534926    3679.7648         3994 
  742000   0.59493351    -7.668719    3678.5679         3998 
  743000    0.6025584   -7.6595679    3687.5759         3997 
  744000    0.5972201   -7.6609532    3679.0978         3992 
  745000   0.60296287   -7.6732094    3685.6894         3998 
  746000   0.59753414   -7.6685903    3683.3037         3997 
  747000   0.59006042    -7.649446    3684.2484         3994 
  748000   0.59617147   -7.6637312    3676.4073         3995 
  749000   0.58926233   -7.6913327    3668.7005         3994 
  750000   0.61741726   -7.6634895    3677.9328         3996 
  751000   0.59909559   -7.6678488    3690.0829         3994 
  752000   0.61136933     -7.67486    3684.2154         3995 
  753000   0.59152592    -7.660368    3672.3554         3994 
  754000   0.60367386    -7.661602    3682.6191         3996 
  755000   0.59977949    -7.677574    3679.6692         3996 
  756000   0.59423562   -7.6789668    3684.1268         3998 
  757000   0.60871973    -7.661972    3686.6136         3995 
  758000   0.59957172   -7.6579066    3686.9458         3997 
  759000   0.60915255   -7.6837124    3678.0494         3996 
  760000    0.5990189   -7.6766806    3681.6323         3999 
  761000    0.6074823   -7.6677587    3674.8452         3996 
  762000   0.59881371   -7.6239929    3684.4614         3996 
  763000    0.5863793   -7.6579789    3681.7313         3996 
  764000   0.60751816   -7.6737301    3680.7267         3997 
  765000   0.59252177   -7.6846131    3682.9231         3998 
  766000   0.59976198   -7.6756458    3683.2872         3998 
  767000   0.60856468   -7.6450289    3681.3024         3999 
  768000   0.60231357   -7.6566314    3688.5849         3999 
  769000   0.58991882    -7.665036    3681.0646         3995 
  770000   0.59769612   -7.6740494    3681.4394         3999 
  771000   0.61444003    -7.677681     3683.481         3994 
  772000   0.59920938   -7.6798194    3686.9172         3997 
  773000   0.58818857    -7.643159    3680.0878         4000 
  774000   0.59830792   -7.6664608    3685.5112         3997 
  775000   0.59449264    -7.673938    3679.8784         3998 
  776000   0.60007664   -7.6766024    3679.6838         3998 
  777000      0.60266   -7.6826001    3667.9816         3996 
  778000   0.60406195   -7.6599613    3685.8907         3999 
  779000   0.60767847   -7.6500312    3682.4868         3998 
  780000   0.59920086   -7.6791372    3689.5672         3997 
  781000   0.58575397   -7.6935545     3681.391         3999 
  782000   0.59239117    -7.662848    3685.0624         4000 
  783000   0.60296249   -7.6856055    3674.6879         3997 
  784000   0.59887488   -7.6653789    3674.4469         3994 
  785000   0.60533778   -7.6623946    3676.1699         3998 
  786000   0.59809554   -7.6767388    3688.0748         3998 
  787000   0.60890793   -7.6561605    3689.3904         3997 
  788000   0.61157176   -7.6496527    3684.3053         3996 
  789000   0.59039245   -7.6721866    3680.6065         3996 
  790000   0.58987718    -7.670516    3676.1957         3998 
  791000   0.59995343   -7.6721457    3682.1262         3997 
  792000   0.59807322   -7.6567229    3681.0472         3996 
  793000    0.5860866   -7.6761528    3678.9177         3997 
  794000   0.60494751   -7.6624992    3685.5539         3996 
  795000   0.60542666   -7.6742303    3670.3679         3999 
  796000   0.59564036    -7.660081    3681.4894         3994 
  797000   0.59282041   -7.6659481    3693.1043         3998 
  798000   0.61119612   -7.6713037    3684.0677         3999 
  799000    0.5981989   -7.6435262    3676.2494         3998 
  800000   0.59557122   -7.6569413    3677.8754         3998 
  801000   0.59684608   -7.6719027    3687.4006         3994 
  802000   0.60625219    -7.658208    3673.1767         3996 
  803000   0.59776056   -7.6770714    3683.2263         3995 
  804000   0.59756438   -7.6666889    3686.7286         3996 
  805000   0.58598832   -7.6602228    3688.1363         3992 
  806000   0.59097525   -7.6609875    3672.0844         3997 
  807000   0.60145424   -7.6559679    3676.4487         3997 
  808000   0.60625976   -7.6580571    3680.8157         3998 
  809000   0.59548246   -7.6693373    3686.4057         3996 
  810000   0.59834907   -7.6802866    3667.6591         3999 
  811000   0.60640017   -7.6580606    3681.9004         3995 
  812000   0.59715868   -7.6592761    3677.1548         3998 
  813000   0.60196778    -7.676057    3678.6542         3998 
  814000   0.59031215   -7.6781152    3671.8771         3997 
  815000   0.60250199   -7.6660253    3687.8441         3995 
  816000   0.61034351     -7.68109    3681.3953         3998 
  817000   0.59752292   -7.6474619     3671.523         3997 
  818000   0.59899332   -7.6643877    3680.0603         3995 
  819000   0.60041599   -7.6787253    3680.2413         3995 
  820000   0.60109376   -7.6543297    3678.0289         3992 
  821000   0.61725228   -7.6693652    3681.6986         3998 
  822000   0.60919275   -7.6609737    3686.3044         3994 
  823000    0.6019966   -7.6547186    3680.7933         3995 
  824000   0.60379359   -7.6644185    3680.3702         3995 
  825000   0.59161398   -7.6704427    3682.8439         3998 
  826000   0.60986538   -7.6833701       3681.1         3997 
  827000   0.60287219   -7.6747827    3679.9912         3994 
  828000   0.60334423   -7.6559047    3678.5913         3999 
  829000   0.59128034   -7.6583118    3672.1588         3996 
  830000   0.59987031   -7.6521938    3677.4658         3995 
  831000   0.59877046   -7.6661709    3683.5508         3998 
  832000   0.59678851   -7.6655468    3678.8673         3995 
  833000    0.5931103   -7.6618886     3681.345         3999 
  834000   0.59017288   -7.6788119    3680.4616         3997 
  835000   0.59536868   -7.6628663    3672.8594         3987 
  836000    0.5960397   -7.6695883    3684.1565         3997 
  837000   0.59709001   -7.6659143    3693.4376         3998 
  838000   0.59477277   -7.6764362    3685.1432         3992 
  839000   0.60232548   -7.6681104    3678.3407         3994 
  840000   0.59850149   -7.6833782    3687.3026         3998 
  841000   0.59302026   -7.6603648    3690.9923         3994 
  842000   0.60258416   -7.6744987    3686.8837         3999 
  843000   0.60085052   -7.6766473    3676.9928         3997 
  844000   0.59704269   -7.6671739    3677.6261         3999 
  845000   0.60765626   -7.6490165      3679.33         3999 
  846000    0.5943459   -7.6710307    3679.3365         3996 
  847000   0.60234195   -7.6768701    3687.6934         3998 
  848000    0.5977748   -7.6721708    3680.9283         3994 
  849000   0.60214174    -7.655368    3681.2598         3996 
  850000   0.59400982   -7.6776394    3678.8822         3997 
  851000    0.6029671    -7.665747    3682.3025         3998 
  852000   0.58635653   -7.6789734    3700.1373         3995 
  853000   0.60385522   -7.6618814    3677.6566         3998 
  854000   0.59660968   -7.6761423    3680.6017         3994 
  855000   0.60189769   -7.6806138    3682.7086         3997 
  856000   0.60614949   -7.6610164    3675.6185         3996 
  857000   0.59060475   -7.6577441    3681.6059         3997 
  858000   0.60915561   -7.6450686    3680.9129         3997 
  859000   0.59517865   -7.6705609    3668.9603         3997 
  860000   0.60356587   -7.6701942    3676.8815         3998 
  861000   0.59605573    -7.667215    3684.4318         3992 
  862000   0.59479274   -7.6542765    3680.1815         3989 
  863000   0.60204039   -7.6540839    3680.9174         3997 
  864000   0.59494269   -7.6801351    3685.5605         4000 
  865000   0.60661392   -7.6972926    3683.3754         3997 
  866000    0.6059054    -7.664422    3679.9763         3997 
  867000   0.59670185   -7.6483834    3685.7438         3999 
  868000   0.61124842   -7.6798827    3688.7348         3996 
  869000   0.58584615   -7.6742483    3680.2457         3999 
  870000   0.60110874   -7.6777887     3683.003         3990 
  871000   0.59859024   -7.6760595    3673.7068         3997 
  872000   0.60713881   -7.6799955    3682.4508         3996 
  873000   0.60576126     -7.67422    3683.3897         3998 
  874000   0.60211128   -7.6934572    3685.8666         3997 
  875000   0.60186287    -7.683888    3671.4378         3997 
  876000   0.60681043   -7.6605834    3682.4872         3997 
  877000   0.61050991   -7.6601899    3671.5143         3998 
  878000   0.59409694   -7.6905835    3685.1562         3995 
  879000   0.59042811   -7.6643737    3688.3888         3994 
  880000   0.60696235   -7.6718047    3675.6743         3998 
  881000   0.61070113   -7.6907057    3667.1774         3996 
  882000   0.59489179   -7.6518789    3686.4804         3998 
  883000   0.60342829    -7.676608    3679.8825         3997 
  884000   0.59005824   -7.6660165    3682.7444         3995 
  885000   0.59065133    -7.658404     3686.983         3996 
  886000   0.60053372   -7.6655487    3682.0202         3996 
  887000   0.60643277   -7.6852365    3678.4946         3993 
  888000   0.60197909     -7.67829     3681.985         3995 
  889000   0.59818788   -7.6687669    3681.3695         3997 
  890000   0.60463039   -7.6672285    3681.0552         3993 
  891000   0.59369508   -7.6617007    3671.3799         3988 
  892000   0.58633781   -7.6576479    3683.0168         3996 
  893000   0.58975577   -7.6706216     3680.363         3996 
  894000   0.59407901   -7.6725317    3667.6984         3997 
  895000   0.59589665    -7.668837    3675.7078         3998 
  896000    0.6056081   -7.6581283    3680.3555         3997 
  897000   0.59681352   -7.6671899    3676.0992         3998 
  898000   0.59514432   -7.6769638    3687.3004         3996 
  899000   0.60626992   -7.6487808    3679.2091         3998 
  900000   0.60833956   -7.6610003    3687.3958         3999 
  901000   0.60069824   -7.6525297    3682.9116         3994 
  902000   0.61138837   -7.6706148    3684.0308         3999 
  903000   0.59940907   -7.6448088    3674.2042         3995 
  904000   0.60320968   -7.6678626    3679.1032         3997 
  905000   0.61458285   -7.6711559    3683.3117         3996 
  906000   0.60061525   -7.6851714    3677.7142         3996 
  907000   0.59368476   -7.6679029    3689.7441         3998 
  908000   0.59346409   -7.6952227    3687.5161         3998 
  909000   0.59954668   -7.6597849    3682.6694         3999 
  910000   0.61558358   -7.6547003    3682.9413         3995 
  911000   0.59754001   -7.6775626    3676.9579         3998 
  912000   0.60482344   -7.6744313    3690.4535         3994 
  913000   0.59595768    -7.657427    3679.1245         3997 
  914000   0.59049302   -7.6735317    3675.8845         3997 
  915000   0.58892327    -7.654585    3671.0194         4000 
  916000    0.6018943    -7.644263    3684.6998         3995 
  917000   0.59864058   -7.6751246    3674.7386         3999 
  918000   0.60155857   -7.6810019    3679.3134         3999 
  919000   0.59540875   -7.6427732    3680.4691         3998 
  920000   0.60292303   -7.6723806      3683.42         3995 
  921000   0.60301412   -7.6849769    3677.1554         3996 
  922000    0.6117564   -7.6367961    3677.5289         3997 
  923000   0.61439344   -7.6670456    3689.7393         3992 
  924000   0.59854774   -7.6537051    3682.2247         3999 
  925000   0.59088631   -7.6730884    3680.3258         3999 
  926000   0.60346037   -7.6720188    3678.3149         3997 
  927000   0.59806996   -7.6532631    3687.4323         3999 
  928000   0.61124228   -7.6776826    3678.1115         3996 
  929000   0.61145566   -7.6689303    3681.7089         3994 
  930000   0.59754826   -7.6653425    3683.4898         3997 
  931000   0.60901444    -7.651559    3675.1488         3994 
  932000   0.59819615   -7.6815505    3684.6663         3999 
  933000   0.59898661   -7.6713503    3688.1119         3999 
  934000   0.61027413   -7.6667827    3676.9883         3997 
  935000   0.59730268   -7.6663921    3672.1361         4000 
  936000   0.60242219   -7.6617984     3677.643         3999 
  937000   0.59831363   -7.6691356     3675.334         3995 
  938000   0.61158896   -7.6638549    3676.4899         3995 
  939000   0.60496843   -7.6743083    3685.1766         3992 
  940000     0.593608    -7.674341     3688.166         3993 
  941000   0.60246918   -7.6653037    3683.1221         4000 
  942000   0.60812481   -7.6676004    3685.7031         3998 
  943000   0.60127948   -7.6680345    3670.2754         3998 
  944000   0.59161514   -7.6691694    3685.7634         3997 
  945000   0.60362457   -7.6726154    3676.7043         3995 
  946000   0.59444229   -7.6704835    3672.7298         3995 
  947000   0.60578106   -7.6497415    3684.9122         3997 
  948000   0.59061074   -7.6571493    3683.2653         3997 
  949000   0.59143061   -7.6559275    3684.1451         3996 
  950000   0.59785552   -7.6610989    3679.8784         3998 
  951000   0.59710057   -7.6662744    3679.9611         3998 
  952000   0.60393294   -7.6788254    3676.2487         3997 
  953000   0.60351229   -7.6676248    3677.1285         3998 
  954000   0.60631174    -7.649087    3670.4851         3998 
  955000   0.59275361   -7.6806491    3678.9842         3994 
  956000   0.60009673   -7.6545226    3675.0835         3996 
  957000   0.62102581   -7.6819322    3689.0669         3996 
  958000   0.60069534    -7.671807      3678.43         3996 
  959000   0.60741689   -7.6744665      3678.93         3996 
  960000    0.5968776   -7.6331756    3669.4276         3996 
  961000    0.5982786   -7.6647535     3684.733         3999 
  962000   0.59748025   -7.6460355    3680.2316         3998 
  963000   0.59575266   -7.6595898    3669.9939         3998 
  964000   0.60239605   -7.6711905    3678.3375         3998 
  965000   0.60504393   -7.6761115    3687.1984         3998 
  966000   0.59980264   -7.6689373    3680.2753         3995 
  967000   0.60068033   -7.6728252    3669.6944         3996 
  968000   0.60876187   -7.6718417    3671.3693         3996 
  969000   0.59875522   -7.6722038    3687.4288         3995 
  970000   0.60229917   -7.6707257    3686.3685         3993 
  971000   0.59977861   -7.6493935    3684.9868         3998 
  972000   0.59929269   -7.6626427    3677.9587         3995 
  973000   0.60926897   -7.6611189    3678.5385         3995 
  974000   0.61419621   -7.6708618    3679.0931         3996 
  975000   0.59201212   -7.6750377    3675.0307         3993 
  976000   0.58335044   -7.6692051    3675.7596         3995 
  977000   0.59813117   -7.6733021    3679.2518         3998 
  978000   0.59645294   -7.6791067    3679.8838         3999 
  979000   0.59758555   -7.6456818     3682.528         3994 
  980000   0.59946723   -7.6581468    3677.9725         3997 
  981000   0.60262655   -7.6630914    3677.7935         3994 
  982000   0.60373114    -7.652574    3680.2182         3999 
  983000   0.59931106    -7.678433    3687.1202         3996 
  984000   0.60623741   -7.6652496    3687.9689         3996 
  985000   0.60588306   -7.6719306    3683.0856         3997 
  986000   0.59292289   -7.6794146    3685.5747         3996 
  987000   0.61160889   -7.6539751    3681.3689         3999 
  988000   0.59671365   -7.6737332    3683.4335         3998 
  989000   0.59878262   -7.6623385    3681.9948         3997 
  990000   0.59837496   -7.6831481    3676.0098         3997 
  991000    0.5948254   -7.6815772    3677.9988         3999 
  992000   0.58868852   -7.6598161    3672.2109         3997 
  993000   0.59659706   -7.6673862    3690.4724         3998 
  994000   0.60639964   -7.6629838    3677.8449         3998 
  995000   0.59348205   -7.6751645    3688.4759         3999 
  996000    0.6008623    -7.688611    3681.0409         3997 
  997000   0.58816103   -7.6852279    3680.0087         3996 
  998000   0.60511124    -7.690462     3673.483         3996 
  999000   0.60042364   -7.6758801     3681.841         3997 
 1000000   0.58963658    -7.662992    3682.4218         3997 
 1001000   0.59948221   -7.6697799    3677.0269         4000 
 1002000   0.59686508   -7.6631237    3676.4557         3992 
 1003000   0.58396518   -7.6596768    3681.6486         3991 
 1004000   0.57930454   -7.6676228    3674.9777         3998 
Loop time of 2148.84 on 48 procs for 1000000 steps with 4000 atoms

Performance: 80415.496 tau/day, 465.367 timesteps/s
99.4% CPU use with 48 MPI tasks x no OpenMP threads

MPI task timing breakdown:
Section |  min time  |  avg time  |  max time  |%varavg| %total
---------------------------------------------------------------
Pair    | 135.54     | 150.05     | 166.2      |  64.9 |  6.98
Neigh   | 11.015     | 11.63      | 12.237     |   7.7 |  0.54
Comm    | 108.91     | 123.97     | 140.09     |  74.7 |  5.77
Output  | 2.8501     | 2.8509     | 2.8682     |   0.1 |  0.13
Modify  | 1821.5     | 1833.5     | 1845.3     |  13.7 | 85.33
Other   |            | 26.79      |            |       |  1.25

Nlocal:        83.3333 ave          91 max          78 min
Histogram: 6 2 4 15 5 4 10 1 0 1
Nghost:        1733.81 ave        1750 max        1708 min
Histogram: 2 0 2 4 9 3 9 6 12 1
Neighs:        10477.2 ave       11518 max        9652 min
Histogram: 6 4 5 4 8 8 5 5 2 1
FullNghs:      20954.7 ave       22961 max       19443 min
Histogram: 4 5 3 10 7 9 3 6 0 1

Total # of neighbors = 1005825
Ave neighs/atom = 251.45625
Neighbor list builds = 46011
Dangerous builds = 0

#clear
#
#next RN
#
#jump SELF
Total wall time: 0:35:50
