
units lj                  # Use reduced LJ style units
atom_style atomic         # Uncharged point particles
atom_modify map hash      # Needed for indexing of clusters etc
                          # Used to be able to find where atoms are in relation to each other.

lattice fcc 1.0 spacing 1 1 1
Lattice spacing in x,y,z = 1.5874011 1.5874011 1.5874011
region box block 0 10 0 10 0 10 units lattice
create_box 2 box
Created orthogonal box = (0.0000000 0.0000000 0.0000000) to (15.874011 15.874011 15.874011)
  3 by 4 by 4 MPI processor grid
create_atoms 1 box
Created 4000 atoms
  using lattice units in orthogonal box = (0.0000000 0.0000000 0.0000000) to (15.874011 15.874011 15.874011)
  create_atoms CPU = 0.005 seconds
set type 1 type/fraction 2 0.93 78393
Setting atom values ...
  3709 settings made for type/fraction
mass 1 1.0
mass 2 1.0
pair_style lj/cut  3.5
pair_modify tail  yes
pair_coeff 1  1  1.0  1.0   # Intearaction between 1 and 1 set with epsilon = 1 and sigma = 1
pair_coeff 1  2  1.5  0.8
pair_coeff 2  2  0.5  0.88

write_data data.0
System init for write_data ...
Neighbor list info ...
  update every 1 steps, delay 10 steps, check yes
  max neighbors/atom: 2000, page size: 100000
  master list distance cutoff = 3.8
  ghost atom cutoff = 3.8
  binsize = 1.9, bins = 9 9 9
  1 neighbor lists, perpetual/occasional/extra = 1 0 0
  (1) pair lj/cut, perpetual
      attributes: half, newton on
      pair build: half/bin/atomonly/newton
      stencil: half/bin/3d
      bin: standard
WARNING: Not all mixed pair coeffs generated from mixing. Use write_data with 'pair ij' option to store all pair coeffs. (../write_data.cpp:312)


#############################
#   M E L T   S Y S T E M   #
#############################

velocity all create 2.4 8172548 mom yes dist gaussian # Assign velocities
                                                    # Temperature 2.4, random number seed, zero linear momentum
                                                                                # Gaussian distribution

timestep 0.002   # simulation timestep
thermo 1000       # output thermodynamic data every 1000 steps bf 100

# Define a fix  in this case with index 1 applied to all
# particles in the simulation. This fix is for simulations
# in the anisotropic NPT ensemble. Note that we use the MTK
# correction.
fix 1 all npt temp 2.4 2.4 0.1 iso 5.68 5.68 0.5 mtk yes tchain 5 pchain 5 # Use NPT ensemble
                                                                         # Set temperature and pressure and damping
                                                                         # Numbers of thermostats in chain and in barostat
run 10000          # run for 10000 steps
Per MPI rank memory allocation (min/avg/max) = 3.642 | 3.644 | 3.648 Mbytes
Step Temp E_pair E_mol TotEng Press Volume 
       0          2.4   -3.0493222            0   0.54977785   -2.3496824         4000 
    1000    2.4040067   -1.9941553            0    1.6109533    5.7131527    4072.1775 
    2000    2.3854948   -1.9561273            0    1.6212204    5.7784718    4090.6294 
    3000    2.3787258   -2.0373747            0     1.529822    5.5150668    4072.3379 
    4000    2.4079231   -2.0084387            0    1.6025431    5.6593146     4081.715 
    5000    2.4369563    -2.009194            0    1.6453265    5.6116364    4108.6363 
    6000    2.4515412   -1.9932378            0    1.6831547    5.9963238    4043.5738 
    7000    2.3750784   -2.0085727            0    1.5531542    5.6053735     4070.687 
    8000     2.385898   -2.0152815            0    1.5626708    5.2916107    4116.6568 
    9000    2.3906348   -2.0479284            0    1.5371273    5.5759574    4046.8082 
   10000    2.3869852   -2.0063659            0    1.5732168    5.7880365    4053.7096 
Loop time of 2.52991 on 48 procs for 10000 steps with 4000 atoms

Performance: 683027.127 tau/day, 3952.703 timesteps/s
99.6% CPU use with 48 MPI tasks x no OpenMP threads

MPI task timing breakdown:
Section |  min time  |  avg time  |  max time  |%varavg| %total
---------------------------------------------------------------
Pair    | 1.0705     | 1.1348     | 1.3148     |   4.5 | 44.85
Neigh   | 0.2071     | 0.21499    | 0.24412    |   1.6 |  8.50
Comm    | 0.69345    | 0.88913    | 0.98149    |   6.4 | 35.14
Output  | 0.00023607 | 0.00024096 | 0.00030444 |   0.0 |  0.01
Modify  | 0.22919    | 0.27594    | 0.37157    |   5.9 | 10.91
Other   |            | 0.01487    |            |       |  0.59

Nlocal:        83.3333 ave          94 max          69 min
Histogram: 1 0 3 4 6 9 14 5 5 1
Nghost:        1630.10 ave        1658 max        1599 min
Histogram: 2 4 2 8 7 4 8 5 5 3
Neighs:        9431.85 ave       11149 max        7372 min
Histogram: 1 0 1 7 12 11 7 6 1 2

Total # of neighbors = 452729
Ave neighs/atom = 113.18225
Neighbor list builds = 912
Dangerous builds = 237

# Equilibrate just above the melting temperature to avoid step fn in T

fix 1 all npt temp 1.25 1.25 0.1 iso 5.68 5.68 0.5 mtk yes tchain 5 pchain 5
run 2000
Per MPI rank memory allocation (min/avg/max) = 3.643 | 3.645 | 3.649 Mbytes
Step Temp E_pair E_mol TotEng Press Volume 
   10000    2.3869852   -2.0063659            0    1.5732168    5.7880365    4053.7096 
   11000    1.2862882   -3.0015216            0   -1.0725716    5.7794201    3163.6467 
   12000    1.2490375   -2.9971755            0   -1.1240876    5.9232544    3153.0651 
Loop time of 0.588112 on 48 procs for 2000 steps with 4000 atoms

Performance: 587643.405 tau/day, 3400.714 timesteps/s
99.6% CPU use with 48 MPI tasks x no OpenMP threads

MPI task timing breakdown:
Section |  min time  |  avg time  |  max time  |%varavg| %total
---------------------------------------------------------------
Pair    | 0.25787    | 0.28262    | 0.31709    |   2.3 | 48.06
Neigh   | 0.03796    | 0.040518   | 0.043663   |   0.7 |  6.89
Comm    | 0.17853    | 0.21769    | 0.24392    |   2.8 | 37.01
Output  | 5.1346e-05 | 5.2982e-05 | 6.8342e-05 |   0.0 |  0.01
Modify  | 0.038791   | 0.042623   | 0.046349   |   0.9 |  7.25
Other   |            | 0.004606   |            |       |  0.78

Nlocal:        83.3333 ave          89 max          75 min
Histogram: 1 0 5 0 6 14 4 13 0 5
Nghost:        1923.71 ave        1945 max        1893 min
Histogram: 1 0 1 6 4 11 11 9 4 1
Neighs:        12110.2 ave       13304 max       10664 min
Histogram: 1 2 5 10 3 4 7 9 2 5

Total # of neighbors = 581292
Ave neighs/atom = 145.32300
Neighbor list builds = 143
Dangerous builds = 10

#############################
# L I N E A R  Q U E N C H  #
#############################

# Define solid atoms. This closely follows ten Wolde  Ruiz-Montero and Frenkel  Faraday Discuss  1996  104  93-110
# Compute components of the per-atom q6 vector
compute q6 all orientorder/atom degrees 1 6 components 6 nnn NULL cutoff 1.3 # compute the Q6 parameter.
                                                                             # Use all neighbours within 1.3 unit cell.

# get number of connections
compute coord_number all coord/atom orientorder q6 0.5

# An atom is solid if it has 8 or more connections (of a possible 14)
variable is_solid atom c_coord_number>=8
group solid dynamic all var is_solid    # Must be dynamic to update
dynamic group solid defined

# do clustering
compute cluster solid cluster/atom 1.3 # Create a cluster where all atoms within are solid and max 1.3 units from another member

# define chunks one chunk per cluster
compute clus_chunks solid chunk/atom c_cluster nchunk every compress yes  # Says which atoms are in which chunk

# count the size of each chunk
compute size_chunks solid property/chunk clus_chunks count


# Find the maximum entry in the vector of chunk sizes
variable max_n equal max(c_size_chunks)


# Thermo style which includes this variable
# thermo_style custom step temp pe vol v_max_n

thermo ${N}  # Print the thermo information every 100 steps
thermo 1000  

# Reset the npt fix at a lower temperature (below freezing)
fix 1  all npt temp  ${temp} ${temp}  0.1  iso  5.68  5.68  0.5  mtk yes tchain  5  pchain  5
fix 1  all npt temp  0.45 ${temp}  0.1  iso  5.68  5.68  0.5  mtk yes tchain  5  pchain  5
fix 1  all npt temp  0.45 0.45  0.1  iso  5.68  5.68  0.5  mtk yes tchain  5  pchain  5

dump dmp2 all dcd ${N} traj.dcd
dump dmp2 all dcd 1000 traj.dcd


compute msd all msd com yes
variable twopoint equal c_msd[4]/6/(step*dt+1.0e-6)
fix 9 all vector 10 c_msd[4]
variable fit equal slope(f_9)/6/(10*dt)
thermo_style custom step temp pe c_msd[4] v_twopoint v_fit v_max_n

fix 1 all npt temp 1.25 ${temp} 0.1 iso 5.68 5.68 0.5 mtk yes tchain 5 pchain 5
fix 1 all npt temp 1.25 0.45 0.1 iso 5.68 5.68 0.5 mtk yes tchain 5 pchain 5
run 500000 # 5000000  # Run for this many steps
Neighbor list info ...
  update every 1 steps, delay 10 steps, check yes
  max neighbors/atom: 2000, page size: 100000
  master list distance cutoff = 3.8
  ghost atom cutoff = 3.8
  binsize = 1.9, bins = 8 8 8
  4 neighbor lists, perpetual/occasional/extra = 1 3 0
  (1) pair lj/cut, perpetual
      attributes: half, newton on
      pair build: half/bin/atomonly/newton
      stencil: half/bin/3d
      bin: standard
  (2) compute orientorder/atom, occasional
      attributes: full, newton on
      pair build: full/bin/atomonly
      stencil: full/bin/3d
      bin: standard
  (3) compute coord/atom, occasional
      attributes: full, newton on
      pair build: full/bin/atomonly
      stencil: full/bin/3d
      bin: standard
  (4) compute cluster/atom, occasional
      attributes: full, newton on
      pair build: full/bin/atomonly
      stencil: full/bin/3d
      bin: standard
Per MPI rank memory allocation (min/avg/max) = 9.818 | 9.825 | 9.829 Mbytes
Step Temp PotEng c_msd[4] v_twopoint v_fit v_max_n 
   12000    1.2490375   -2.9971755 4.0588866e-30 2.8186711e-32 8.3333333e+20            3 
   13000    1.2545857   -3.0071318    1.0766216 0.0069014202  0.091508122            2 
   14000    1.2836563   -3.0107617    2.2372565  0.013317002  0.095330039            2 
   15000    1.2734034   -3.0039496     3.294162  0.018300899  0.093154109            1 
   16000    1.2421895   -3.0282081    4.3985412  0.022909068   0.09282243            1 
   17000    1.2706652   -3.0365831    5.6092212  0.027496182  0.093095716            1 
   18000    1.2721363   -3.0212048    6.8507895  0.031716617  0.094320394            2 
   19000    1.2490608   -3.0051804    8.0096481  0.035130035  0.095167519            1 
   20000    1.2347516   -3.0384444    9.3717249  0.039048853  0.096576799            2 
   21000    1.2583725    -3.003861    10.615925  0.042126687  0.097881255            3 
   22000    1.2624786   -3.0459148    11.656048  0.044151696   0.09855587            1 
   23000    1.2703609   -3.0518299    12.821301  0.046453988  0.098602692            2 
   24000    1.2409828   -3.0568786    14.021066  0.048684255  0.098643876            2 
   25000    1.2359978    -3.032443    15.197054  0.050656845  0.098760417            1 
   26000    1.2383396   -3.0242143    16.638292  0.053327858   0.09901849            1 
   27000    1.2391072   -3.0232825    17.829119  0.055028145  0.099498704            3 
   28000    1.2444598   -3.0435804    19.035832  0.056654261  0.099806803            1 
   29000    1.2359576   -3.0297666    19.988995   0.05743964  0.099805276            2 
   30000    1.2283833   -3.0577604    21.137658  0.058715715  0.099765373            2 
   31000    1.1994858    -3.062498    22.554178  0.060629509  0.099670827            1 
   32000    1.2388824   -3.0446998    23.585201  0.061419794  0.099652812            2 
   33000    1.2299817   -3.0308031     24.64609    0.0622376  0.099497261            1 
   34000    1.1814752    -3.053285    25.748307  0.063108595  0.099189229            1 
   35000    1.2216416   -3.0516344    26.820697  0.063858803  0.098915786            1 
   36000    1.2142141    -3.056206    28.096681  0.065038613  0.098709525            1 
   37000    1.2081988   -3.0855011    29.059241  0.065448741  0.098499237            2 
   38000    1.2165923   -3.0251068    30.417897  0.066705913  0.098300954            1 
   39000    1.2155963   -3.0703507    31.570241   0.06745778  0.098184238            2 
   40000    1.1778238   -3.0673616    32.820681  0.068376418  0.098102885            7 
   41000    1.1923776   -3.0490922     34.02462   0.06915573  0.098133144            2 
   42000    1.2042389     -3.07588    35.387993  0.070214271  0.098211749            1 
   43000     1.191733   -3.0491243    36.468727  0.070675826  0.098244169            1 
   44000    1.2277648   -3.0757612    37.706305  0.071413456  0.098338559            2 
   45000    1.1889757   -3.0643671    38.966905  0.072160935  0.098390858            2 
   46000    1.1935306   -3.0724665    40.316698  0.073037495  0.098464944            3 
   47000     1.185526   -3.0520675    40.897295  0.072512934  0.098461606            2 
   48000    1.1718201   -3.0418389    41.935569  0.072804807  0.098311309            1 
   49000    1.1685104   -3.1002971    42.797092   0.07278417  0.098151579            3 
   50000    1.1868912   -3.0622246    44.137839  0.073563064   0.09795661            2 
   51000    1.1845067    -3.084341    44.966526  0.073474714  0.097754412            3 
   52000    1.1978575   -3.0800888    46.216656  0.074065153  0.097559651            2 
   53000    1.1979647   -3.1048926    47.222797   0.07424968  0.097370717            2 
   54000    1.1550151   -3.0705855    48.623175  0.075035764  0.097205967            3 
   55000    1.1812136   -3.0891542    49.324997  0.074734844  0.097060192            1 
   56000    1.1907439    -3.094569    50.332526  0.074899592  0.096831513            1 
   57000    1.1864475   -3.1203765    51.045036  0.074627246   0.09659701            2 
   58000    1.1535207   -3.0976354    52.343651  0.075206394  0.096353036            3 
   59000    1.1752856   -3.1138837    53.566657  0.075659119  0.096174244            2 
   60000     1.172744   -3.0694091    55.178533  0.076636851  0.096058822            2 
   61000    1.1764691   -3.0834052    56.051154  0.076572614  0.095915058            1 
   62000    1.1408274   -3.0922979     56.89959  0.076477942  0.095765079            2 
   63000    1.1731342   -3.1076442    58.135712  0.076899089  0.095598982            2 
   64000    1.1627831   -3.1085075    58.597936  0.076299395   0.09539408            1 
   65000    1.1767522   -3.1159887    59.408454  0.076164684  0.095143819            2 
   66000    1.1627615   -3.1398714    60.284083  0.076116266  0.094864896            1 
   67000    1.1610131   -3.1282765    60.965403  0.075827616  0.094525063            2 
   68000    1.1709904    -3.108614    61.549634  0.075428472  0.094171413            3 
   69000    1.1744124   -3.1382241    62.248238  0.075179031  0.093808598            2 
   70000    1.1706622   -3.1307335    62.647685  0.074580577  0.093412763            1 
   71000    1.1449098   -3.1338816    63.688084  0.074751272  0.092981657            3 
   72000    1.1577931   -3.1661083    64.670989  0.074850681   0.09254958            1 
   73000    1.1433988   -3.1433117    65.357903  0.074609478   0.09214117            2 
   74000    1.1419121   -3.1377492    66.546706  0.074939984  0.091743451            4 
   75000     1.151565   -3.1455104    67.474368  0.074971519  0.091365822            2 
   76000    1.1755987   -3.1122753    68.204214  0.074785322  0.091008364            2 
   77000    1.1310748   -3.1691141    69.330505  0.075033013  0.090665305            2 
   78000     1.154801   -3.1287831    69.871782  0.074649339  0.090326809            2 
   79000     1.135914   -3.1403561     71.13133  0.075033048  0.089985739            4 
   80000    1.1129424   -3.1303379    72.172346  0.075179527  0.089681573            2 
   81000    1.1418833   -3.1424459    72.821122   0.07491885  0.089372929            2 
   82000    1.1258028   -3.1640831    74.233949  0.075441005  0.089090017            2 
   83000    1.1490808   -3.1432582    75.096554  0.075398146  0.088806638            3 
   84000    1.1396913   -3.1579933    75.962593  0.075359714  0.088553098            1 
   85000    1.1478156   -3.1641619    76.768067   0.07526281  0.088300418            1 
   86000     1.142467   -3.1970707    77.721135  0.075311177  0.088062623            3 
   87000    1.1068336   -3.1598139    78.660678  0.075345477  0.087843383            2 
   88000    1.1280154   -3.1802531    79.463868  0.075249875  0.087625154            4 
   89000    1.1436623   -3.1283414    80.649902  0.075514889  0.087393922            1 
   90000    1.1393516   -3.1438847    81.556529  0.075515304  0.087174247            2 
   91000     1.122057   -3.1899676    82.213947  0.075287496  0.086962504            2 
   92000    1.1680197   -3.1570351       83.391  0.075535326  0.086747006            1 
   93000    1.1183176   -3.2014498    84.107582  0.075365217  0.086552182            2 
   94000    1.1111284   -3.1791202    84.793372  0.075171429  0.086340515            3 
   95000    1.1362049   -3.1786418    85.949729  0.075394499  0.086128525            1 
   96000    1.1189133   -3.1522053    86.425384  0.075022035  0.085920128            3 
   97000    1.1132858   -3.1988571    87.109479  0.074836322  0.085723671            5 
   98000    1.1046293   -3.1868881    88.644644  0.075378098  0.085536741            2 
   99000    1.1012047   -3.1894121    89.781823  0.075573924  0.085360669            1 
  100000    1.1365212   -3.1984961    90.523305  0.075436087  0.085186182            2 
  101000    1.0752257   -3.1698217    91.114249  0.075176772  0.085006555            2 
  102000    1.1056364   -3.1970257     92.53268  0.075598594  0.084859608            1 
  103000    1.0967241   -3.1923318    93.718801  0.075824273  0.084710497            3 
  104000    1.0870616   -3.1937929    94.022327  0.075338403  0.084554978            3 
  105000    1.0789626   -3.1891799    94.711499  0.075167856  0.084393864            2 
  106000    1.1061543   -3.1751525    95.955571  0.075436769  0.084234821            3 
  107000    1.1113063   -3.2199572    96.220614  0.074938172  0.084074964            2 
  108000    1.1108009   -3.1828168    98.081644   0.07568028  0.083918935            4 
  109000    1.0905285   -3.1799827    98.845462  0.075569925   0.08378172            2 
  110000    1.1106756   -3.2087199    99.560267  0.075424444   0.08363596            2 
  111000     1.092726   -3.1738869    100.69478  0.075596683  0.083502806            2 
  112000    1.0833881    -3.217036    101.17259  0.075277222  0.083367071            1 
  113000    1.0854334   -3.2094556    102.17436  0.075349821  0.083229096            2 
  114000    1.0867955   -3.2192729    102.60343   0.07500251  0.083082292            2 
  115000    1.0976559   -3.2173675    103.60029  0.075072675  0.082932122            5 
  116000    1.0794994   -3.1930742    104.65533  0.075183426  0.082785472            2 
  117000    1.0864133     -3.22005    105.28921  0.074992314  0.082635944            2 
  118000    1.0524851   -3.2246698    105.64743  0.074609769  0.082485853            3 
  119000    1.0673558   -3.2351309    106.12276   0.07431566  0.082328168            2 
  120000    1.1006303   -3.2249876    106.45604  0.073927802  0.082167113            2 
  121000    1.0745021   -3.2346417    107.57463   0.07408721  0.081994485            1 
  122000    1.0954782   -3.2002955    109.08242   0.07450985  0.081833855           10 
  123000    1.0747271   -3.2351475    109.61473  0.074264725  0.081681477            2 
  124000    1.0601298   -3.2240427    110.36306  0.074168726  0.081527545            2 
  125000    1.0537918   -3.2126187    111.12581  0.074083874  0.081380724            4 
  126000    1.0677942   -3.2606046    112.02966  0.074093689  0.081235465            2 
  127000    1.0390676   -3.2070553    112.85955  0.074054823  0.081086195            7 
  128000    1.0899823   -3.2537581    113.67015  0.074004007  0.080949571            2 
  129000    1.0750689   -3.2839461    114.54696  0.073996743  0.080810081            2 
  130000    1.0745059   -3.2324364    115.07773  0.073767778    0.0806741            3 
  131000    1.0953292   -3.2480068    116.29117  0.073976569  0.080543828            4 
  132000    1.0476294   -3.2789523    117.09225  0.073921876  0.080424006            3 
  133000    1.0490848   -3.2263325    118.76927  0.074416838  0.080297635            3 
  134000    1.0613915   -3.2227453    118.88566  0.073933866  0.080171789            3 
  135000    1.0621869   -3.2780725    119.08888  0.073511653  0.080042428            2 
  136000    1.0597033    -3.249268    120.34208  0.073739022  0.079912217            1 
  137000    1.0123368   -3.2635189    120.57978  0.073345368  0.079775887            5 
  138000    1.0666187   -3.2621414    121.63609  0.073451744  0.079638279            3 
  139000    1.0599336   -3.2634459    122.47863  0.073428434  0.079504431            3 
  140000    1.0379246   -3.2703526     123.0611  0.073250654  0.079369383            2 
  141000    1.0427787   -3.2838475     124.5157  0.073590842  0.079231146            1 
  142000    1.0453631   -3.2582485    124.07112  0.072811692  0.079087003            3 
  143000    1.0192229   -3.2556969    125.47427  0.073120202  0.078940604            5 
  144000    1.0528081   -3.2591146    125.45804   0.07260303   0.07879586            2 
  145000    1.0284773   -3.2768798    126.81813  0.072883985  0.078659538            3 
  146000    1.0463591   -3.2807159    127.44319  0.072741545  0.078521532            2 
  147000    1.0258282   -3.2756592    127.65352   0.07236594  0.078379751            3 
  148000    1.0198713   -3.2887808    128.76202  0.072501137  0.078234781            4 
  149000    1.0274517   -3.2677305    129.55942  0.072460524  0.078096306            2 
  150000    1.0234531   -3.3092668    130.28155  0.072378636  0.077956806            2 
  151000    1.0395061   -3.2978519    130.83219  0.072203198  0.077819904            1 
  152000    1.0425024   -3.3170803    131.48778  0.072087599  0.077687881            1 
  153000    1.0231452   -3.3188573    132.06581  0.071931268  0.077557337            2 
  154000    1.0325927   -3.2808509    133.74885  0.072374916  0.077430031            2 
  155000    1.0295815   -3.2905584    134.28201  0.072194627  0.077302778            2 
  156000   0.99629271    -3.343634    134.27058   0.07172574   0.07716585            1 
  157000    1.0156779   -3.3025944    135.50129  0.071922129  0.077030104            3 
  158000    1.0364781   -3.3268651    136.16761  0.071818362  0.076903876            2 
  159000    1.0154642   -3.2860348    137.46803  0.072048231  0.076778686            2 
  160000    1.0330876   -3.3206345     137.8623  0.071803279  0.076655156            4 
  161000    1.0107826   -3.3297391    138.66573  0.071773153  0.076532836            2 
  162000    1.0060145   -3.2958144    140.01784  0.072025639   0.07641971            2 
  163000    1.0313358   -3.3157857     140.0614  0.071606033  0.076300987            2 
  164000    1.0156803   -3.3209106    141.05073  0.071672121  0.076180201            2 
  165000    1.0074227   -3.3067275    141.21777  0.071322107   0.07605835            3 
  166000    1.0208602   -3.3580614    141.78256  0.071175983  0.075937166            3 
  167000    1.0000675    -3.292776    143.20844  0.071461297   0.07581454            2 
  168000    1.0152257   -3.3218188    143.08733  0.070975856  0.075682139            2 
  169000   0.99691848   -3.3197404    143.57553  0.070796614  0.075551672            2 
  170000   0.99392184   -3.3515939    144.23298  0.070702441  0.075422114            4 
  171000   0.99116628   -3.3391022    145.13208  0.070727135  0.075288582            2 
  172000   0.99450378   -3.3340006    145.87315  0.070674977  0.075155727            2 
  173000    1.0091437    -3.346217    146.54132  0.070588306  0.075028178            3 
  174000    1.0002868   -3.3403364    146.73703  0.070276355  0.074901449            3 
  175000    0.9780695   -3.3372127    147.51028   0.07024299  0.074773356            3 
  176000     1.006682   -3.3232912    149.17996   0.07063445  0.074644719            3 
  177000   0.99373113   -3.3480215    149.54121  0.070405466  0.074518839            2 
  178000   0.99364453   -3.3769199    149.65549  0.070063432  0.074392008            1 
  179000   0.97363121   -3.3512778    150.45644  0.070044895  0.074269645            7 
  180000    0.9820797   -3.3793786    151.18879  0.069994811  0.074146878            3 
  181000    0.9760399   -3.3507707    152.19232  0.070070127  0.074021687            2 
  182000   0.97200844      -3.3818    152.82956  0.069976907  0.073897967            2 
  183000   0.99049929   -3.3600734    154.11831  0.070181377  0.073774951            2 
  184000   0.96887657   -3.3635622    154.29818  0.069881423  0.073652869            6 
  185000   0.97701817      -3.3729    154.84192  0.069748612  0.073533852            3 
  186000   0.96211886    -3.362913    154.89526  0.069397517  0.073414041            4 
  187000   0.95757133   -3.3711275    156.05302  0.069542346  0.073293614            1 
  188000   0.96284546    -3.337925    156.95278  0.069571269   0.07317282            1 
  189000   0.98341215   -3.3603597    157.04157  0.069242316  0.073049346            2 
  190000   0.97832621   -3.3718812    157.55481  0.069102988  0.072923034            2 
  191000   0.95391613   -3.3536833    157.14395  0.068561931  0.072791419            3 
  192000   0.96122392   -3.4118291    157.92229  0.068542661  0.072666951            5 
  193000   0.96342602   -3.3976737    159.36702  0.068811323  0.072544183            2 
  194000   0.97805477   -3.3863319    160.30621  0.068860056  0.072421529            3 
  195000   0.95783232   -3.3939106    159.69145  0.068244211  0.072293269            3 
  196000   0.94839938     -3.39754      160.681  0.068316751  0.072163315            1 
  197000   0.94340922   -3.3854373    160.95838  0.068087302  0.072030223            3 
  198000   0.94518573   -3.3698398    161.78212  0.068090118  0.071895806            3 
  199000   0.95557226   -3.4051034    162.61831  0.068098119  0.071764418            3 
  200000   0.94267283   -3.4066971    162.65772   0.06777405  0.071633102            6 
  201000   0.94867608    -3.403447    163.38313  0.067737615  0.071505554            3 
  202000   0.92900637   -3.3907362    164.11818  0.067705518   0.07137759            3 
  203000    0.9661786   -3.4088194    163.44242  0.067094589  0.071242377            3 
  204000   0.93353148   -3.4253214    164.19735   0.06707408  0.071102396            2 
  205000   0.94111087   -3.4422169    165.96852  0.067466876  0.070966744            2 
  206000   0.92288604   -3.4224799    165.43692  0.066924322  0.070830356            2 
  207000   0.96202183   -3.4045205    166.31255  0.066953523  0.070695196            2 
  208000   0.92419331   -3.4082022    167.82752   0.06723859  0.070557289            2 
  209000   0.93479159   -3.4005092    168.84561  0.067322809  0.070429125            5 
  210000   0.92771998   -3.4362523    168.68954  0.066940293  0.070304771            4 
  211000   0.91263921   -3.4295894    169.16332  0.066810159  0.070178888            3 
  212000   0.94940302   -3.4396515    169.35126  0.066568891  0.070048993            3 
  213000   0.92199646   -3.4213606    170.37016  0.066654994  0.069924057            5 
  214000   0.92697682   -3.4340494    171.07958  0.066619772  0.069799298            4 
  215000   0.92537289   -3.4225625    171.98392  0.066660433  0.069673271            3 
  216000    0.9183655   -3.4501986    172.27504  0.066464137  0.069549986            2 
  217000   0.93258788   -3.4276005    172.63641  0.066296625  0.069428084            5 
  218000   0.89628995   -3.4272789    172.82374  0.066064122  0.069301255            2 
  219000    0.9108598   -3.4439254    173.87895  0.066163982  0.069175284            2 
  220000   0.92042944   -3.4244739    174.29343  0.066020239  0.069049855            3 
  221000    0.9058727   -3.4148298    174.64969  0.065855843  0.068927323            3 
  222000   0.92525319   -3.4404935    174.74922  0.065596555  0.068800575            2 
  223000   0.90027989   -3.4412602    175.88364  0.065726324  0.068670742            4 
  224000   0.90669184   -3.4598837    175.85139  0.065420904  0.068543764            2 
  225000   0.90410871   -3.4885396    176.36431  0.065320115  0.068414177            3 
  226000   0.91600284   -3.4666989    176.38636  0.065039218   0.06828445            6 
  227000   0.90714694   -3.4781199    176.93996  0.064955931  0.068153945            4 
  228000   0.89985343   -3.4669268    177.95118  0.065040635  0.068024355            3 
  229000   0.88482803   -3.4895594    177.85299  0.064720883  0.067891578            3 
  230000   0.90433541   -3.4490318     178.3943  0.064635617  0.067759336            3 
  231000   0.88710949   -3.4992753    178.54924  0.064411702  0.067627333            4 
  232000   0.88598159   -3.4725004    178.75942  0.064209563   0.06749074            3 
  233000    0.9087202   -3.4884349    179.48871  0.064194817  0.067356847            5 
  234000   0.89200956   -3.4963057    180.47286   0.06427096  0.067225852            2 
  235000   0.91254098   -3.4609726    180.95015   0.06416672  0.067096193            4 
  236000   0.88790067   -3.4770201    181.13358  0.063959599   0.06696399            3 
  237000   0.91620285   -3.4775899    181.77009  0.063913534  0.066832219            6 
  238000   0.90999016   -3.4683338    182.32555  0.063839478  0.066701687            4 
  239000    0.8901785   -3.5051692    182.95155  0.063790638  0.066571772            5 
  240000   0.85870184   -3.4869393    184.09799  0.063922913  0.066443677            3 
  241000   0.87749204   -3.5262904    183.60548  0.063487371  0.066315449            2 
  242000   0.86890796    -3.509494    183.76104  0.063278596  0.066187374            4 
  243000   0.86901898   -3.5067054    185.44706  0.063596385  0.066060838            2 
  244000   0.87334464   -3.5063223    186.15454  0.063577369  0.065932689            4 
  245000   0.89601292   -3.5137764    185.85395  0.063215628  0.065806948            5 
  246000   0.89913245   -3.5001852    186.16439  0.063063816  0.065680577            4 
  247000   0.87694669   -3.5031997    186.50545  0.062923568  0.065556048            9 
  248000   0.86995007   -3.5240535    187.17003  0.062893156  0.065430786            6 
  249000   0.85553733   -3.5144423    187.38613  0.062712896  0.065308108            4 
  250000   0.85814115    -3.509409    188.24524  0.062748412  0.065185619            4 
  251000   0.86302968   -3.5223882    187.99792  0.062416309   0.06506079            4 
  252000   0.85992424   -3.5362391      188.652  0.062384921  0.064935511            3 
  253000   0.87629987   -3.5076267    189.37225  0.062375575  0.064811491            3 
  254000   0.84838404   -3.5186345    189.64087  0.062218132   0.06468846            4 
  255000   0.87651574   -3.5220416    190.42634  0.062230831   0.06456619            3 
  256000   0.84969221   -3.5630319    190.58449  0.062039223  0.064443708            4 
  257000   0.85577496   -3.5138465    191.43276  0.062072878  0.064321382           10 
  258000   0.84220107   -3.5222566    192.39368  0.062142662  0.064200674            3 
  259000   0.85854024   -3.5109558    192.56488  0.061957811  0.064080654            4 
  260000   0.85335296   -3.5472056    192.57053  0.061721323  0.063962316            2 
  261000   0.86434063   -3.5670269    192.99613  0.061620732  0.063841614            4 
  262000   0.83956535   -3.5283556    193.18833   0.06144667  0.063720619            2 
  263000   0.86337859   -3.5733799    193.40468  0.061281584  0.063597926            3 
  264000    0.8536483   -3.5772036    193.85334  0.061191078  0.063474743            7 
  265000    0.8312169   -3.5563615    195.23877  0.061395841  0.063353083            2 
  266000   0.83448105   -3.5762654    195.70216  0.061310202  0.063232488            3 
  267000   0.84389639   -3.5653069    195.45266  0.061002702  0.063113358            4 
  268000   0.84528271    -3.544474    195.92381  0.060921582  0.062994069            2 
  269000   0.84992361   -3.5684948    196.34153  0.060824514  0.062875508            3 
  270000   0.83926826   -3.5480673    196.21621  0.060560558   0.06275502            5 
  271000   0.82108199   -3.5415636    197.28125   0.06066459  0.062634686            6 
  272000    0.8494328   -3.5704072    198.66554  0.060865668  0.062517941            2 
  273000   0.82408162     -3.57097    197.90664  0.060411063  0.062399811            3 
  274000   0.84352399   -3.5651358    198.91017  0.060495795  0.062281433            2 
  275000   0.81417194   -3.5899319    199.40514    0.0604258  0.062163932            7 
  276000   0.82480791   -3.5762676    199.45253  0.060221176  0.062047617            5 
  277000   0.82167531   -3.5730373    200.19166  0.060226132  0.061930455            5 
  278000   0.82420817   -3.5864932    200.57936  0.060125707  0.061816262            6 
  279000   0.82165486   -3.5928285    200.53567  0.059897152  0.061701839            3 
  280000   0.82319322   -3.5950615    200.67745  0.059725432  0.061587991            5 
  281000   0.84119174   -3.5958171    201.60507  0.059787981  0.061470794            3 
  282000    0.8103245    -3.592818    201.19102  0.059453612  0.061353397            2 
  283000   0.81971365   -3.5928803    201.74278  0.059406001  0.061236507            4 
  284000   0.81836575   -3.6088231    202.30455  0.059361662  0.061118787            2 
  285000   0.82291029   -3.5980425    202.40941  0.059184037  0.061001612            5 
  286000   0.80735682   -3.6160979    203.48456  0.059290372  0.060884209            4 
  287000   0.81428137   -3.6189151    203.55066  0.059102978  0.060769034            3 
  288000   0.83513598   -3.5800155    204.92706  0.059296025  0.060656485            2 
  289000   0.80237633    -3.615159    203.61409  0.058712251  0.060541343            4 
  290000   0.81604307   -3.6272407    204.51579  0.058768905  0.060425464           10 
  291000   0.81758719    -3.627787    205.34442  0.058804244  0.060310031            3 
  292000   0.80423902   -3.6176822    204.80938  0.058450166  0.060196804            7 
  293000   0.80113061   -3.6338942    205.80764  0.058534596  0.060080073            4 
  294000   0.77467672   -3.6326139    206.10412  0.058419534  0.059963875            4 
  295000   0.78319899   -3.6081006    206.49096   0.05833078  0.059848211            2 
  296000   0.77206144   -3.6424738    205.90715  0.057969356  0.059732657            3 
  297000   0.80408631   -3.6472274    206.22057  0.057862112  0.059615495            2 
  298000   0.79909019   -3.6036296    207.91825  0.058142687  0.059498676            5 
  299000   0.80538318   -3.6453442    208.07131  0.057990888  0.059383379            5 
  300000   0.78158418   -3.6229553    207.89791  0.057749418  0.059267591            7 
  301000     0.784919   -3.6528744    208.25151  0.057655456  0.059151388            3 
  302000   0.78435709   -3.6436936    209.08973  0.057695843  0.059034396            2 
  303000   0.79573415   -3.6320373    208.19857  0.057260333  0.058916839            6 
  304000   0.79622763    -3.650022    208.67594  0.057202835  0.058797439            3 
  305000   0.77843021   -3.6459092    208.81277  0.057052669  0.058678978            3 
  306000   0.77903924    -3.660939    209.43416  0.057035446  0.058560343            3 
  307000   0.77824514   -3.6298586    210.61458  0.057170081   0.05844161            5 
  308000   0.76648174   -3.6298223    209.43783  0.056666078  0.058324362            8 
  309000   0.76661338   -3.6585417    209.80554  0.056581861  0.058203887            5 
  310000   0.78215708    -3.683654    209.82552   0.05640471  0.058084898            4 
  311000   0.76671083   -3.6764717    210.81763  0.056489182  0.057964059            3 
  312000   0.76901604   -3.6685324    210.43336  0.056205491  0.057843039            3 
  313000   0.75847951   -3.7014905     210.8095  0.056126065  0.057723248            5 
  314000   0.77496413   -3.6803995    211.87965  0.056231331  0.057603931           13 
  315000   0.76956847   -3.6690262    212.16121  0.056127303  0.057485909            6 
  316000   0.75530389   -3.6714678    211.62047  0.055807087  0.057366017            4 
  317000   0.77617108   -3.6936473    211.80393  0.055679266  0.057246952            6 
  318000   0.76997218   -3.7046109     212.9024  0.055792033  0.057128352            3 
  319000   0.75765379   -3.6898887    212.89435  0.055615034  0.057011127            4 
  320000   0.76509933   -3.6938175    212.93614   0.05545212   0.05689236            2 
  321000   0.77454107   -3.6780364    213.98556  0.055551807  0.056774752            4 
  322000   0.74771329   -3.6761205    214.22472  0.055441181  0.056658276            5 
  323000   0.75367929   -3.7145386    213.52432  0.055088834  0.056540823            4 
  324000   0.75348225   -3.7168315    214.20934  0.055094995  0.056424062            9 
  325000   0.73946596    -3.720067    213.54095  0.054754089  0.056308007            4 
  326000   0.76676451   -3.7138666    214.33409  0.054788878   0.05618958            8 
  327000   0.73790573    -3.718794    214.34224  0.054623406  0.056071666           12 
  328000   0.74257249   -3.7378869    214.55833  0.054511772  0.055953592            6 
  329000   0.74737743   -3.7242484    215.61405  0.054613488  0.055835925            3 
  330000   0.73526131    -3.718255    215.05187  0.054306028  0.055716789            6 
  331000    0.7244166   -3.7368318    215.47722  0.054249049  0.055598464            4 
  332000    0.7392898   -3.7393161    215.74761  0.054153518  0.055480195            5 
  333000   0.73312827   -3.7064517    216.52989  0.054186659  0.055362944            3 
  334000   0.72121261   -3.7360286    216.94319  0.054127542  0.055246898            7 
  335000    0.7275098   -3.7573738    216.63068   0.05388823  0.055131076            6 
  336000   0.72918407   -3.7442784    217.27447  0.053887518  0.055014585            6 
  337000   0.72667797   -3.7482292    216.99113  0.053657549  0.054899262            5 
  338000   0.74113825   -3.7549059    217.57443  0.053642611   0.05478294            5 
  339000   0.72298929   -3.7422099    218.05604  0.053602763  0.054666023            9 
  340000   0.73300922   -3.7647832    216.88256   0.05315749  0.054548735            5 
  341000   0.73371086    -3.753048    216.92145  0.053011108  0.054430907            3 
  342000   0.71918255   -3.7602174    217.74579  0.053056966  0.054313657            4 
  343000   0.73814218   -3.7530122    218.19856  0.053012285  0.054196625            4 
  344000   0.70254785   -3.7734131    217.99075  0.052807836   0.05408069            8 
  345000   0.71998526   -3.7523582    218.60338   0.05280275  0.053964027            3 
  346000    0.7074827   -3.7671577    219.19118   0.05279171  0.053848422            3 
  347000   0.71790025   -3.7534477    219.42765  0.052696362  0.053732326           11 
  348000   0.72569543   -3.7490745     220.6065  0.052827227  0.053616608            5 
  349000   0.70549893   -3.7827984    220.66527  0.052689894  0.053501869            6 
  350000   0.70331965   -3.7833034    220.29679  0.052451617  0.053387816            2 
  351000   0.70173158    -3.760941    220.31818  0.052307261  0.053275228            4 
  352000   0.70852146    -3.807191    220.16187  0.052121655  0.053161871            2 
  353000   0.70713859   -3.8034274    220.68077  0.052096499  0.053048717            2 
  354000   0.71829511   -3.7935131    220.03307  0.051796862  0.052934142            4 
  355000   0.70477215   -3.7708422    220.65644  0.051797287  0.052819584            5 
  356000   0.70054288   -3.7879289    220.49823  0.051614754  0.052704894            9 
  357000    0.6985409   -3.8083935    220.93457  0.051572029  0.052590255            6 
  358000   0.68001538   -3.7813186      221.123  0.051471835  0.052475782            6 
  359000   0.68220856    -3.826411    221.13358  0.051330914  0.052360195            4 
  360000   0.69701903   -3.7915376    220.78399  0.051107406  0.052244666            5 
  361000   0.70058686    -3.810758    221.74712  0.051188161  0.052129768            3 
  362000   0.68927679   -3.7939729    221.69435  0.051034612  0.052014685            4 
  363000   0.68883103   -3.8416244    222.67247  0.051118565  0.051900267            6 
  364000   0.68532941    -3.794026    222.79669  0.051006569  0.051786965            5 
  365000   0.67776617   -3.8157649    222.82057  0.050872277  0.051673315            4 
  366000   0.69806365    -3.862216    221.74322  0.050487984  0.051557952            6 
  367000   0.68397913   -3.8145296    222.75849  0.050580948  0.051443482            5 
  368000     0.687853   -3.8095717    222.54244  0.050394574  0.051329511            5 
  369000   0.67333447   -3.8126555    223.49583  0.050473313    0.0512159            6 
  370000   0.67290985    -3.849868    223.51494  0.050341203  0.051102549            6 
  371000    0.6698182   -3.8239146    223.66474   0.05023916  0.050989506            5 
  372000   0.65993021   -3.8324441    223.38395  0.050041206  0.050877933           10 
  373000   0.67677568   -3.8291484    223.76614  0.049992436  0.050765923            8 
  374000   0.68364798   -3.8416445    224.04747   0.04992145  0.050653804            7 
  375000   0.66041746   -3.8431321    224.07361  0.049794137  0.050542526            5 
  376000   0.65787528   -3.8414205    223.81896  0.049605265  0.050430186            7 
  377000    0.6568115   -3.8611743    224.66631  0.049660989  0.050318717            5 
  378000   0.67178067   -3.8442624    225.13894  0.049633805  0.050207312           11 
  379000    0.6628997   -3.8751571    224.90036  0.049450387  0.050096344            8 
  380000   0.66428599   -3.8241349    225.32196  0.049412711  0.049986742            5 
  381000   0.65641031    -3.856259    225.33515  0.049285904  0.049876219            7 
  382000   0.66065865   -3.8647567    225.68553  0.049233319  0.049766817            4 
  383000    0.6617725   -3.8846528    225.70927  0.049109937  0.049656735            8 
  384000   0.66715954   -3.8650764    225.86145  0.049015071  0.049546255            9 
  385000   0.66936969   -3.8580554    225.43615  0.048795702   0.04943573            6 
  386000   0.64590556   -3.8866571    225.70486    0.0487273  0.049325486            5 
  387000   0.64950568   -3.8636548     227.2171  0.048927025  0.049215098           11 
  388000    0.6446942   -3.8887402    226.17192  0.048576443  0.049105066            8 
  389000   0.63578365   -3.8762408    225.66188  0.048342306  0.048995175           10 
  390000   0.64513403   -3.9040846    225.98762  0.048287953  0.048885578           16 
  391000   0.64742119   -3.8724715     226.7817  0.048333695  0.048776076           12 
  392000   0.63971223   -3.9098024    227.16453  0.048291779  0.048666413           14 
  393000   0.64272099   -3.9085408    226.84009  0.048100104  0.048557586            5 
  394000   0.62770575   -3.8804921    227.72253  0.048164663  0.048448324            7 
  395000   0.64164782   -3.9045925    227.28145  0.047949672  0.048339818            7 
  396000   0.63213002   -3.9123847    227.44199  0.047862371   0.04823138            9 
  397000   0.63307145   -3.8926465     227.6173  0.047778609  0.048123114            6 
  398000    0.6296834   -3.9139545    227.61705  0.047658512  0.048015009           11 
  399000   0.61982157   -3.9245593    227.48646  0.047511791  0.047906847            6 
  400000   0.64578798   -3.9204708    227.34112  0.047362733  0.047798872           11 
  401000   0.63766104    -3.932215    227.67003  0.047312973  0.047690224           12 
  402000   0.62264584   -3.9155476    227.59899  0.047180554  0.047581968            8 
  403000   0.62567039   -3.9220432    227.13085  0.046966676   0.04747363            6 
  404000   0.61605452   -3.9196763    227.50556  0.046927715  0.047366017            5 
  405000   0.61611394   -3.9274701    228.06709  0.046927384   0.04725829           11 
  406000   0.62176219   -3.9520644    228.17459  0.046833866  0.047151028            8 
  407000   0.61748441    -3.923918    228.19391   0.04672275   0.04704437            7 
  408000   0.60777305    -3.920422     228.6255  0.046696384  0.046938092           16 
  409000   0.61547515   -3.9435613    228.64173  0.046585519  0.046831727            8 
  410000   0.62548814   -3.9476822     228.1032  0.046362439  0.046725788           16 
  411000   0.60843037   -3.9623324    229.11182   0.04645414  0.046619912            6 
  412000   0.62280881   -3.9418847    229.23828  0.046366966  0.046514192            6 
  413000   0.61008304   -3.9538643    228.96607  0.046199771  0.046408689           12 
  414000   0.60583572   -3.9476078    229.72006  0.046239948   0.04630299            6 
  415000   0.59912337   -3.9663467    229.34198  0.046052607  0.046196585           13 
  416000   0.59841481   -3.9573123    230.12507  0.046098771  0.046091278           14 
  417000   0.59833012   -3.9698909    229.50119  0.045863546  0.045985767           23 
  418000   0.57599962   -3.9530538    230.01682  0.045856622  0.045881252            7 
  419000   0.57935275    -3.967387    230.26109  0.045795762  0.045776748            8 
  420000   0.60766297   -3.9863104    229.82474  0.045600148  0.045672514           10 
  421000    0.5805913    -3.975871    229.32028  0.045391979  0.045568674            5 
  422000   0.61302475   -3.9743022    229.68298  0.045356038  0.045464139           16 
  423000   0.58889451   -3.9851512    229.55497  0.045223594  0.045358539            6 
  424000   0.58131296   -3.9952284    229.85414  0.045175736  0.045253452            7 
  425000   0.59339605   -3.9764203    230.32763  0.045162281  0.045148018           15 
  426000   0.59095683   -3.9716222    229.28632  0.044852566  0.045042622            9 
  427000   0.58241423   -3.9965027    229.33375  0.044756782  0.044936632            9 
  428000   0.58613015   -4.0089397     229.6279  0.044709482  0.044830555           10 
  429000   0.58096413   -3.9960215    229.46614  0.044573842  0.044724958           29 
  430000   0.58519211   -4.0077529    229.69452  0.044514441  0.044620173           10 
  431000   0.57659714   -4.0161747    229.99218  0.044468712  0.044515816            9 
  432000   0.57415282   -4.0178735    230.37248  0.044439135  0.044411538            4 
  433000   0.56826408   -4.0049408    230.37266  0.044336539  0.044307291            7 
  434000   0.57605547   -4.0145594    230.22974  0.044206938  0.044204029           19 
  435000   0.56223371   -4.0260638    230.30162  0.044119085  0.044100132           17 
  436000   0.56212368   -4.0412242    230.78971  0.044111183  0.043996666           15 
  437000    0.5705634   -4.0337935    231.01112  0.044052464  0.043893886           14 
  438000    0.5716046   -4.0174932    231.19127  0.043986162  0.043791326           13 
  439000   0.56443981   -4.0315652    231.53558  0.043951325  0.043688875            8 
  440000   0.56068511   -4.0376026    230.34671   0.04362627  0.043586437           10 
  441000   0.56951935    -4.030297    230.87226  0.043626655  0.043483517           12 
  442000   0.56906394    -4.056771    230.68935  0.043493467  0.043380793            8 
  443000   0.55719639   -4.0453593    230.76632  0.043409766  0.043277897           17 
  444000   0.55155204   -4.0616966    230.21987  0.043209434   0.04317466           10 
  445000   0.56003838   -4.0614703     230.3363  0.043134139  0.043071614            6 
  446000   0.56783052   -4.0455216    230.66995  0.043099766  0.042968672            5 
  447000   0.56372385   -4.0531817    231.17914  0.043098274  0.042866658            8 
  448000   0.55668513    -4.065785    231.30696  0.043025849   0.04276504           14 
  449000   0.56460211   -4.0540396     231.7804  0.043017891  0.042663483            8 
  450000   0.55069607   -4.0657925    231.57593  0.042884432  0.042562352            9 
  451000   0.55122399   -4.0846177    231.58868  0.042791701  0.042461009           13 
  452000   0.54432648    -4.069848    231.13705  0.042613763  0.042359606           25 
  453000   0.53821033   -4.0781829    231.05667  0.042504906  0.042258142            8 
  454000   0.54341936   -4.0918351    231.44509  0.042482578  0.042156681           11 
  455000   0.55293289   -4.0856596     231.2867  0.042360201  0.042056006            6 
  456000   0.54195773   -4.0814106    230.74359  0.042168055  0.041954581           19 
  457000   0.54131275    -4.080862    230.69503  0.042066927  0.041853765           12 
  458000   0.53091728   -4.0957015    231.55799  0.042132094  0.041752944           15 
  459000   0.53546098   -4.1097377     230.1559  0.041785749  0.041651634           13 
  460000   0.53768174   -4.0929923    231.24669  0.041892516  0.041550355           20 
  461000   0.53344197   -4.0949289    231.42728  0.041834287  0.041449938            7 
  462000    0.5188836   -4.0960608    231.06853  0.041679027  0.041349808           16 
  463000   0.52320003   -4.1108936    230.56315  0.041498047   0.04124915           21 
  464000   0.52971632   -4.1164056    230.78287  0.041448073  0.041148306           11 
  465000   0.51849238   -4.0985495    231.52472  0.041491884  0.041048013           11 
  466000   0.51676464    -4.112645    231.02145  0.041312848  0.040947641           31 
  467000   0.51548448   -4.1355034    230.87309   0.04119791  0.040847107           18 
  468000   0.50935093   -4.1309908    230.93704  0.041121267  0.040747042           14 
  469000   0.51935412   -4.1117084    231.11776    0.0410657  0.040647515           11 
  470000   0.53406693   -4.1345322    231.12241  0.040979151  0.040548738            6 
  471000   0.52719142   -4.1269338    231.13966  0.040895199  0.040450243           10 
  472000   0.52334143   -4.1312676    231.86817  0.040937177  0.040351754           23 
  473000    0.5152263   -4.1232006    231.51769  0.040788882  0.040253632           13 
  474000   0.51277102   -4.1475462    231.35091  0.040673508  0.040155162           16 
  475000   0.50690096   -4.1202541    232.50908  0.040791066  0.040057518            9 
  476000   0.50461633   -4.1487801    231.60481   0.04054706  0.039959777           16 
  477000   0.50109301   -4.1351904    231.32841  0.040413769  0.039862377           16 
  478000   0.51441113   -4.1498143    231.40406  0.040342409  0.039765622           11 
  479000   0.49523796   -4.1436506    231.83484  0.040333132  0.039668822           13 
  480000   0.50059809   -4.1600667    231.67219  0.040220866  0.039572154           10 
  481000   0.50942544   -4.1436232    231.59093  0.040123169  0.039475774           10 
  482000   0.49450935   -4.1598724    231.70544  0.040059723  0.039379729            9 
  483000   0.49108876   -4.1612375    231.90774  0.040011688  0.039283496           30 
  484000   0.49770091    -4.189062     231.6848  0.039890633  0.039187524           13 
  485000   0.49952748   -4.1905034     230.7734  0.039651786  0.039091343           16 
  486000   0.49150871   -4.1733451    231.67639  0.039725033  0.038994794           17 
  487000    0.4901703   -4.1777913    231.61033  0.039632158  0.038898721           22 
  488000   0.48520425   -4.1815094    231.13372  0.039469557  0.038802943           29 
  489000   0.49698961   -4.1822447    231.68964  0.039483579  0.038707311            9 
  490000   0.47285659   -4.1682451    231.58591  0.039385358  0.038612171           11 
  491000    0.4929843   -4.1826588    231.65782  0.039317349  0.038516895           14 
  492000   0.47882574   -4.1907439    231.07421  0.039138585  0.038421316           18 
  493000   0.48320615    -4.185655    231.49668  0.039130609  0.038325745           10 
  494000   0.47638921   -4.1879426    230.92401  0.038954793  0.038230845           14 
  495000    0.4803219   -4.1873617    231.17581  0.038918486   0.03813613           24 
  496000   0.47249382   -4.1850642    231.24986  0.038852463  0.038041369           22 
  497000   0.47501421   -4.1996106    230.87517  0.038711463  0.037946374           20 
  498000   0.46998786   -4.2177993    231.02183  0.038658271  0.037851715           20 
  499000   0.46905885   -4.2234183    231.37075   0.03863907  0.037757581           30 
  500000   0.46711486   -4.2066949    231.51753  0.038586256  0.037664078           30 
  501000   0.47391782   -4.2078844    231.55031  0.038514689  0.037570822           15 
  502000   0.46401688   -4.2159071    231.16434  0.038373894  0.037477672           48 
  503000   0.47009339   -4.2287532    231.26976  0.038315069  0.037384617           39 
  504000   0.46384816   -4.2158696    231.11512  0.038213479  0.037291597           30 
  505000   0.45466956   -4.2232608    231.24928  0.038159947  0.037198869           38 
  506000     0.455487   -4.2371474    231.06278  0.038053817   0.03710598           95 
  507000   0.45321858   -4.2411856    230.21657  0.037839674  0.037013042           39 
  508000   0.45415536   -4.2559212    231.10686  0.037911231  0.036920228           16 
  509000     0.464662   -4.2524036    231.39775  0.037884372  0.036827735           13 
  510000   0.45478169   -4.2539807     230.1605  0.037607925  0.036735086           11 
  511000   0.45231139   -4.2585255    230.92739  0.037659392  0.036642719           11 
  512000   0.46310483   -4.2497722    230.86544  0.037575755  0.036550389           14 
Loop time of 1220.29 on 48 procs for 500000 steps with 4000 atoms

Performance: 70802.729 tau/day, 409.738 timesteps/s
99.4% CPU use with 48 MPI tasks x no OpenMP threads

MPI task timing breakdown:
Section |  min time  |  avg time  |  max time  |%varavg| %total
---------------------------------------------------------------
Pair    | 80.618     | 85.274     | 90.641     |  29.2 |  6.99
Neigh   | 8.2508     | 8.5879     | 8.9833     |   6.7 |  0.70
Comm    | 77.994     | 83.587     | 88.56      |  30.4 |  6.85
Output  | 0.85265    | 0.85335    | 0.86224    |   0.1 |  0.07
Modify  | 1029       | 1031.2     | 1035.4     |   4.3 | 84.50
Other   |            | 10.83      |            |       |  0.89

Nlocal:        83.3333 ave          90 max          76 min
Histogram: 1 1 6 5 7 13 4 7 1 3
Nghost:        2235.21 ave        2255 max        2206 min
Histogram: 1 1 5 2 7 7 8 6 8 3
Neighs:        14910.8 ave       16631 max       13664 min
Histogram: 4 5 6 8 10 5 4 3 2 1
FullNghs:      29821.2 ave       32525 max       27137 min
Histogram: 1 2 5 9 11 7 3 5 3 2

Total # of neighbors = 1431420
Ave neighs/atom = 357.85500
Neighbor list builds = 27085
Dangerous builds = 0

#clear
#
#next RN
#
#jump SELF
Total wall time: 0:20:23
