
units lj                  # Use reduced LJ style units
atom_style atomic         # Uncharged point particles
atom_modify map hash      # Needed for indexing of clusters etc
                          # Used to be able to find where atoms are in relation to each other.

lattice fcc 1.0 spacing 1 1 1
Lattice spacing in x,y,z = 1.5874011 1.5874011 1.5874011
region box block 0 10 0 10 0 10 units lattice
create_box 2 box
Created orthogonal box = (0.0000000 0.0000000 0.0000000) to (15.874011 15.874011 15.874011)
  3 by 4 by 4 MPI processor grid
create_atoms 1 box
Created 4000 atoms
  using lattice units in orthogonal box = (0.0000000 0.0000000 0.0000000) to (15.874011 15.874011 15.874011)
  create_atoms CPU = 0.002 seconds
set type 1 type/fraction 2 0.91 78393
Setting atom values ...
  3634 settings made for type/fraction
mass 1 1.0
mass 2 1.0
pair_style lj/cut  3.5
pair_modify tail  yes
pair_coeff 1  1  1.0  1.0   # Intearaction between 1 and 1 set with epsilon = 1 and sigma = 1
pair_coeff 1  2  1.5  0.8
pair_coeff 2  2  0.5  0.88

write_data data.0
System init for write_data ...
Neighbor list info ...
  update every 1 steps, delay 10 steps, check yes
  max neighbors/atom: 2000, page size: 100000
  master list distance cutoff = 3.8
  ghost atom cutoff = 3.8
  binsize = 1.9, bins = 9 9 9
  1 neighbor lists, perpetual/occasional/extra = 1 0 0
  (1) pair lj/cut, perpetual
      attributes: half, newton on
      pair build: half/bin/atomonly/newton
      stencil: half/bin/3d
      bin: standard
WARNING: Not all mixed pair coeffs generated from mixing. Use write_data with 'pair ij' option to store all pair coeffs. (../write_data.cpp:312)


#############################
#   M E L T   S Y S T E M   #
#############################

velocity all create 2.4 6583654 mom yes dist gaussian # Assign velocities
                                                    # Temperature 2.4, random number seed, zero linear momentum
                                                                                # Gaussian distribution

timestep 0.002   # simulation timestep
thermo 1000       # output thermodynamic data every 1000 steps bf 100

# Define a fix  in this case with index 1 applied to all
# particles in the simulation. This fix is for simulations
# in the anisotropic NPT ensemble. Note that we use the MTK
# correction.
fix 1 all npt temp 2.4 2.4 0.1 iso 5.68 5.68 0.5 mtk yes tchain 5 pchain 5 # Use NPT ensemble
                                                                         # Set temperature and pressure and damping
                                                                         # Numbers of thermostats in chain and in barostat
run 10000          # run for 10000 steps
Per MPI rank memory allocation (min/avg/max) = 3.642 | 3.644 | 3.648 Mbytes
Step Temp E_pair E_mol TotEng Press Volume 
       0          2.4    -3.140535            0     0.458565   -2.4974117         4000 
    1000    2.4235995   -2.1634017            0    1.4710887     5.596485    4036.9086 
    2000     2.355664   -2.1870351            0    1.3455775    5.8670776    3970.0074 
    3000    2.4127757   -2.1576545            0    1.4606042     5.679765    4029.1117 
    4000    2.4018455   -2.1817367            0    1.4201308    5.6145601    4019.3545 
    5000    2.3860446   -2.1257612            0     1.452411    5.8573115    4027.6713 
    6000    2.4051888   -2.1321873            0     1.474694    5.6043467    4052.7663 
    7000    2.3908035   -2.1892541            0    1.3960546     5.415927    4033.5533 
    8000    2.4069798   -2.1622034            0    1.4473637    5.5868511    4030.7541 
    9000     2.428557   -2.1898885            0    1.4520362    5.4656737      4029.96 
   10000    2.3728283   -2.1627722            0    1.3955805    5.8847629    3986.8396 
Loop time of 2.55529 on 48 procs for 10000 steps with 4000 atoms

Performance: 676243.232 tau/day, 3913.445 timesteps/s
99.5% CPU use with 48 MPI tasks x no OpenMP threads

MPI task timing breakdown:
Section |  min time  |  avg time  |  max time  |%varavg| %total
---------------------------------------------------------------
Pair    | 1.0549     | 1.1495     | 1.2347     |   3.3 | 44.99
Neigh   | 0.20715    | 0.21378    | 0.23163    |   1.0 |  8.37
Comm    | 0.77805    | 0.88832    | 0.9681     |   4.5 | 34.76
Output  | 0.00024649 | 0.00025063 | 0.00031766 |   0.0 |  0.01
Modify  | 0.24554    | 0.2879     | 0.34477    |   6.1 | 11.27
Other   |            | 0.01553    |            |       |  0.61

Nlocal:        83.3333 ave          94 max          71 min
Histogram: 1 1 1 4 14 10 11 3 1 2
Nghost:        1646.00 ave        1675 max        1619 min
Histogram: 3 3 5 3 11 9 8 1 2 3
Neighs:        9578.31 ave       11131 max        7610 min
Histogram: 1 0 2 2 15 10 7 9 0 2

Total # of neighbors = 459759
Ave neighs/atom = 114.93975
Neighbor list builds = 901
Dangerous builds = 179

# Equilibrate just above the melting temperature to avoid step fn in T

fix 1 all npt temp 1.25 1.25 0.1 iso 5.68 5.68 0.5 mtk yes tchain 5 pchain 5
run 2000
Per MPI rank memory allocation (min/avg/max) = 3.643 | 3.645 | 3.649 Mbytes
Step Temp E_pair E_mol TotEng Press Volume 
   10000    2.3728283   -2.1627722            0    1.3955805    5.8847629    3986.8396 
   11000    1.2423266   -3.2023969            0   -1.3393729    5.8690164    3117.3083 
   12000    1.2560013   -3.2034153            0   -1.3198844    5.5369298    3142.7599 
Loop time of 0.604389 on 48 procs for 2000 steps with 4000 atoms

Performance: 571817.017 tau/day, 3309.126 timesteps/s
99.6% CPU use with 48 MPI tasks x no OpenMP threads

MPI task timing breakdown:
Section |  min time  |  avg time  |  max time  |%varavg| %total
---------------------------------------------------------------
Pair    | 0.26568    | 0.29283    | 0.31275    |   1.9 | 48.45
Neigh   | 0.039863   | 0.042067   | 0.044586   |   0.5 |  6.96
Comm    | 0.1967     | 0.21957    | 0.24918    |   2.5 | 36.33
Output  | 7.5862e-05 | 7.938e-05  | 9.2521e-05 |   0.0 |  0.01
Modify  | 0.041044   | 0.045045   | 0.048158   |   0.9 |  7.45
Other   |            | 0.004796   |            |       |  0.79

Nlocal:        83.3333 ave          93 max          74 min
Histogram: 2 1 6 7 8 12 4 3 2 3
Nghost:        1932.35 ave        1956 max        1911 min
Histogram: 3 3 6 7 8 6 5 3 3 4
Neighs:        12164.9 ave       14124 max       10431 min
Histogram: 1 1 6 11 8 11 4 3 2 1

Total # of neighbors = 583914
Ave neighs/atom = 145.97850
Neighbor list builds = 144
Dangerous builds = 11

#############################
# L I N E A R  Q U E N C H  #
#############################

# Define solid atoms. This closely follows ten Wolde  Ruiz-Montero and Frenkel  Faraday Discuss  1996  104  93-110
# Compute components of the per-atom q6 vector
compute q6 all orientorder/atom degrees 1 6 components 6 nnn NULL cutoff 1.3 # compute the Q6 parameter.
                                                                             # Use all neighbours within 1.3 unit cell.

# get number of connections
compute coord_number all coord/atom orientorder q6 0.5

# An atom is solid if it has 8 or more connections (of a possible 14)
variable is_solid atom c_coord_number>=8
group solid dynamic all var is_solid    # Must be dynamic to update
dynamic group solid defined

# do clustering
compute cluster solid cluster/atom 1.3 # Create a cluster where all atoms within are solid and max 1.3 units from another member

# define chunks one chunk per cluster
compute clus_chunks solid chunk/atom c_cluster nchunk every compress yes  # Says which atoms are in which chunk

# count the size of each chunk
compute size_chunks solid property/chunk clus_chunks count


# Find the maximum entry in the vector of chunk sizes
variable max_n equal max(c_size_chunks)


# Thermo style which includes this variable
# thermo_style custom step temp pe vol v_max_n

thermo ${N}  # Print the thermo information every 100 steps
thermo 1000  

# Reset the npt fix at a lower temperature (below freezing)
fix 1  all npt temp  ${temp} ${temp}  0.1  iso  5.68  5.68  0.5  mtk yes tchain  5  pchain  5
fix 1  all npt temp  0.45 ${temp}  0.1  iso  5.68  5.68  0.5  mtk yes tchain  5  pchain  5
fix 1  all npt temp  0.45 0.45  0.1  iso  5.68  5.68  0.5  mtk yes tchain  5  pchain  5

dump dmp2 all dcd ${N} traj.dcd
dump dmp2 all dcd 1000 traj.dcd


compute msd all msd com yes
variable twopoint equal c_msd[4]/6/(step*dt+1.0e-6)
fix 9 all vector 10 c_msd[4]
variable fit equal slope(f_9)/6/(10*dt)
thermo_style custom step temp pe c_msd[4] v_twopoint v_fit v_max_n

fix 1 all npt temp 1.25 ${temp} 0.1 iso 5.68 5.68 0.5 mtk yes tchain 5 pchain 5
fix 1 all npt temp 1.25 0.45 0.1 iso 5.68 5.68 0.5 mtk yes tchain 5 pchain 5
run 2000000 # 5000000  # Run for this many steps
Neighbor list info ...
  update every 1 steps, delay 10 steps, check yes
  max neighbors/atom: 2000, page size: 100000
  master list distance cutoff = 3.8
  ghost atom cutoff = 3.8
  binsize = 1.9, bins = 8 8 8
  4 neighbor lists, perpetual/occasional/extra = 1 3 0
  (1) pair lj/cut, perpetual
      attributes: half, newton on
      pair build: half/bin/atomonly/newton
      stencil: half/bin/3d
      bin: standard
  (2) compute orientorder/atom, occasional
      attributes: full, newton on
      pair build: full/bin/atomonly
      stencil: full/bin/3d
      bin: standard
  (3) compute coord/atom, occasional
      attributes: full, newton on
      pair build: full/bin/atomonly
      stencil: full/bin/3d
      bin: standard
  (4) compute cluster/atom, occasional
      attributes: full, newton on
      pair build: full/bin/atomonly
      stencil: full/bin/3d
      bin: standard
Per MPI rank memory allocation (min/avg/max) = 9.819 | 9.826 | 9.832 Mbytes
Step Temp PotEng c_msd[4] v_twopoint v_fit v_max_n 
   12000    1.2560013   -3.2034153 8.4250345e-31 5.8507181e-33 8.3333333e+20            1 
   13000    1.2486803   -3.2391228    1.0083597 0.0064638441   0.08520564            2 
   14000    1.2631472   -3.2051958     2.124839  0.012647851  0.089498541            2 
   15000    1.2274401    -3.224507    3.2511604  0.018062002   0.09095728            2 
   16000    1.2668099   -3.2233965    4.4048416  0.022941882   0.09289344            1 
   17000    1.2466003   -3.2173941    5.4730356  0.026828605  0.093391864            2 
   18000    1.2605059   -3.2473465    6.6052288  0.030579762  0.093482608            1 
   19000    1.2338498   -3.1915868    7.8424414  0.034396672  0.093812986            2 
   20000    1.2623439   -3.2108093    8.9720019   0.03738334  0.094180457            1 
   21000    1.2278398   -3.2145664    10.101479  0.040085234  0.094414984            1 
   22000    1.2417085   -3.2373273    11.291593  0.042771184  0.094673815            3 
   23000    1.2345369    -3.234756    12.498544  0.045284577  0.095195905            1 
   24000    1.2375678   -3.2073255    13.481997   0.04681249  0.095246641            1 
   25000    1.2460736   -3.2054355    14.626276  0.048754253  0.094968937            1 
   26000    1.2339295    -3.213506     15.62737  0.050087723  0.094660234            2 
   27000    1.2396573    -3.202107    16.769673  0.051758249  0.094290932            2 
   28000    1.2611322   -3.2189079     18.02317  0.053640387  0.094286717            1 
   29000     1.229105   -3.2448311    18.871261  0.054227762  0.094052853            1 
   30000    1.2530008   -3.1962554    20.066458  0.055740161  0.093733278            2 
   31000    1.2560237   -3.2623984    21.201455  0.056993158  0.093628058            2 
   32000    1.2239434   -3.1924299    22.335931  0.058166485  0.093526366            1 
   33000    1.2690588   -3.2422222    23.255505  0.058726022  0.093329645            2 
   34000    1.2393707   -3.1924847    24.394237  0.059789796  0.093041862            1 
   35000     1.215717   -3.2184049    25.481485  0.060670201  0.092903757            2 
   36000    1.2425274   -3.2169874     26.39382  0.061096805   0.09268296            1 
   37000    1.2366122   -3.2431188    27.485246  0.061903707  0.092436021            1 
   38000    1.2342815   -3.2467289    28.592089  0.062701949  0.092203034            1 
   39000     1.230054    -3.237698    29.286019  0.062576963  0.091892993            2 
   40000    1.2364836   -3.2120926    30.443138  0.063423203   0.09155469            3 
   41000    1.2307255   -3.2276548    31.443936  0.063910439  0.091249397            2 
   42000    1.2119424   -3.2032635    32.507622  0.064499249  0.090919651            2 
   43000    1.2429307   -3.2533447       33.339  0.064610464   0.09060433            3 
   44000    1.2284225   -3.2347669     34.75711  0.065827859  0.090387529            3 
   45000    1.2277709   -3.2566814     35.80567  0.066306795  0.090262204            1 
   46000    1.2474377   -3.2152205    37.020751  0.067066577  0.090196584            1 
   47000    1.2239918    -3.212375    38.173395  0.067683323  0.090146332            1 
   48000    1.2372487   -3.2401339    39.050196  0.067795478  0.090131897            1 
   49000    1.2256964   -3.2323388     40.13105  0.068250085  0.090097893            5 
   50000    1.2308246   -3.2238807    41.416094  0.069026822  0.090026161            2 
   51000    1.2288047   -3.2190423    42.206616  0.068965057  0.089936568            4 
   52000    1.2189529   -3.2420974     43.16485  0.069174438  0.089840431            2 
   53000    1.2182874   -3.2527991    44.368492  0.069761779  0.089759248            2 
   54000     1.228833   -3.2869422    45.268739  0.069859165  0.089695656            2 
   55000    1.2456782   -3.2359691    46.540375  0.070515719  0.089638358            2 
   56000    1.2152804   -3.2420998     47.49245  0.070673289  0.089588285            4 
   57000    1.2635283   -3.2127018    48.504888  0.070913579  0.089544002            1 
   58000    1.2069919   -3.2817816    49.604032  0.071270161  0.089463337            2 
   59000    1.2306319   -3.2420747    50.696525   0.07160526  0.089403943            1 
   60000    1.2451356   -3.2146794     51.66203  0.071752819  0.089341834            1 
   61000    1.2375769   -3.2458871    52.337759  0.071499671  0.089257033            2 
   62000    1.2425223   -3.2432582    53.340504  0.071694225  0.089109964            2 
   63000    1.2264503    -3.238514    54.212272  0.071709354  0.088960177            2 
   64000      1.23101   -3.2605748    55.047697  0.071676688  0.088787783            2 
   65000    1.2531035   -3.2529525    55.761092  0.071488579   0.08862225            2 
   66000    1.2354222   -3.2403056    57.112895   0.07211224  0.088460441            1 
   67000    1.2423997   -3.2537769    57.649373    0.0717032  0.088261524            1 
   68000    1.2224445   -3.2065933    58.714345  0.071953853  0.088084744            3 
   69000     1.215671      -3.2375     59.36901  0.071701702  0.087897222            1 
   70000    1.2237558   -3.2456481    60.627118   0.07217514  0.087712043            1 
   71000    1.2107721   -3.2703876    61.615778  0.072318988  0.087547536            2 
   72000    1.2047974   -3.2637374    62.903944   0.07280549  0.087388528            1 
   73000    1.2293131   -3.2601359    63.767619  0.072794085  0.087236986            2 
   74000    1.2212451   -3.2432258    65.324411  0.073563526  0.087125359            1 
   75000    1.2509666   -3.2027577    67.080985  0.074534427   0.08708604            1 
   76000    1.2214704   -3.2599242    67.793283   0.07433474   0.08706738            2 
   77000    1.2319612   -3.2344207    68.280247  0.073896371  0.087019706            2 
   78000    1.2031085   -3.2540627    69.279697   0.07401677  0.086957882            2 
   79000    1.2296068   -3.2725778    70.401876  0.074263582  0.086919196            2 
   80000    1.1997941   -3.2679289    72.059441  0.075061917  0.086898262            1 
   81000     1.185779   -3.2455591    72.713621  0.074808252  0.086895206            2 
   82000    1.2203652   -3.2630029    73.213685  0.074404151  0.086859139            3 
   83000    1.2221663   -3.2549949     74.52865  0.074827962  0.086819135            4 
   84000    1.2282383    -3.256577    75.529163  0.074929725  0.086789694            1 
   85000    1.2213422   -3.2645369    76.576824  0.075075318  0.086743176            1 
   86000    1.1960096   -3.2543028    77.630141  0.075223004  0.086692206            2 
   87000    1.2124964   -3.2362122    78.308817  0.075008445  0.086639897            3 
   88000    1.2053828   -3.2506847    79.093965  0.074899587  0.086579048            1 
   89000    1.2193422   -3.2852625    79.914261  0.074826087  0.086519806            3 
   90000    1.2319522   -3.2523817    81.446835  0.075413736  0.086465747            1 
   91000    1.2200989   -3.2741958    82.534499  0.075581043  0.086436171            1 
   92000    1.2080115   -3.2259735    83.669022  0.075787158  0.086388025            4 
   93000    1.2263205     -3.27276    84.468963  0.075689035   0.08633996            2 
   94000    1.2412212     -3.24958    85.063835  0.075411201  0.086289215            2 
   95000    1.2151341   -3.2478369    85.540304  0.075035354  0.086224568            3 
   96000    1.2192994   -3.2634623    87.137285  0.075640004  0.086146362            2 
   97000    1.2042577   -3.2428531    87.364947  0.075055796  0.086062872            2 
   98000     1.243352   -3.2439998    88.747103  0.075465223  0.085967665            1 
   99000    1.2089402   -3.2922667    89.251785  0.075127765  0.085878655            1 
  100000      1.22295   -3.2580631    90.267295  0.075222745  0.085795694            1 
  101000    1.2046922   -3.2546775     91.41276  0.075423069  0.085713019            3 
  102000    1.1994863   -3.2465774    92.482736  0.075557791  0.085634733            1 
  103000    1.1867187   -3.2993155    93.339945  0.075517754  0.085545626            2 
  104000    1.2237886    -3.255264    94.891639  0.076034967  0.085451183            2 
  105000     1.238424   -3.2853923    95.435039  0.075742094  0.085378117            1 
  106000    1.1952675   -3.2629883    96.327378  0.075729071  0.085312907            2 
  107000    1.1979919   -3.2684042    97.455796  0.075900152  0.085251082            3 
  108000    1.2057509   -3.2522747    98.503647    0.0760059  0.085195535            2 
  109000    1.2167496    -3.278765    99.728385  0.076244942  0.085133581            1 
  110000    1.1836499   -3.2789247    100.76659  0.076338329  0.085074686            2 
  111000    1.1910392   -3.2531535    101.47949  0.076185802  0.085016142            1 
  112000    1.2537093   -3.2780165    102.15368  0.076007203  0.084957419            2 
  113000    1.2164078   -3.2297301    103.44377  0.076285964  0.084905447            1 
  114000    1.1889141   -3.2775521    104.56154  0.076433875  0.084859247            1 
  115000    1.2161972   -3.2633039     105.9011  0.076739924  0.084832414            1 
  116000    1.1761246   -3.3227937    106.67357  0.076633314  0.084796617            2 
  117000    1.1787001   -3.3053124    107.94168  0.076881538  0.084765114            3 
  118000    1.1930638   -3.2587358    108.71013   0.07677269  0.084735877            1 
  119000    1.1843078   -3.2802443    109.87419  0.076942712  0.084710201            2 
  120000    1.1887529   -3.3028457    111.10458  0.077155958  0.084686798            2 
  121000    1.2137229   -3.2985887    111.72439  0.076945169  0.084661752            3 
  122000    1.1711604   -3.2953002    112.77088   0.07702929  0.084638184            2 
  123000    1.1750638   -3.2792399    114.47091  0.077554817  0.084616847            2 
  124000    1.1978463   -3.3068549    114.65131  0.077050609  0.084594715            2 
  125000    1.1960815   -3.2825568    116.40382  0.077602547  0.084573005            3 
  126000    1.1656521   -3.2699798    117.18515  0.077503409  0.084548399            3 
  127000    1.1977628   -3.2684138    117.67951  0.077217527  0.084526202            3 
  128000    1.1822486   -3.2688091    119.14685  0.077569564  0.084504525            1 
  129000    1.1971976   -3.2599224     120.5496  0.077874416  0.084480269            2 
  130000    1.1981111   -3.2612368    121.54847  0.077915686  0.084467914            2 
  131000    1.2037715   -3.2861933     122.1684   0.07771527  0.084469582            2 
  132000    1.1936014   -3.2591765    123.28871  0.077833784  0.084452986            2 
  133000    1.2265032   -3.2615468    124.31284  0.077890249  0.084440752            2 
  134000     1.220972   -3.2980945    124.97864  0.077723035  0.084426009            4 
  135000    1.2090659   -3.3042283    126.14717  0.077868621   0.08440851            3 
  136000    1.1853187   -3.2581789     127.4379  0.078086951  0.084396662            1 
  137000    1.2073095   -3.2777529    128.52364  0.078177394   0.08438448            1 
  138000    1.1763233   -3.2752981    128.83499  0.077798905  0.084361919            2 
  139000    1.2004575    -3.249206    130.20206  0.078058791  0.084340313            2 
  140000    1.2411536   -3.2997753    130.37906  0.077606583  0.084325801            2 
  141000    1.1804628   -3.2829927    132.66736  0.078408604  0.084318879            2 
  142000    1.2266013   -3.2740689    132.98705  0.078044044  0.084315188            3 
  143000    1.1697436   -3.2686451    133.97745  0.078075434  0.084304126            2 
  144000     1.214867   -3.2899476    135.03871  0.078147402  0.084298297            2 
  145000    1.1938443   -3.2902906     136.6893  0.078557069  0.084292849            2 
  146000    1.2217924   -3.2981823    137.18837  0.078303862  0.084287618            1 
  147000    1.2160124   -3.2943656    137.80788  0.078122379  0.084277124            2 
  148000    1.1720137   -3.3034713    138.39691  0.077926188  0.084259458            3 
  149000    1.2022492   -3.2832082    140.20265  0.078413117  0.084251134            1 
  150000    1.1890175   -3.2652707    140.34812  0.077971175  0.084237351            4 
  151000    1.1994273   -3.3183073    141.48963  0.078084782  0.084218838            2 
  152000    1.1654371   -3.3001293    142.53688  0.078145221    0.0841965            2 
  153000    1.2243126   -3.2848483    143.50778  0.078163279   0.08417367            1 
  154000     1.213221    -3.279517    144.71195  0.078307332  0.084155344            1 
  155000    1.1790853    -3.290751    145.55353  0.078254585  0.084130432            1 
  156000    1.2059084   -3.2733758    146.59933  0.078311607  0.084106725            2 
  157000    1.1764559   -3.2831752    146.62641   0.07782718  0.084070602            1 
  158000     1.181534   -3.2614867    147.96631    0.0780413  0.084034121            2 
  159000    1.1905823   -3.3082814    148.77366  0.077973614  0.083991377            1 
  160000    1.1762512   -3.3166038    149.28552  0.077752874   0.08395457            5 
  161000    1.2133644   -3.2854128    150.56041  0.077929819  0.083921994            2 
  162000    1.1897886   -3.2804736    151.80982  0.078091469  0.083893428            1 
  163000    1.1865664   -3.2942658     153.1565  0.078300868  0.083863714            1 
  164000    1.1989359   -3.3126559    153.36371  0.077928715  0.083835777            2 
  165000    1.1813131   -3.2966582    154.44529  0.078002672  0.083807194            1 
  166000     1.184277   -3.3277471    154.68344  0.077652331  0.083770657            2 
  167000    1.1927734   -3.3020512    156.21221  0.077950204  0.083733706            3 
  168000    1.1553026   -3.2868502    157.07096  0.077912182  0.083690926            1 
  169000     1.183039   -3.3148971    157.95813  0.077888625  0.083648121            2 
  170000     1.196597   -3.2939966    159.45332   0.07816339   0.08362067            3 
  171000     1.171556   -3.3277262    159.89934  0.077923652  0.083590777            4 
  172000    1.1515085   -3.2982966    162.16767  0.078569609  0.083571361            2 
  173000    1.1937376   -3.3233905    162.61693  0.078331855  0.083556934            3 
  174000    1.1981652   -3.3211965    162.42368  0.077789117  0.083535944            4 
  175000    1.1761977   -3.3077868    164.67925  0.078418691  0.083514645            4 
  176000    1.2030756   -3.2891715    165.37161  0.078300952  0.083489492            1 
  177000    1.1987921   -3.2935289    166.52569  0.078401924  0.083468762            2 
  178000    1.2055064   -3.3123635    167.72001  0.078520605  0.083453704            4 
  179000    1.1529312    -3.329767     168.6721  0.078525187  0.083436705            2 
  180000     1.190154   -3.3132549    169.22377  0.078344339  0.083414852            4 
  181000    1.1923494   -3.2987372    170.00922  0.078273124  0.083387543            6 
  182000    1.1899573   -3.3014624    170.04686  0.077860285  0.083356768            1 
  183000    1.1761037   -3.3062855    172.47675  0.078541325  0.083327889            5 
  184000    1.1801596   -3.2972445    172.79212    0.0782573  0.083301933            2 
  185000    1.1820136   -3.3434775    173.47084   0.07814002  0.083278375            2 
  186000    1.1599727   -3.3301811    174.44033  0.078154267  0.083252379            5 
  187000    1.1903969    -3.337539    175.10446   0.07803229  0.083225219            1 
  188000    1.1755606   -3.3105283    177.03604  0.078473422   0.08319834            2 
  189000    1.1773649   -3.2770888    177.65408  0.078330723  0.083168577            2 
  190000    1.1894274    -3.308019    178.70745  0.078380459  0.083143557            2 
  191000    1.1827248   -3.3090949    180.03748  0.078550382  0.083125726            1 
  192000    1.2011038   -3.3265484    182.08813  0.079031304  0.083114286            1 
  193000    1.1674355   -3.2782938    182.64945  0.078864184  0.083102366            3 
  194000    1.1557299   -3.3239828    182.62883  0.078448809  0.083084766            1 
  195000    1.1446404   -3.2996824    183.76233  0.078530912  0.083066199            2 
  196000    1.2024672   -3.3329097    183.83284  0.078160223  0.083042914            2 
  197000     1.139859   -3.3087542    184.96841   0.07824383  0.083014172            4 
  198000    1.1700377   -3.3238375    185.48835  0.078067486  0.082983443            2 
  199000    1.1960714   -3.2980927    186.86171  0.078250299  0.082950658            3 
  200000    1.1660819   -3.3014835    187.72182  0.078217425  0.082911146            1 
  201000    1.1679495   -3.3123057    188.68443  0.078227374  0.082874773            2 
  202000    1.1710852    -3.301137    189.02251  0.077979585  0.082840071            2 
  203000    1.1655526    -3.321471    190.50151  0.078202591  0.082806849            3 
  204000    1.1739646   -3.3037844      190.673  0.077889296  0.082775246            4 
  205000    1.1760671   -3.3479718     192.4485  0.078231096  0.082746972            2 
  206000    1.1586343   -3.3122294     194.4116  0.078645468  0.082718101            2 
  207000    1.1977521   -3.2994289    194.85597  0.078444433  0.082692514            1 
  208000    1.1841812   -3.3174418    195.80479  0.078447432  0.082661517            1 
  209000    1.1561637   -3.2959766    197.38544  0.078702329  0.082634932            2 
  210000    1.1533756   -3.3229231    197.72669  0.078462972  0.082610399            3 
  211000    1.1875107   -3.2830078    198.68803  0.078470785  0.082589789            4 
  212000    1.1566503   -3.3223089    200.17553  0.078685349  0.082565707            1 
  213000    1.1782465   -3.3082666    201.37746  0.078786172  0.082547346            1 
  214000    1.1522885   -3.2924466    202.08536  0.078693674  0.082530621            1 
  215000    1.1848752   -3.3209306    202.71932   0.07857338  0.082516451            2 
  216000    1.1805087   -3.3343327    203.95869  0.078687767  0.082500782            1 
  217000    1.1532673   -3.3154532    206.03322  0.079121819  0.082492097            2 
  218000    1.1572126   -3.3196913    206.04273  0.078762511  0.082483185            1 
  219000    1.1692327    -3.342745    207.04379  0.078783787  0.082473189            2 
  220000    1.1916824   -3.3143465    206.82715  0.078343618   0.08246048            2 
  221000    1.1819558   -3.3014523    208.16757  0.078494559  0.082446202            4 
  222000    1.1638032   -3.3310397    209.35585   0.07858703  0.082429227            3 
  223000    1.1678271   -3.3262815    210.16424  0.078536712  0.082414614            3 
  224000    1.1657241   -3.3017842    211.58383  0.078714221  0.082404187            1 
  225000    1.1843758   -3.3340215    212.14246   0.07857128  0.082390701            1 
  226000    1.1418437   -3.3593549     212.7911  0.078462794   0.08237221            2 
  227000    1.1783996   -3.3204871    214.07992  0.078590279  0.082353571            3 
  228000    1.1845548    -3.335726    213.99612  0.078214956  0.082335124            2 
  229000    1.1751879   -3.3604332    214.93287  0.078214291  0.082311942            2 
  230000    1.1622885   -3.3441099    216.47836  0.078434187  0.082286226            1 
  231000    1.1466717   -3.3363841    217.12466    0.0783278  0.082266126            1 
  232000    1.1735921   -3.3501179    218.54004  0.078498577  0.082245075            3 
  233000    1.1336622   -3.3481317    220.01016  0.078687466  0.082223237            2 
  234000    1.1633322   -3.3090181    220.80508  0.078634288  0.082198323            1 
  235000    1.1815485   -3.3056139    220.54479  0.078207371  0.082175477            1 
  236000    1.1904161    -3.318665    221.17125  0.078097194    0.0821462            2 
  237000    1.1476901   -3.3170491    223.19962  0.078480879  0.082119932            2 
  238000     1.170137   -3.3183618    223.12001  0.078123252  0.082095611            1 
  239000    1.1404154   -3.3186898    224.88289  0.078411048  0.082067595            2 
  240000    1.1704447   -3.3590147    225.02858  0.078134925  0.082038828            1 
  241000    1.1789977   -3.3408694    225.16251  0.077857024  0.082006938            2 
  242000    1.1486981    -3.333259    225.25404  0.077566819  0.081970705            4 
  243000    1.1462934   -3.3864396    226.07755  0.077530023  0.081933885            3 
  244000    1.1707594   -3.3323625    228.52522   0.07804823   0.08189916            1 
  245000    1.1544075   -3.3534575    229.08923  0.077921506  0.081866681            2 
  246000    1.1555195   -3.3386244    230.26868  0.078004297  0.081838705            1 
  247000    1.1573764   -3.3293302    231.80778  0.078207754  0.081812057            1 
  248000    1.1495975   -3.3432594    231.79798  0.077889108  0.081783454            2 
  249000    1.1729306    -3.348328     233.6557  0.078198025  0.081757333            1 
  250000    1.1590348   -3.3499436    234.59118  0.078197061  0.081731894            1 
  251000    1.1510253   -3.3660359    234.81751  0.077960659  0.081705394            3 
  252000    1.1442067    -3.354228    236.49236  0.078205145  0.081678965            1 
  253000      1.15784   -3.3244556    236.98209  0.078057343  0.081655631            3 
  254000    1.1309495   -3.3481306     238.1978  0.078148883  0.081633615            3 
  255000    1.1710405    -3.312156    239.95065  0.078415246  0.081611687            2 
  256000    1.1682477   -3.3510008    240.31765    0.0782284   0.08159024            2 
  257000    1.1409563   -3.3683152    241.05642   0.07816356  0.081568673            4 
  258000    1.1431495   -3.3516204    242.87703  0.078448654  0.081549074            4 
  259000    1.1490772   -3.3044675    244.75543  0.078750139  0.081529594            1 
  260000    1.1605078     -3.34455    245.11284  0.078561806  0.081511584            2 
  261000    1.1843766   -3.3764685    245.43004  0.078362081  0.081493091            2 
  262000    1.1514896   -3.3350321    245.82767  0.078189461  0.081471958            4 
  263000    1.1497114   -3.3708091    247.34389  0.078372588  0.081454187            2 
  264000    1.1348067   -3.3276307    247.39856  0.078092978  0.081431077            2 
  265000    1.1630134   -3.3452225    248.69866  0.078207127  0.081410208            1 
  266000    1.1381156   -3.3565788    249.13681   0.07805038  0.081389734            2 
  267000    1.1518711   -3.3528623    251.55637  0.078513223  0.081376536            3 
  268000    1.1473955   -3.3524135    252.50092  0.078513966  0.081361551            2 
  269000    1.1332994   -3.3337801    253.71497  0.078598193  0.081349013            2 
  270000     1.173418   -3.3373613    255.07491  0.078726825  0.081339114            1 
  271000    1.1537228   -3.3532462    254.79593  0.078350533   0.08132864            1 
  272000    1.1384295   -3.3445284    256.11556  0.078466777  0.081315733            1 
  273000    1.1518567   -3.3640997    257.24687  0.078524687  0.081306184            4 
  274000     1.146078   -3.3641418    257.41568   0.07828944  0.081292941            2 
  275000    1.1666122   -3.3566947    258.56499  0.078353028  0.081278333            2 
  276000    1.1399937    -3.377224    259.41227  0.078324961  0.081262079            5 
  277000    1.1509085   -3.3714331    260.12607  0.078256942  0.081239349            1 
  278000    1.1434406   -3.3636954    259.09871  0.077667479  0.081216887            2 
  279000    1.1583544   -3.3276181    261.06249  0.077975655  0.081192131            2 
  280000    1.1278363   -3.3354141    262.83593  0.078224979   0.08116772            1 
  281000     1.131815   -3.3463707    262.07538   0.07772105  0.081143294            1 
  282000    1.1448073   -3.3772282    262.29472  0.077510259  0.081113976            1 
  283000    1.1353943   -3.3503904    263.26804  0.077522979  0.081082413            1 
  284000    1.1290216   -3.3618172    263.92745  0.077443501   0.08104903            2 
  285000    1.1536613   -3.3397845    265.45825  0.077619372  0.081015744            2 
  286000    1.1160416   -3.3665162    265.54876  0.077374347  0.080979245            2 
  287000     1.160595   -3.3430376    266.80744   0.07747022  0.080942935            1 
  288000    1.1453369   -3.3734931    267.44897  0.077386855  0.080908241            1 
  289000    1.1308508   -3.3516909    267.40348  0.077105963  0.080870559            2 
  290000    1.1428393   -3.3717414    268.62783  0.077191906  0.080834073            6 
  291000     1.135491   -3.3516495    270.59281  0.077489349   0.08080027            2 
  292000    1.1516059   -3.3560985    270.02984   0.07706331  0.080764576            5 
  293000    1.1329132   -3.3622332    271.49056  0.077215746  0.080727691            2 
  294000    1.1498506   -3.3460734    272.96341  0.077370581  0.080693367            1 
  295000    1.1384662   -3.3737173     273.2662  0.077193842  0.080657438            2 
  296000    1.1076657   -3.3845838    273.82385  0.077090048  0.080619889            1 
  297000    1.1319319    -3.385886    273.59472  0.076766195  0.080584089            3 
  298000    1.1263968   -3.3700843    277.00244  0.077461534  0.080551153            2 
  299000    1.1284201   -3.3624891    278.03018  0.077488901  0.080519166            3 
  300000    1.1096731   -3.3389907    277.90401  0.077195557  0.080484045            2 
  301000    1.1329333   -3.3823531    277.69591   0.07688148  0.080449933            5 
  302000    1.1500901   -3.3472596    280.08281  0.077285543  0.080415684            2 
  303000    1.1173425   -3.3795242    279.30563  0.076816731  0.080380173            2 
  304000    1.1415774   -3.3259287    279.95091  0.076740929  0.080340166            2 
  305000    1.1028789   -3.3530525    280.90659  0.076750434  0.080302344            3 
  306000    1.1249757   -3.3734631    282.01059  0.076800269  0.080263514            1 
  307000    1.1375328   -3.3881721    281.76411    0.0764832  0.080221955            1 
  308000     1.120912   -3.3897592    283.69998  0.076758653  0.080181533            4 
  309000    1.1515913   -3.4061771    284.81248   0.07681027  0.080147775            1 
  310000    1.1521947   -3.3684117     287.3204  0.077236668  0.080114303            1 
  311000    1.1184252   -3.3740193    287.90271  0.077144347  0.080083021            5 
  312000    1.1260206   -3.3948886    288.22442  0.076983017  0.080052574            2 
  313000    1.1450967   -3.3879116    289.52275  0.077082734   0.08002455            1 
  314000    1.1361884   -3.4017747    289.52625  0.076838177  0.079993923            2 
  315000    1.1385592   -3.3399213    289.96526  0.076710386  0.079962205            2 
  316000    1.1185515   -3.3424101    291.51411  0.076876085  0.079931101            1 
  317000     1.125951    -3.403906    291.71323  0.076685917  0.079898746            4 
  318000    1.1294139   -3.3567487    293.02514  0.076788559  0.079865199            2 
  319000    1.1499472   -3.3653507    293.48354  0.076667593  0.079832041            2 
  320000    1.1186642   -3.3670706    294.96828  0.076814656  0.079797874            2 
  321000    1.1195763   -3.4086586    294.31077  0.076404666  0.079764308            2 
  322000     1.123537   -3.3806994    297.77371  0.077063589  0.079730127            4 
  323000    1.1130494   -3.4155934    295.79078   0.07631341  0.079695867            1 
  324000    1.1389307   -3.4057741    298.18515  0.076693713  0.079666012            2 
  325000    1.1528096   -3.3595709    299.45691  0.076783823  0.079637248            3 
  326000    1.1143929   -3.3912354    300.31444  0.076767494  0.079608843            3 
  327000    1.1345958   -3.3954195    300.80009  0.076656495  0.079579364            2 
  328000    1.1433016   -3.3500907    301.48345  0.076596404  0.079550486            2 
  329000    1.1004153   -3.3930185     302.3601  0.076585638  0.079518453            2 
  330000    1.1393715   -3.3785496    303.08429  0.076536437  0.079485917            2 
  331000     1.115574   -3.3965894    304.08999  0.076558407  0.079455491            2 
  332000    1.1190873   -3.3660956    305.21316  0.076609728  0.079421458            5 
  333000    1.1314991   -3.3937943    305.30204  0.076401911  0.079387176            2 
  334000    1.1328333   -3.3741071    306.68544  0.076518323  0.079354297            2 
  335000     1.115791   -3.3690564    307.74352  0.076553114  0.079322915            2 
  336000    1.1091552   -3.4097878    309.18609  0.076683057  0.079293964            3 
  337000    1.1265093   -3.3667686     311.6183  0.077056949  0.079263355            1 
  338000    1.1098125   -3.3827769    311.49827  0.076799376  0.079233017            2 
  339000    1.1058787   -3.3685626    311.92674  0.076678157  0.079202473            2 
  340000    1.1132739   -3.3993146    311.55604  0.076361775  0.079170488            2 
  341000    1.1582492   -3.3918109     312.0196  0.076251124   0.07913846            3 
  342000    1.1304413   -3.4117152    312.13139  0.076055408  0.079104387            1 
  343000    1.1115591   -3.3808169    312.15389  0.075839137  0.079068652            3 
  344000     1.093023   -3.4073731     313.7141  0.075996632  0.079034177            4 
  345000    1.1066568   -3.3850588    315.35363  0.076172373  0.079000091            1 
  346000    1.1079155   -3.4109106    315.06997  0.075883903  0.078968539            1 
  347000    1.1141819   -3.4087378     317.7185  0.076301272  0.078937483            2 
  348000    1.1136833    -3.364202    318.64076  0.076302865  0.078907204            2 
  349000    1.1162277   -3.3981744    318.53093  0.076058006  0.078877641            1 
  350000    1.1226214   -3.4268886    318.14387  0.075748541  0.078843806            1 
  351000    1.1044651    -3.405699    319.32612  0.075813418   0.07880979            4 
  352000    1.1329144   -3.3888014    321.11672  0.076021951  0.078776935            1 
  353000    1.0990945    -3.389748    322.88149  0.076223202  0.078743961            6 
  354000    1.0932153   -3.3842755    322.36119  0.075885402  0.078709935            2 
  355000    1.1237668   -3.3899866    324.71579  0.076224364  0.078677696            3 
  356000    1.1286986   -3.4251823    325.11274  0.076103169  0.078647116            3 
  357000    1.1288139   -3.4134418    326.55382  0.076226381  0.078616843            3 
  358000    1.0934751   -3.3950293    327.63265  0.076264583  0.078588148            2 
  359000    1.0859069   -3.3972244    328.05675  0.076150592  0.078561856            9 
  360000    1.1029664   -3.4142345    328.62543  0.076070702  0.078534637            2 
  361000    1.0983752   -3.4470272    329.84981  0.076142616  0.078504859            2 
  362000    1.0955173   -3.4077554    329.82036  0.075925497  0.078476167            1 
  363000    1.0986185   -3.4042263    330.30431  0.075827435  0.078446928            5 
  364000    1.1001858   -3.4268921    331.35655  0.075860016  0.078416766            3 
  365000      1.15375   -3.3978893    334.35099  0.076335842   0.07838692            3 
  366000     1.101745   -3.4054883    332.76997  0.075767298  0.078357852            3 
  367000    1.0968344   -3.3997763    333.00387  0.075613959  0.078325054            2 
  368000    1.0963458   -3.4169346    335.15331  0.075895224  0.078293351            1 
  369000    1.1176644    -3.379485    335.64406  0.075800376  0.078261437            4 
  370000    1.1233859   -3.4023958     335.0075   0.07545214  0.078228379            2 
  371000    1.0872488   -3.4247676    335.87708  0.075444089  0.078196532            1 
  372000    1.1229164   -3.4044508    336.86699  0.075463036  0.078165155            1 
  373000    1.0934268   -3.4155663    338.54281  0.075635123  0.078134373            2 
  374000    1.1296235    -3.428102    339.44892  0.075634786  0.078104413            2 
  375000    1.0834629   -3.4033842    340.54501  0.075676669  0.078075596            2 
  376000    1.1132256   -3.4312945    340.79908  0.075531712  0.078047025            1 
  377000    1.1004336   -3.3878576    341.95851  0.075587646  0.078017969            2 
  378000    1.1285628    -3.408399    343.57376  0.075743775  0.077988207            2 
  379000    1.1100208   -3.4158594    345.20035  0.075901573  0.077958423            2 
  380000    1.1354702    -3.431721    344.22606  0.075488171  0.077929128            2 
  381000     1.093887   -3.4069879    345.34438  0.075534642  0.077900839            3 
  382000    1.1062911   -3.4378864    346.70524  0.075633779   0.07787124            1 
  383000    1.0966293   -3.3848746    348.53403  0.075834211  0.077841323            3 
  384000    1.0860744   -3.3997304    346.70086  0.075238902  0.077811471            3 
  385000    1.1004869   -3.4249091    347.01962  0.075112472  0.077777557            3 
  386000    1.0894727   -3.3713996    349.98829  0.075558784  0.077742793            3 
  387000    1.0863266   -3.3939216    350.74257  0.075525961  0.077710578            1 
  388000    1.1045696   -3.4104062    350.14602  0.075203184  0.077676857            4 
  389000    1.0950563   -3.4301129    350.77012  0.075143556  0.077644516            3 
  390000     1.094527   -3.4116591    352.52423   0.07532569   0.07761283            2 
  391000     1.092024   -3.4236361    353.56905  0.075355722  0.077580966            2 
  392000    1.0899208   -3.4332581    353.57228  0.075164176  0.077546897            2 
  393000    1.1162902   -3.4007608    355.29817  0.075338882  0.077514759            2 
  394000    1.0625795   -3.4196648    354.15978   0.07490689  0.077483673            4 
  395000    1.1000459   -3.4209541    355.95424   0.07509583  0.077451677            3 
  396000    1.0992546   -3.4260953    356.41184  0.075002491  0.077422464            3 
  397000    1.0931041   -3.4318436    357.60855  0.075064768  0.077391233            3 
  398000    1.0959816   -3.4072037    358.67266  0.075098965  0.077360042            2 
  399000    1.0918438   -3.4260829    358.24498  0.074821423  0.077328727            1 
  400000    1.1082308   -3.3795755    360.00484  0.075001008  0.077300503            2 
  401000    1.0758316   -3.4285798    361.10501  0.075042604  0.077272747            1 
  402000    1.1086309   -3.4180744    362.73422   0.07519366  0.077244065            2 
  403000    1.1095233   -3.4058398    361.99574  0.074854371  0.077213917            2 
  404000    1.0948097   -3.4353458     364.4405   0.07517337   0.07718576            4 
  405000     1.083573   -3.4260588    364.65768  0.075032445  0.077159364            5 
  406000    1.1108862   -3.4226582    366.44213  0.075213901  0.077132682            2 
  407000    1.1039852    -3.448117    367.19795  0.075183855  0.077109065            1 
  408000    1.0748586   -3.3975793    368.52678  0.075270992  0.077084108            5 
  409000    1.0746072   -3.4061979    368.60868  0.075103643  0.077061148            3 
  410000    1.1003617   -3.4186883    370.83571  0.075373111  0.077037744            2 
  411000    1.0999803   -3.4162737    372.10753  0.075447594  0.077015106            1 
  412000    1.0656395   -3.4286123    371.98891  0.075240476  0.076991927            3 
  413000    1.0954515   -3.4759589    372.11245  0.075083221  0.076967557            2 
  414000    1.0933729    -3.409589    374.69026  0.075420745  0.076945087            2 
  415000    1.0971674   -3.4625316    373.83975  0.075068224  0.076923725            3 
  416000    1.1004327   -3.4188836     376.9241  0.075505628  0.076901483            2 
  417000    1.0604139   -3.4273571    377.01734  0.075343194  0.076881291            4 
  418000    1.1003005   -3.4099513    378.53458  0.075465428  0.076862692            1 
  419000    1.0915597   -3.4453125    377.58951  0.075097357  0.076845082            5 
  420000     1.104417   -3.4154959    379.99379  0.075395592  0.076825248            3 
  421000    1.0963144   -3.4416954    380.11519  0.075240536  0.076805441            1 
  422000    1.0732277   -3.4456343    381.33606   0.07530333  0.076788635            3 
  423000    1.0712675    -3.413993    384.09377  0.075668591  0.076770602            1 
  424000    1.0966562   -3.4507508     382.7475   0.07522553  0.076751676            2 
  425000    1.0802412   -3.4425396    383.12895  0.075123323   0.07673105            2 
  426000    1.0871218   -3.4265744     383.8202  0.075082199  0.076708545            2 
  427000    1.0773214   -3.4177762    386.99147  0.075525267  0.076685524            4 
  428000       1.0881   -3.4388199    384.16127  0.074797756   0.07666273            3 
  429000    1.0495931   -3.4625088    384.75648   0.07473902  0.076639641            1 
  430000    1.0921464   -3.4859594     387.4537  0.075087927   0.07661626            4 
  431000    1.0744537   -3.4472319    389.27495  0.075265846  0.076593762            1 
  432000    1.0883638   -3.4513769    387.49822  0.074748886  0.076572728            4 
  433000    1.0772853   -3.4572251    387.59659  0.074595186  0.076549082            4 
  434000    1.0889515    -3.453798    390.29115  0.074940696  0.076524766            2 
  435000    1.1122012   -3.4448736    392.74064   0.07523767  0.076502106            2 
  436000    1.0985564   -3.4733562    392.35629  0.074991645  0.076479595            3 
  437000    1.0923175   -3.4485441    392.63264  0.074872738  0.076457983            2 
  438000    1.0841383   -3.4530965    393.56039  0.074878309  0.076438155            4 
  439000    1.0728871   -3.4589205     395.8081  0.075134415  0.076419585            1 
  440000    1.0559677   -3.4109052     396.3488  0.075066061   0.07639951            1 
  441000    1.0807829   -3.4483331    398.57241  0.075316026  0.076379518            4 
  442000    1.0849552   -3.4621135    397.25939  0.074898075  0.076359861            2 
  443000     1.083816   -3.3972532    399.39257   0.07513028  0.076340927            2 
  444000    1.0558371   -3.4543267    398.09257  0.074717075  0.076321698            1 
  445000    1.0862821   -3.4495655    399.19151  0.074754964  0.076301578            2 
  446000    1.0965297   -3.4328807    401.49012  0.075016839  0.076282607            2 
  447000    1.0754038   -3.4550832     400.6342  0.074689448  0.076262472            3 
  448000    1.0633349    -3.449419    402.55287  0.074879625  0.076242422            3 
  449000    1.0754596   -3.4456962    402.80474  0.074759603  0.076219833            7 
  450000    1.0816004   -3.4374939    403.69455  0.074758251  0.076196983            1 
  451000    1.0767238   -3.4570891    404.28157  0.074700955  0.076172921            5 
  452000    1.0768345   -3.4606875     405.5693  0.074773101  0.076150383            2 
  453000    1.0693986   -3.4652869     404.8302  0.074472075  0.076128711            3 
  454000     1.074668   -3.4674105    403.68501  0.074097837  0.076105896            2 
  455000    1.0799357   -3.4697803    407.00771  0.074543536  0.076082591            3 
  456000     1.085055   -3.4380468    406.52016  0.074290964  0.076059209            3 
  457000    1.0685867   -3.4116922    410.25195  0.074808889  0.076036418            1 
  458000    1.0639425   -3.4413858    410.49969  0.074690627  0.076014325            2 
  459000    1.0753088   -3.4412447    409.55071  0.074355612  0.075992357            2 
  460000     1.065787   -3.4494462    410.30715  0.074331005  0.075969315            3 
  461000    1.0895101    -3.451903    410.98317  0.074291968  0.075943895            2 
  462000    1.0934186   -3.4405419     412.4698  0.074399314  0.075918313            2 
  463000    1.0499646   -3.4641574    413.66417  0.074453595  0.075894729            2 
  464000    1.0555143     -3.42852    413.30956  0.074229447  0.075871859            2 
  465000    1.0646519   -3.4433251    417.44956  0.074811749  0.075849714            3 
  466000     1.065155   -3.4715883    414.74569  0.074167683   0.07582758            2 
  467000    1.0668703   -3.4687973     417.7671  0.074548019  0.075806337            3 
  468000    1.0717824   -3.4509894    417.92454  0.074416763  0.075784101            2 
  469000    1.0545009   -3.4380414    417.92916  0.074258913  0.075760115            5 
  470000    1.0793093   -3.4910569     417.6846  0.074057553  0.075734853            2 
  471000    1.0552208   -3.4673287    418.52616  0.074049215  0.075711356            3 
  472000    1.0467267   -3.4621293    419.71586  0.074102377  0.075688244            3 
  473000    1.0540182   -3.4735312    420.59159  0.074099998  0.075664869            3 
  474000    1.0838987   -3.4715383     421.6486  0.074129501  0.075641132            3 
  475000    1.0913426   -3.4478585    423.88618  0.074365996  0.075619527            3 
  476000    1.0535701   -3.4344169    425.00313  0.074405309   0.07559771            2 
  477000    1.0462858   -3.4673083    424.67631  0.074192227  0.075576132            2 
  478000    1.0692705   -3.4318193    427.23328  0.074482788  0.075553913            3 
  479000    1.0558495   -3.4467179     428.3356  0.074519067  0.075534157            3 
  480000    1.0678766   -3.4910362    425.63154  0.073894364  0.075514527            4 
  481000    1.0647843   -3.4757711      427.841  0.074123528   0.07549254            2 
  482000    1.0379405    -3.452396    428.88687  0.074150564  0.075471135            4 
  483000    1.0752661   -3.4896609    428.43929  0.073919822  0.075449537            2 
  484000    1.0840888   -3.4942847    427.90011  0.073674261  0.075425387            1 
  485000    1.0620385    -3.459933    431.15306  0.074081281  0.075401313            1 
  486000     1.051823    -3.470232    428.88891  0.073540622  0.075376783            1 
  487000    1.0628695   -3.4686327    428.99153  0.073407175  0.075350727            4 
  488000    1.0705407   -3.4914776    430.18744   0.07346097  0.075323495            6 
  489000     1.035848   -3.4845963    430.43968  0.073353729  0.075296523            3 
  490000    1.0819269   -3.4887079    432.73013  0.073593559  0.075269234            2 
  491000    1.0604422   -3.4865114    431.96811  0.073314344  0.075240836            3 
  492000    1.0676515   -3.4630855    433.66353  0.073452494  0.075212619            2 
  493000     1.050571   -3.4681435    434.40765  0.073429284  0.075184596            3 
  494000    1.0764483   -3.4981193    433.14167  0.073067084  0.075156263            2 
  495000    1.0730077   -3.4738601    435.14994  0.073257565   0.07512717            4 
  496000    1.0385999   -3.4744924    433.69741  0.072865828  0.075096149            2 
  497000    1.0574383   -3.4937184    433.25365  0.072644811  0.075063916            2 
  498000    1.0773428    -3.478094    435.98019  0.072955186  0.075031725            3 
  499000    1.0438401   -3.4846146    436.95176  0.072971236  0.074999178            5 
  500000    1.0471205   -3.4960865    436.99571  0.072832618   0.07496821            1 
  501000    1.0507069   -3.4707845    439.11698  0.073040082  0.074937727            2 
  502000     1.043849   -3.4680081    439.33535  0.072930834   0.07490618            1 
  503000    1.0503644   -3.4796391    441.10521  0.073079061  0.074875446            4 
  504000    1.0727723   -3.4500984    441.29132  0.072964834  0.074841715            3 
  505000     1.030833   -3.4719752    440.01692  0.072610054  0.074809873            2 
  506000    1.0898817   -3.5017552    440.78771  0.072593496  0.074777973            3 
  507000    1.0498518   -3.4456015    442.11326  0.072668189  0.074744028            2 
  508000    1.0445052   -3.4883775     442.7201  0.072624688  0.074711493            3 
  509000    1.0668285   -3.4609322    445.64337  0.072960605  0.074679274            2 
  510000    1.0828897   -3.5156854    443.18415  0.072415711  0.074646966            3 
  511000    1.0553595   -3.4805316    445.71391  0.072686547  0.074613746            3 
  512000    1.0523415   -3.5055453    444.77838  0.072392314  0.074580606            2 
  513000    1.0505103   -3.4756288     447.3639  0.072671199  0.074546047            4 
  514000    1.0726801   -3.4677862    444.70125  0.072098128  0.074511104            3 
  515000    1.0381636   -3.4800898    446.34513   0.07222413  0.074477221            3 
  516000    1.0764956   -3.4777212     448.4979  0.072431831   0.07444292            2 
  517000    1.0685835   -3.4819386    447.22876  0.072087163  0.074407962            1 
  518000    1.0520946   -3.4858242     448.3634  0.072130533  0.074372626            2 
  519000    1.0622908    -3.478675    449.55562  0.072182984  0.074337797            2 
  520000    1.0748656   -3.5107398    448.50893  0.071876431  0.074302225            3 
  521000    1.0596038   -3.5162778    449.44818  0.071888704  0.074266732            3 
  522000    1.0258189   -3.4900782    452.23688  0.072196181  0.074232136            2 
  523000    1.0471105   -3.4758515    453.16447  0.072205938  0.074198873            2 
  524000    1.0412131   -3.4873934    455.12312  0.072379632   0.07416488            2 
  525000    1.0605199   -3.4938573    455.96182  0.072374892  0.074130845            2 
  526000    1.0360266   -3.5029005    455.57362  0.072175796  0.074096431            3 
  527000    1.0383693   -3.5142032    453.43737  0.071701039   0.07406137            2 
  528000    1.0337599    -3.469405    456.39642  0.072032262  0.074027035            2 
  529000    1.0439144   -3.4723165    457.35918   0.07204776  0.073993681            3 
  530000     1.027569   -3.5129789    457.49107  0.071932558  0.073962059            4 
  531000    1.0125868    -3.496738    457.34082  0.071773512  0.073929258            2 
  532000    1.0458067   -3.5077224    456.27014  0.071470886  0.073895853            1 
  533000    1.0337384   -3.4910773     459.6701  0.071868371  0.073861972            2 
  534000    1.0595357   -3.5029733    460.82666  0.071914272  0.073830298            2 
  535000    1.0232013   -3.5184316    461.62649  0.071904438  0.073796933            4 
  536000    1.0322859   -3.4745919    460.45384  0.071587972  0.073762352            4 
  537000    1.0383432   -3.5030088    462.05887  0.071703735  0.073728114            7 
  538000    1.0508398   -3.5108122    461.30114  0.071453088  0.073693622            2 
  539000    1.0449734   -3.4984969    463.99048  0.071736314  0.073661035            2 
  540000    1.0496859   -3.5052664    464.47473  0.071678199  0.073628478            1 
  541000    1.0542211   -3.5106763    463.59768   0.07141061  0.073595331            2 
  542000    1.0284235   -3.4825529    467.44384  0.071870209  0.073562181            2 
  543000    1.0485772   -3.4863306    467.28067   0.07171281  0.073528632            2 
  544000    1.0582007   -3.4961882    466.00557  0.071385656  0.073495511            2 
  545000    1.0217601   -3.5113556    465.93905  0.071244504    0.0734611            3 
  546000     1.040754   -3.5163806    467.00957  0.071277406    0.0734266            3 
  547000    1.0346264     -3.48409     468.6177  0.071392093  0.073391519            4 
  548000    1.0579156   -3.4526199    469.37162  0.071376463  0.073357164            5 
  549000    1.0360735   -3.4814418    468.74259   0.07115097   0.07332213            3 
  550000     1.023368   -3.5017114    471.67539  0.071465968  0.073288029            3 
  551000    1.0432881   -3.5030421    470.85484  0.071212166  0.073252776            3 
  552000    1.0542433   -3.5202799    471.79031  0.071224383  0.073217284            2 
  553000    1.0365983   -3.4809195    471.46942   0.07104723  0.073182309            4 
  554000    1.0278615   -3.4833482    473.68694  0.071252549  0.073146612            2 
  555000    1.0244903    -3.510811    474.74626  0.071283222  0.073111136            3 
  556000    1.0210654    -3.494785    474.10021  0.071058184  0.073076402            4 
  557000    1.0246996   -3.4877027    476.37304  0.071270653  0.073041976            3 
  558000    1.0485641   -3.4962978    473.77209  0.070754494  0.073007882            1 
  559000     1.028248   -3.5112362    476.31009  0.071006275   0.07297411            2 
  560000    1.0287945   -3.5356934    477.92225  0.071119383  0.072940953            1 
  561000     1.043277   -3.5020589    478.40346  0.071064091  0.072906475            2 
  562000    1.0442459   -3.5055489    477.11289  0.070746276  0.072873137            1 
  563000    1.0304613    -3.484897    478.61311  0.070842674   0.07283854            2 
  564000    1.0382591   -3.5135218    480.14169  0.070942921  0.072804649            3 
  565000    1.0528792   -3.4869612    479.96518  0.070791324  0.072770494            2 
  566000    1.0359677    -3.489289    480.50872  0.070746278  0.072734939            3 
  567000    1.0079236   -3.4953601    479.95724  0.070540453  0.072699431            4 
  568000    1.0307865   -3.5161144    480.55678  0.070504223  0.072663473            4 
  569000    1.0216405   -3.5244478    482.72254  0.070697501  0.072628218            2 
  570000    1.0085841   -3.5086465    483.58357  0.070699352   0.07259417            3 
  571000     1.033236   -3.4766431     484.7345  0.070743506   0.07255975            3 
  572000    1.0323448   -3.5345482     484.1494  0.070534587  0.072525585            1 
  573000    1.0214337   -3.4970175    487.97609  0.070968018   0.07249252            2 
  574000    1.0458151   -3.5083451    488.29556  0.070890761  0.072460428            4 
  575000    1.0056379   -3.5437639    488.04333  0.070730918  0.072428108            2 
  576000    1.0291681   -3.5466216    489.10114   0.07076116  0.072395944            3 
  577000     1.012089   -3.5546327    488.14452  0.070500365  0.072363773            1 
  578000    1.0312907   -3.5209176    488.37001  0.070410902  0.072331866            2 
  579000    1.0311804   -3.5260756     491.0076  0.070668912  0.072299627            3 
  580000     1.007973   -3.5283111    492.86561  0.070814025  0.072267989            3 
  581000    1.0143382   -3.5490247    492.95742  0.070705309  0.072236522            5 
  582000    1.0113932   -3.5370308    492.76371  0.070556087  0.072204257            2 
  583000     1.026589   -3.4904758    494.91226  0.070742175  0.072171834            3 
  584000     1.029052   -3.5121156    495.33748  0.070681718  0.072141468            4 
  585000     1.026073    -3.539777    496.41413  0.070714263  0.072110664            2 
  586000    1.0336634   -3.5462122    496.25267   0.07057063  0.072080327            2 
  587000    1.0128931   -3.5341541    495.21122  0.070302558  0.072049575            2 
  588000   0.99479483   -3.5484605    496.53088  0.070370023   0.07201855            2 
  589000    1.0437845   -3.5595093    497.10872  0.070332303  0.071987714            2 
  590000    1.0109899   -3.5079406    498.42057  0.070398385  0.071957632            2 
  591000     1.020539   -3.5104041    500.95875  0.070637161  0.071927386            3 
  592000    1.0173739   -3.5114785    499.68292  0.070338249  0.071896072            5 
  593000    1.0277166    -3.517602    500.64555  0.070354911  0.071864008            2 
  594000    1.0187072   -3.5128039    502.82687  0.070542491  0.071832459            3 
  595000   0.99258934   -3.5239925    499.66926  0.069981689  0.071800769            2 
  596000    1.0469415   -3.5392952    500.46615  0.069975692  0.071768944            4 
  597000    1.0255911   -3.5364746    503.04882  0.070218986  0.071738177            4 
  598000    1.0329725   -3.5537855    503.80995   0.07020763  0.071706642            3 
  599000    1.0164416   -3.5504838    502.98958   0.06997629  0.071675714            2 
  600000    1.0247021   -3.5451101    505.05972  0.070147183  0.071644685            2 
  601000    1.0041883   -3.5340172    505.33778  0.070069021  0.071614943            2 
  602000    1.0076105   -3.5357983    506.47143  0.070109556  0.071584458            3 
  603000    1.0139562   -3.5342125    506.94283  0.070058435  0.071554103            4 
  604000    1.0182793   -3.5556602    507.80474  0.070061361  0.071523838            2 
  605000   0.98928464   -3.5596951    508.56648  0.070050479  0.071492805            4 
  606000    1.0322873   -3.5129475    510.16704  0.070154984  0.071462487            4 
  607000    1.0159441     -3.53035    509.99098  0.070015236  0.071432964            2 
  608000    1.0234485   -3.5395961    510.48499   0.06996779  0.071402612            3 
  609000    1.0179081   -3.5506066    509.31542   0.06969286  0.071371347            2 
  610000    1.0088429   -3.5709392    510.05666  0.069679872  0.071340643            7 
  611000    1.0111732   -3.5406398    511.25971  0.069729912  0.071310672            2 
  612000    1.0072751   -3.5651751    513.17266  0.069876451  0.071279562            4 
  613000     1.034352   -3.5430421    513.51171  0.069808552  0.071249255            3 
  614000    1.0039597   -3.5624216      514.926  0.069886807  0.071218683            1 
  615000    1.0226005   -3.5328311    512.46288  0.069439415  0.071186947            2 
  616000   0.99948351   -3.5527833    515.31283  0.069712234  0.071154177            2 
  617000   0.99018611    -3.544764    515.40911  0.069612251  0.071121231            4 
  618000    1.0137379   -3.5448832    514.27984  0.069347336   0.07108894            3 
  619000    1.0129584   -3.5317483    516.58439  0.069545556  0.071056963            1 
  620000    1.0048856   -3.5213729    519.35437  0.069805694  0.071024571            4 
  621000    0.9838449   -3.5596325    517.34236  0.069423291  0.070991542           18 
  622000    1.0163049   -3.5607408    515.95994  0.069126465  0.070958829            1 
  623000    1.0311607   -3.5391345    518.08128  0.069299261  0.070925476            2 
  624000   0.99338933   -3.5543915      516.217  0.068939236  0.070892989            2 
  625000    1.0106372   -3.5456989    521.48052  0.069530736  0.070861585            1 
  626000    1.0154019   -3.5313148    522.23275  0.069519802  0.070830682            4 
  627000   0.99161654   -3.5458213    522.48207  0.069442061  0.070800477            2 
  628000     1.011603   -3.5332452    524.54293  0.069604954  0.070771796            2 
  629000    0.9913581   -3.5484605    524.03961  0.069427612  0.070742717            3 
  630000      1.00007   -3.5431675    526.35362  0.069623495   0.07071272            6 
  631000   0.98578112   -3.5710359    524.24885  0.069235189   0.07068145            5 
  632000    1.0280925   -3.5432891    525.89971  0.069343316  0.070651993            3 
  633000    1.0148132   -3.5491535    526.97569   0.06937542  0.070622491            2 
  634000    1.0114864   -3.5931885    524.32771  0.068917943  0.070591199            4 
  635000    1.0215392   -3.5697562    528.87784  0.069406541   0.07056098            2 
  636000   0.99746344   -3.5824935    529.56548  0.069387511  0.070531947            6 
  637000     1.009193   -3.5482568    529.80146  0.069309453  0.070503262            4 
  638000     1.003291   -3.5421718    531.23435  0.069387977  0.070473419           10 
  639000    1.0110708   -3.5618405     530.0304  0.069122379  0.070444852            6 
  640000    1.0146883   -3.5537998     529.5651  0.068953789  0.070416293            3 
  641000    1.0106804   -3.5777501    533.30158  0.069331978   0.07038743            2 
  642000    1.0030838   -3.5899314    531.26107  0.068959122  0.070357272            2 
  643000    1.0004952   -3.5623842    533.77965  0.069178285   0.07032801            3 
  644000    1.0085341   -3.5562057    532.69519  0.068930536  0.070298959            2 
  645000    1.0185832   -3.5680275    535.48038  0.069183511  0.070268535            5 
  646000    1.0034448   -3.5761462    534.34243  0.068929622  0.070237769            6 
  647000   0.99316101   -3.5696051    534.94225  0.068900341  0.070206628            5 
  648000   0.99150838    -3.551543    530.39184  0.068208827  0.070176186            3 
  649000    1.0000572   -3.5558502    535.98278   0.06882162  0.070144595            3 
  650000    1.0004086   -3.5693891    536.51386  0.068783828  0.070113034            2 
  651000    0.9967566   -3.5697498    536.69219  0.068700997  0.070081345            6 
  652000   0.99913116   -3.5878439    536.81461  0.068611274  0.070050204            3 
  653000   0.99412593   -3.5667801    537.39412  0.068580158  0.070019401            2 
  654000   0.98916678   -3.5675503    538.93908  0.068672156  0.069987947            4 
  655000   0.99460011    -3.560597     539.3562  0.068620381  0.069956984            4 
  656000    1.0131796   -3.5573434    538.34622  0.068387477  0.069925225            2 
  657000   0.98821049   -3.5759802    537.61516   0.06819066  0.069892811            2 
  658000   0.99749409   -3.5701578    539.32937  0.068304125  0.069860887            2 
  659000   0.99826881   -3.5460638    538.78604   0.06813177  0.069828827            2 
  660000    1.0116401   -3.5768306    540.41484  0.068234198  0.069796444            2 
  661000    1.0252292   -3.5609716    541.81419  0.068307387  0.069763712            3 
  662000    1.0012729   -3.5760473    541.17431  0.068123655  0.069731612            4 
  663000   0.97892439   -3.5670357    541.08109  0.068009186  0.069698129            4 
  664000   0.98299771   -3.5759569    542.57193  0.068093867  0.069665058            3 
  665000   0.98569846   -3.5717355    542.29085  0.067956247  0.069632148            2 
  666000   0.98661383   -3.5521203    543.66632  0.068026316  0.069599373            2 
  667000   0.98260847   -3.5714955    543.61721  0.067918192  0.069565624            4 
  668000   0.96911012   -3.5754371    542.11096  0.067628612  0.069531529            5 
  669000   0.97794695   -3.5945639    543.71721  0.067727605  0.069497931            7 
  670000    1.0018314   -3.5462296    545.97429  0.067907251  0.069463816            3 
  671000   0.98812057   -3.5909784    546.68895  0.067894803   0.06943088            3 
  672000   0.99154362   -3.5812273    549.26258  0.068112919  0.069397307            6 
  673000   0.99569811   -3.5821927    548.85725  0.067961521  0.069364374            4 
  674000   0.98722267   -3.5779914    545.99898  0.067507292  0.069331258            3 
  675000   0.96850309   -3.5707929    546.89568  0.067517985  0.069297722            2 
  676000    1.0021051   -3.5706462    549.55559  0.067746004  0.069264779            4 
  677000   0.98087922   -3.6187612    549.15195  0.067596252   0.06923101            2 
  678000   0.97514897   -3.5826949    551.73669  0.067814244   0.06919737            2 
  679000   0.96844589   -3.6050371    548.26928  0.067288817  0.069163132            4 
  680000   0.96512645   -3.5870733    549.95279  0.067396175  0.069128078            3 
  681000   0.98009185   -3.5750572    550.10602  0.067315959  0.069093783            3 
  682000   0.97049312   -3.5597589    550.63423  0.067281798  0.069059589            5 
  683000   0.99227847   -3.6053613    552.21556  0.067376228  0.069024574            3 
  684000   0.98477811   -3.5760012    552.03245  0.067255415  0.068989779            5 
  685000   0.96604158   -3.5676266    549.95356  0.066904325  0.068954579            2 
  686000    0.9937604   -3.5887772    551.88393  0.067041293  0.068919384            4 
  687000   0.97353447   -3.5848971    554.56995  0.067269523  0.068884963            4 
  688000   0.98074197   -3.5769353    554.70982   0.06718869  0.068850223            3 
  689000   0.97376432   -3.6032323    555.15938  0.067145547  0.068814293            1 
  690000    1.0032683   -3.6031221     554.7635  0.067000423  0.068779462            3 
  691000   0.98181005   -3.5662742    555.85306   0.06703486  0.068743824            2 
  692000   0.96071781   -3.5940097    555.85428  0.066938136  0.068708469            4 
  693000   0.98809456   -3.5600513    555.91094  0.066848358  0.068672947            2 
  694000    0.9810051   -3.5986105    558.75846  0.067093955   0.06863802            4 
  695000    1.0122509    -3.583573    557.50546  0.066847178  0.068602734            5 
  696000   0.98322809   -3.5886573    557.04844  0.066696413  0.068567328            7 
  697000   0.95232724   -3.5965509    558.87845  0.066819518  0.068531914            2 
  698000   0.96339825   -3.5916896    558.38997  0.066665469   0.06849648            2 
  699000   0.98532292   -3.5859713    561.11005  0.066894378  0.068461282            3 
  700000   0.96866807   -3.5954763    559.05048  0.066553628  0.068425442            3 
  701000   0.96482611   -3.5455814     561.0446  0.066695744  0.068390127            2 
  702000   0.96524441   -3.5692445    564.03699  0.066955958   0.06835553            4 
  703000   0.95359282    -3.622675    559.72991  0.066350155  0.068320103            2 
  704000   0.96855072   -3.5717141    563.09022  0.066653672   0.06828557            3 
  705000   0.95531106   -3.5977588    562.56956  0.066497583  0.068250904            2 
  706000   0.98664401   -3.5668251    564.74133  0.066659741  0.068216774            3 
  707000   0.98260055   -3.6001183    565.00149  0.066596121  0.068182741            3 
  708000   0.96289157   -3.5752424    565.49448  0.066560085  0.068148349            4 
  709000   0.94348629   -3.6085667    565.10682  0.066420641   0.06811371            2 
  710000    0.9727024   -3.6108223    566.49492  0.066490014  0.068079785            2 
  711000   0.97200778   -3.6059823    567.74175  0.066542634  0.068045992            4 
  712000   0.96202451   -3.5867488     569.2948  0.066630946  0.068013904            7 
  713000   0.96749966   -3.6108093    568.70312   0.06646834  0.067980957            2 
  714000   0.97614973   -3.6135948    568.79232  0.066385658  0.067948656            5 
  715000   0.98398827   -3.6272522    573.05379  0.066789485  0.067915836            5 
  716000   0.96700178   -3.6201452      571.748  0.066544227  0.067883007            3 
  717000   0.98658168   -3.5693665    570.44593  0.066300085  0.067850052            3 
  718000    0.9686569   -3.5932515     572.2193  0.066413568  0.067816992            3 
  719000   0.96719083     -3.60435    572.96226  0.066407309  0.067784267            7 
  720000   0.94663752   -3.5953837    572.03563  0.066207827  0.067750665            2 
  721000   0.96251001   -3.6107298    574.94956  0.066452793  0.067717707            2 
  722000   0.94403656   -3.5860048    574.89387  0.066354325   0.06768543            3 
  723000   0.98317714   -3.6138765     573.1017  0.066055982  0.067652713            3 
  724000   0.95535719   -3.5954217    576.06736  0.066306096   0.06762037            3 
  725000   0.96414298   -3.6041694    576.43559  0.066256965  0.067588083            4 
  726000   0.96863264   -3.6001275    577.58736  0.066297906   0.06755621            3 
  727000   0.97245272   -3.6200996    576.21367  0.066049251  0.067522758            4 
  728000   0.96171395   -3.6190332    579.88397  0.066378659  0.067490093            2 
  729000   0.95457869   -3.5862817     579.9334  0.066293256   0.06745781            5 
  730000    0.9619538    -3.629355    577.01179  0.065868925  0.067426026            5 
  731000   0.95415522   -3.6185301    581.50884  0.066291477  0.067393489            2 
  732000   0.95399335   -3.6187805    578.98315  0.065913382   0.06736194            8 
  733000   0.96006586   -3.6212823    580.74143  0.066023355  0.067328558            2 
  734000   0.93408762    -3.604098    583.05551   0.06619613  0.067295605            2 
  735000   0.96971556   -3.6139491    583.05884  0.066106444  0.067263337            8 
  736000   0.96342665   -3.6098928    583.51024  0.066067735  0.067231413            3 
  737000   0.96749848   -3.6008633    583.93455  0.066026069  0.067199606            3 
  738000   0.94127751   -3.6144121    584.74636   0.06602827  0.067167826            4 
  739000   0.97360556    -3.627985     585.6226  0.066037731   0.06713623            2 
  740000   0.93371361   -3.6188736    583.99196   0.06576486  0.067103941            2 
  741000   0.94790641   -3.6196259    585.00987  0.065790583  0.067072366            3 
  742000   0.94841242   -3.6352754    586.54871  0.065874743  0.067041367            5 
  743000   0.95020358   -3.6338802    585.62326  0.065682286  0.067009885            5 
  744000   0.94366809   -3.5982819    589.61549  0.066041161  0.066978984            3 
  745000   0.97295642   -3.6194863    590.00602  0.065996199  0.066948697            2 
  746000   0.94311216   -3.6366641    589.75223  0.065879382  0.066917672            4 
  747000   0.95091484   -3.6395488    591.88964  0.066029634  0.066887075            2 
  748000   0.94890998   -3.6265168    589.01556  0.065621163  0.066856504            3 
  749000   0.93652848   -3.5897562    590.41082  0.065688787  0.066824914            4 
  750000    0.9502408   -3.6390966    591.59953  0.065733281  0.066794324            4 
  751000   0.95390931   -3.6364574    592.86733  0.065786433  0.066762836            3 
  752000   0.93945064   -3.6130106    593.42446  0.065760689   0.06673223            4 
  753000   0.95708499   -3.6560639    590.53984  0.065354121  0.066701927            4 
  754000   0.94637849   -3.6102767     592.4918  0.065483179  0.066672306            4 
  755000   0.94649143     -3.59762    596.96013  0.065889639  0.066642255            2 
  756000    0.9398658   -3.6221823    596.60885  0.065763762  0.066612415            3 
  757000   0.95485642   -3.6452609     596.8574  0.065704249  0.066582367            2 
  758000   0.93165227   -3.6308339    597.03995  0.065637637  0.066551901            5 
  759000   0.96712172   -3.6379651    596.91741  0.065537704   0.06652148            2 
  760000    0.9392035   -3.5898646     599.1339  0.065694506  0.066491032            3 
  761000   0.94434016   -3.6078664    599.28718  0.065624965  0.066460963            1 
  762000   0.94553489    -3.643564    599.20114  0.065529434   0.06643138            3 
  763000   0.94665125   -3.6311793    598.40817  0.065356943  0.066401162            3 
  764000   0.94714185   -3.6387861    599.88923  0.065432944  0.066370659            4 
  765000   0.96803779   -3.6438103    599.67026  0.065323557  0.066339861            5 
  766000   0.94128721   -3.6224508     601.0588  0.065389338  0.066309909            3 
  767000   0.93454739     -3.62804    603.06705  0.065522278  0.066279537            4 
  768000   0.96145701   -3.6310668     602.9052  0.065419401  0.066249776            3 
  769000   0.95929278   -3.6044109    601.59004  0.065191812  0.066219337            7 
  770000   0.95572957   -3.6606152    603.25858  0.065287725   0.06618905            2 
  771000   0.92998104   -3.6381265    602.96719  0.065171551  0.066158542            3 
  772000   0.92800644   -3.6305616    602.61707  0.065049338  0.066127818            3 
  773000   0.94214092    -3.650374    604.52698  0.065171084  0.066096648            2 
  774000   0.93847442   -3.6179218    604.71135  0.065106734  0.066065646            2 
  775000   0.93366155   -3.6274519    603.72723  0.064916906   0.06603456            3 
  776000   0.95831147   -3.6463882      602.734  0.064726589  0.066003257            3 
  777000   0.94734295   -3.6574279     602.9204  0.064663277  0.065971502            2 
  778000   0.91596122   -3.6502296    604.51556  0.064751024  0.065939988            4 
  779000   0.93322266   -3.6639198    603.61754  0.064571837  0.065908228            3 
  780000   0.95101949   -3.6470801    606.33809   0.06477971  0.065875509            4 
  781000   0.94732749    -3.609193    607.27019  0.064796222  0.065843984            3 
  782000   0.96229296   -3.6468262    606.48715  0.064629918  0.065811943            4 
  783000   0.95207781   -3.6443096    607.58672  0.064664402  0.065780111            3 
  784000   0.94592523   -3.6739571    608.29432  0.064657135  0.065747911            4 
  785000   0.94895946   -3.6497859    607.27225  0.064466269  0.065715117            3 
  786000   0.95560756   -3.6463144    606.57407  0.064310228  0.065682693            4 
  787000   0.94366496   -3.6344105    608.72066  0.064455809  0.065649954            4 
  788000   0.92868837   -3.6348791    609.72007  0.064479703  0.065617546            3 
  789000   0.94295758   -3.6394254    610.74903  0.064506657  0.065585626            2 
  790000   0.95460183   -3.6365076    610.64679  0.064414218  0.065553891            2 
  791000   0.93942856   -3.6357932    611.06034  0.064376353   0.06552217            6 
  792000   0.92749524   -3.6415741    613.14597  0.064514517  0.065489614            4 
  793000   0.93351121   -3.6445801    614.13309  0.064536894  0.065457553            1 
  794000   0.91664033   -3.6389707    614.71452  0.064516637   0.06542614            8 
  795000   0.94351452   -3.6488649     614.5475  0.064417977  0.065394565            3 
  796000   0.93242539   -3.6428269    616.62177  0.064554206  0.065362927            4 
  797000   0.93852853   -3.6704141    614.18513  0.064218437  0.065332076            5 
  798000   0.94329933   -3.6492053    617.52109   0.06448633  0.065301211            5 
  799000   0.91565876   -3.6670586    616.51943   0.06430115  0.065270753            6 
  800000   0.93380964   -3.6722185     616.5727  0.064226323  0.065240046            9 
  801000   0.92050594   -3.6669494    617.31252  0.064223108  0.065209729            7 
  802000   0.92628242    -3.635517    620.49489    0.0644737  0.065179977            5 
  803000   0.93043059   -3.6642778     618.5054  0.064186945  0.065150385            5 
  804000   0.92329066   -3.6521517    620.48873  0.064312679  0.065120292            1 
  805000   0.94513472   -3.6628888    620.69493  0.064254133  0.065090588            4 
  806000   0.89539892    -3.627345    622.29672  0.064340025  0.065060604            2 
  807000   0.94963185   -3.6480488    622.24073  0.064254516  0.065031133            2 
  808000   0.95202999   -3.6652605    622.54716  0.064206597  0.065001788            4 
[...]
 1800000   0.54566912   -4.3614865    855.04171  0.039585264  0.038841103           16 
 1801000   0.53297863   -4.3487164    854.37469  0.039532421  0.038817435            9 
 1802000   0.54377931   -4.3575503     855.0381  0.039541163  0.038793853           18 
 1803000    0.5391346   -4.3474319    854.34579  0.039487234  0.038770187           15 
 1804000   0.53915275   -4.3560151    855.82689  0.039533763  0.038746622           16 
 1805000   0.53295994   -4.3635569    857.47493  0.039587947  0.038723103           13 
 1806000    0.5326237   -4.3949401    854.50586  0.039429026  0.038699494           32 
 1807000   0.51910342   -4.3721979    852.79194  0.039328165   0.03867577           25 
 1808000   0.53184387   -4.3676074    855.19298  0.039417081  0.038652034           32 
 1809000   0.53654586   -4.3540889    856.64972  0.039462397  0.038628451            8 
 1810000   0.54173072    -4.371997     853.8134  0.039310009  0.038604859           15 
 1811000   0.52604684   -4.3701458    855.41825   0.03936215  0.038581202           16 
 1812000   0.51872093   -4.3776062    854.17338  0.039283176   0.03855762           14 
 1813000   0.54441678   -4.3811195     855.5121  0.039323042  0.038533991           11 
 1814000   0.54186369   -4.3596592    854.59265  0.039259126  0.038510273           17 
 1815000   0.54492208   -4.3830302    853.75297  0.039198943  0.038486645           12 
 1816000   0.53698557   -4.3665629    856.45191  0.039301207  0.038462976           40 
 1817000   0.53072323   -4.3657363    855.94162  0.039256174  0.038439356           30 
 1818000   0.52674353   -4.3571993     855.3667  0.039208228  0.038415805           34 
 1819000   0.54076227    -4.373688    854.48675   0.03914636  0.038392336           23 
 1820000   0.52662044   -4.3743053    854.21864  0.039112575  0.038368767           20 
 1821000   0.53456649   -4.3732088    855.33459  0.039142165   0.03834511           55 
 1822000   0.52676448   -4.3658253    854.08808   0.03906367  0.038321474           51 
 1823000   0.51585331   -4.3501783    855.29156  0.039097255  0.038297939           50 
 1824000   0.51503067   -4.3964428    852.71339  0.038958031  0.038274387           85 
 1825000   0.53476731   -4.3794292     855.6383  0.039070242  0.038250815           19 
 1826000    0.5273727   -4.3830938     853.5127  0.038951839  0.038227284           22 
 1827000   0.52116063   -4.3801414    854.87952  0.038992863  0.038203646           18 
 1828000   0.54174618   -4.3935619    853.65684  0.038915793  0.038180111           12 
 1829000   0.53023277   -4.3820614    854.20758  0.038919609  0.038156607           18 
 1830000   0.53792465   -4.3887774    856.18304  0.038988299  0.038133058           22 
 1831000   0.51411177    -4.394759    852.51399  0.038800018  0.038109535           24 
 1832000   0.52197181   -4.4102796    853.56053  0.038826443  0.038085914           22 
 1833000    0.5220529   -4.4017639    854.81878  0.038862465  0.038062325           19 
 1834000   0.51617537   -4.4010425    853.70973  0.038790882  0.038038812           19 
 1835000   0.52281485   -4.4052389    853.62622   0.03876595   0.03801527           12 
 1836000   0.51804274   -4.4080755    854.30369  0.038775585  0.037991851           19 
 1837000   0.52011933   -4.4061272    852.54508    0.0386747  0.037968358           26 
 1838000   0.52648897   -4.3958333    854.76042  0.038754099  0.037944888           32 
 1839000   0.50407303   -4.4014457    853.46633  0.038674385  0.037921403           22 
 1840000     0.540209   -4.4004019    852.45599  0.038607608  0.037897958           28 
 1841000   0.50957208   -4.3925303    855.25484  0.038713328  0.037874582           20 
 1842000   0.50871099   -4.4075736    853.82662  0.038627697  0.037851192           25 
 1843000   0.51404313    -4.400256    854.22361  0.038624688  0.037827788           17 
 1844000   0.51394362    -4.415025    854.66919  0.038623879  0.037804493           16 
 1845000   0.50458091   -4.3876183    855.64032  0.038646808  0.037781179            7 
 1846000   0.50682997   -4.3953603    854.10218  0.038556437  0.037757848            7 
 1847000     0.517806   -4.4080431    852.79646  0.038476649  0.037734489           10 
 1848000   0.52853864   -4.4048551    855.16575  0.038562669   0.03771107           16 
 1849000   0.50796497    -4.377617    854.55844  0.038514442  0.037687722           25 
 1850000   0.50187166   -4.3979127    855.96346  0.038556913  0.037664385           11 
 1851000    0.5087411   -4.3971585      853.891  0.038442779  0.037641146           11 
 1852000   0.51444416   -4.3932113    854.99222  0.038471572  0.037617835           17 
 1853000   0.50054113   -4.4103251    855.69015  0.038482198  0.037594478           22 
 1854000   0.51409801   -4.4049175    853.51373  0.038363616   0.03757116           13 
 1855000   0.50557333   -4.3931029    856.14928  0.038461333  0.037547877            9 
 1856000   0.51505591   -4.4007704    854.61798  0.038371856  0.037524629           10 
 1857000   0.50520037   -4.4066376    855.35067  0.038384072  0.037501306           19 
 1858000   0.51888854   -4.4138691     855.8363  0.038385195  0.037478151           13 
 1859000   0.51429244   -4.4134187    855.49402  0.038349203  0.037454845           13 
 1860000   0.51370703   -4.4048343    853.46324    0.0382376  0.037431552           13 
 1861000   0.49064993   -4.3996393    854.03278  0.038242557  0.037408284           25 
 1862000   0.50530825   -4.4097169    851.78339  0.038121348  0.037384936           39 
 1863000   0.51734926   -4.3952922    855.24642  0.038255789  0.037361759           22 
 1864000    0.5137703    -4.411117    854.06779  0.038182573  0.037338583           27 
 1865000   0.50970629   -4.4213936    852.17679  0.038077604  0.037315405           20 
 1866000   0.51492496   -4.4250546    853.22582  0.038104047  0.037292139           15 
 1867000   0.51653766   -4.4210199    853.58201  0.038099536  0.037268846           38 
 1868000    0.4982299   -4.4238317    854.42913  0.038116931  0.037245625           41 
 1869000   0.50523527   -4.4390516    853.49147  0.038054729  0.037222474           17 
 1870000   0.50008767   -4.4046368    853.72703  0.038044876  0.037199261           26 
 1871000   0.51489787    -4.423494    852.36055   0.03796368   0.03717608           23 
 1872000   0.49928628   -4.4157177    854.59701  0.038042958  0.037152856           24 
 1873000    0.5026681   -4.4394063    853.42311  0.037970418  0.037129676           18 
 1874000    0.5056354   -4.4136335    854.11467  0.037980909  0.037106455           20 
 1875000   0.49956616   -4.4367324    851.81203  0.037858312  0.037083257           17 
 1876000    0.5127904   -4.4343397    852.67065  0.037876272  0.037060015           10 
 1877000   0.50334826   -4.4123045     853.0431  0.037872629  0.037036807           16 
 1878000   0.49640307   -4.4277406    854.03934  0.037896669  0.037013596           19 
 1879000   0.51314001   -4.4409377    853.80556  0.037866133  0.036990361           24 
 1880000    0.4944921    -4.434681    851.61614  0.037748942  0.036967108           22 
 1881000   0.49412703   -4.4388452    851.87372  0.037740285  0.036943851           47 
 1882000   0.50557396   -4.4216322      853.295  0.037783165  0.036920592           28 
 1883000   0.50201628   -4.4289541    852.35328  0.037721423  0.036897282            9 
 1884000   0.51067275   -4.4393796    854.04895  0.037776405  0.036874111            6 
 1885000   0.50267108   -4.4529002    852.98229  0.037709208  0.036850943           18 
 1886000   0.49729881   -4.4268922    853.86515  0.037728223  0.036827836           27 
 1887000   0.50293704   -4.4192044    852.74059  0.037658567  0.036804743           13 
 1888000   0.50278977   -4.4211654    855.72282  0.037770252  0.036781678           13 
 1889000   0.49682228    -4.446585    852.09212  0.037590088  0.036758551           16 
 1890000   0.50101221   -4.4324928    854.53831  0.037678056  0.036735464           20 
 1891000   0.50907679   -4.4167568    854.06444  0.037637248  0.036712453           31 
 1892000   0.48843478   -4.4155714    853.11664   0.03757561  0.036689477           12 
 1893000   0.49482791   -4.4373055    855.20708  0.037647785  0.036666556           23 
 1894000   0.50019953   -4.4327887    854.56569  0.037599687  0.036643644           26 
 1895000   0.49377376   -4.4526162    855.02436  0.037600016  0.036620653           53 
 1896000   0.49070251   -4.4352703    853.62804  0.037518813  0.036597577           28 
 1897000    0.5028707   -4.4491085    852.40705  0.037445398  0.036574532           53 
 1898000   0.49698615   -4.4603099    852.02741  0.037409001   0.03655147           22 
 1899000   0.49198215   -4.4467444     852.7294  0.037420107  0.036528325           77 
 1900000   0.48819569    -4.437617    850.99174  0.037324199  0.036505251           24 
 1901000   0.48942089   -4.4383672    853.94837  0.037434174  0.036482239            8 
 1902000   0.48883174   -4.4342245    852.02623  0.037330276  0.036459243           32 
 1903000   0.50561922     -4.44932    851.24516  0.037276456  0.036436208           12 
 1904000   0.48898935   -4.4499286    853.51546  0.037356244  0.036413218           28 
 1905000   0.50754004   -4.4142333     852.3164  0.037284182  0.036390275           11 
 1906000    0.4857807    -4.450389    852.96046   0.03729278  0.036367339           12 
 1907000   0.49633568   -4.4408851     851.4867  0.037208823  0.036344291           16 
 1908000   0.49158647    -4.431366    852.45188  0.037231476  0.036321404           10 
 1909000   0.49516698    -4.439542    853.08125  0.037239447  0.036298586           16 
 1910000   0.48554833   -4.4451443    853.66294  0.037245329  0.036275699           11 
 1911000   0.49786218     -4.43647    853.71131  0.037227948  0.036252767            5 
 1912000   0.49058836     -4.46881    851.97569  0.037132832  0.036229828           16 
 1913000    0.4918711   -4.4546309    850.36738   0.03704336  0.036206867           13 
 1914000   0.47788648   -4.4576061    852.79048  0.037129505  0.036183953           57 
 1915000   0.48096921   -4.4646377    851.76667  0.037065564   0.03616105           30 
 1916000   0.48762882   -4.4588344    851.65823  0.037041503  0.036138078           38 
 1917000   0.48885017   -4.4638751     851.9498  0.037034855  0.036115145           30 
 1918000   0.49008771   -4.4636291    851.09549  0.036978428  0.036092152           21 
 1919000   0.48307086    -4.448456    854.43036  0.037103976  0.036069278           14 
 1920000    0.4849493   -4.4373746    854.08714  0.037069754  0.036046428           18 
 1921000   0.48281802   -4.4662298    851.70996  0.036947335  0.036023545           45 
 1922000   0.48542857   -4.4614429    851.78128  0.036931203  0.036000662           29 
 1923000   0.48683397   -4.4595164    853.43593  0.036983703  0.035977859           33 
 1924000   0.49438945   -4.4601677    848.56023  0.036753302  0.035954962           38 
 1925000    0.4930143   -4.4675879    850.94109  0.036837277  0.035932019           50 
 1926000   0.47950086   -4.4660995    851.16057  0.036827647  0.035909089           30 
 1927000   0.48272991   -4.4911373    850.01497  0.036758994  0.035886183           31 
 1928000   0.47677612   -4.4648479    850.90745  0.036778503  0.035863281           15 
 1929000   0.48748338   -4.4810508    850.94617   0.03676111  0.035840374           30 
 1930000   0.48307457    -4.484804    851.77515  0.036777856  0.035817582           28 
 1931000   0.48914201   -4.4716707    850.62207  0.036709048  0.035794767           46 
 1932000   0.47808262   -4.4757917    852.53327  0.036772484  0.035771952           20 
 1933000   0.48267351   -4.4769531    852.32112  0.036744314  0.035749191           22 
 1934000   0.48729366   -4.4803174    853.61868  0.036781226  0.035726531           18 
 1935000   0.47583803   -4.4641309    852.75963  0.036725221  0.035703894           35 
 1936000   0.48480197   -4.4707416    851.68877  0.036660157  0.035681237           29 
 1937000   0.48408219   -4.4766252    851.60925   0.03663781  0.035658529           14 
 1938000   0.48475979   -4.4812658    854.01772  0.036722468  0.035635795           24 
 1939000   0.49055211   -4.4605369    853.49678  0.036681141  0.035613187           45 
 1940000   0.48547395   -4.4745027    852.77237  0.036631116  0.035590662           23 
 1941000    0.4779385   -4.4681813     852.9562  0.036620136  0.035568138           42 
 1942000   0.47720316   -4.4555411    852.03136  0.036561593  0.035545659           48 
 1943000   0.48166285   -4.4840416    851.61074  0.036524736  0.035523195           29 
 1944000    0.4719118   -4.4919957    852.05189  0.036524858  0.035500738           49 
 1945000   0.46988946   -4.4815867    851.98619  0.036503264  0.035478266           30 
 1946000    0.4705242   -4.4776518     853.8505  0.036564341  0.035455738           40 
 1947000   0.47465508   -4.4937719    850.68062  0.036409888  0.035433191           22 
 1948000   0.48202728    -4.490539    851.46516  0.036424759  0.035410716           24 
 1949000   0.46152996    -4.475385    852.60884   0.03645497  0.035388234           15 
 1950000   0.46824868   -4.4782072    850.47106  0.036344917  0.035365764           16 
 1951000   0.47219958   -4.4756937     852.1525  0.036398108   0.03534326           38 
 1952000   0.46998339   -4.4830379    851.54114  0.036353362   0.03532071           74 
 1953000   0.48310434   -4.4795339    850.61653  0.036295295  0.035298151           22 
 1954000   0.47325007   -4.4893109    849.12751  0.036213217   0.03527562           32 
 1955000   0.47134313   -4.5129295    849.52202   0.03621151  0.035253013           26 
 1956000   0.46777807    -4.498687    853.34012  0.036355663  0.035230464           31 
 1957000   0.47518346   -4.4935472    852.77212  0.036312899  0.035208003           36 
 1958000   0.47954987   -4.4910612    852.38489  0.036277872  0.035185557           46 
 1959000   0.46403699   -4.4867991    851.77576  0.036233442  0.035163186           23 
 1960000   0.47652436   -4.4965433    852.40377  0.036241657  0.035140795           27 
 1961000   0.48278187   -4.4938484    851.49178   0.03618442  0.035118405           31 
 1962000   0.46899261   -4.5047447    852.84294  0.036223366  0.035095954           19 
 1963000   0.47584561   -4.4870254    851.74383  0.036158254  0.035073525           23 
 1964000   0.46766025   -4.4909778    852.25318  0.036161456  0.035051113           40 
 1965000   0.46023052   -4.5132445    851.34671   0.03610461  0.035028728           33 
 1966000   0.46231134   -4.4850845    850.31212  0.036042392   0.03500634           28 
 1967000   0.46909707   -4.5021859    852.34707  0.036110281  0.034983933           15 
 1968000   0.46543912   -4.5099276    850.82105  0.036027314    0.0349616           36 
 1969000   0.46548947    -4.511014    849.32923  0.035945879  0.034939207           37 
 1970000    0.4766675   -4.5136116    851.52872  0.036020674  0.034916797           20 
 1971000   0.47654477   -4.5005037    851.07904  0.035983386  0.034894445           36 
 1972000   0.47346297   -4.5090333     849.9148   0.03591594  0.034872077           22 
 1973000   0.47031727   -4.5007905    852.35301  0.036000719  0.034849756           12 
 1974000   0.47123953   -4.4990042    849.99525  0.035882947  0.034827406           21 
 1975000   0.46064364   -4.5064276    849.26401  0.035833924  0.034805041           31 
 1976000   0.47329935    -4.493769    852.48242  0.035951519  0.034782699           47 
 1977000   0.46848529   -4.5103948    849.70267  0.035816164  0.034760362           19 
 1978000   0.46294848   -4.5039906    850.08968  0.035814361  0.034738052           51 
 1979000   0.46674169   -4.5075903    850.71831  0.035822735   0.03471568           44 
 1980000   0.45619564   -4.5131222    851.03283   0.03581788  0.034693385           45 
 1981000    0.4503452    -4.526073    850.05288  0.035758577  0.034671101           24 
 1982000   0.45618329   -4.5036736    850.05383  0.035740575   0.03464881           16 
 1983000   0.45823016   -4.5095784    851.84776  0.035797939   0.03462662           25 
 1984000   0.46510466    -4.514222    849.29029  0.035672475  0.034604409           14 
 1985000   0.45407921   -4.5128006    851.14796  0.035732492  0.034582252           14 
 1986000   0.46365273   -4.5104892    850.66494  0.035694232   0.03456006           28 
 1987000   0.45769227   -4.5053807    851.93144  0.035729384  0.034537859           85 
 1988000   0.46649219   -4.5080506    850.16568  0.035637394  0.034515673           34 
 1989000   0.46206957   -4.5070018    850.95379  0.035652496  0.034493458           43 
 1990000   0.45608654   -4.5215448     850.8682  0.035630997  0.034471315          134 
 1991000   0.46732176   -4.5084432    851.58816  0.035643234  0.034449143          104 
 1992000   0.45137647   -4.5113505    851.14729  0.035606898  0.034427073           17 
 1993000    0.4621557   -4.5100678    849.71098  0.035528976  0.034404983           30 
 1994000   0.45903178   -4.5330853    852.09023  0.035610591  0.034382902           25 
 1995000    0.4651162   -4.5151278    851.05477  0.035549489  0.034360887           33 
 1996000   0.45843789   -4.5132523    850.99775  0.035529298  0.034338842           19 
 1997000   0.45462496   -4.5398447    849.30733  0.035440967   0.03431679           46 
 1998000   0.45415493   -4.5327231    849.36316  0.035425557  0.034294755           26 
 1999000   0.45897129    -4.522593    850.82427  0.035468745  0.034272732           28 
 2000000   0.46446455   -4.5039366    851.30023  0.035470843  0.034250806           18 
 2001000   0.46158609   -4.5232793     851.2805  0.035452295   0.03422897           64 
 2002000   0.44501183   -4.5288847     851.1062  0.035427331  0.034207098           37 
 2003000   0.44650754   -4.5345613     852.4835  0.035466945  0.034185217           81 
 2004000   0.45057863   -4.5240003    851.34388  0.035401858  0.034163326           53 
 2005000   0.45682609   -4.5223443    850.62114  0.035354162  0.034141412           66 
 2006000    0.4504606   -4.5204803    850.21302  0.035319584  0.034119458           40 
 2007000   0.45811489   -4.5269638    848.19339  0.035218128  0.034097521           51 
 2008000   0.44977488   -4.5215891    850.32581  0.035289086  0.034075597           43 
 2009000   0.45609851   -4.5335212    850.12118  0.035263032  0.034053693           33 
 2010000   0.44515381   -4.5290155     850.6695  0.035268222  0.034031832           37 
 2011000   0.45448882   -4.5432842    848.99949  0.035181481  0.034009946           25 
 2012000   0.45671141   -4.5480742    850.28365  0.035217182  0.033988034           30 
Loop time of 4892.59 on 48 procs for 2000000 steps with 4000 atoms

Performance: 70637.425 tau/day, 408.781 timesteps/s
99.4% CPU use with 48 MPI tasks x no OpenMP threads

MPI task timing breakdown:
Section |  min time  |  avg time  |  max time  |%varavg| %total
---------------------------------------------------------------
Pair    | 319.08     | 346.51     | 374.43     |  57.8 |  7.08
Neigh   | 33.353     | 34.511     | 35.837     |  11.5 |  0.71
Comm    | 310.85     | 338.78     | 368.37     |  60.9 |  6.92
Output  | 4.1964     | 4.1981     | 4.2306     |   0.2 |  0.09
Modify  | 4113.2     | 4124.6     | 4135.8     |   8.1 | 84.30
Other   |            | 43.98      |            |       |  0.90

Nlocal:        83.3333 ave          90 max          75 min
Histogram: 2 0 5 1 12 6 8 4 6 4
Nghost:        2247.83 ave        2264 max        2231 min
Histogram: 4 6 1 6 3 10 6 3 6 3
Neighs:        15097.8 ave       16480 max       13761 min
Histogram: 4 4 5 7 3 6 10 1 4 4
FullNghs:      30194.9 ave       33394 max       26812 min
Histogram: 1 1 6 3 13 8 7 5 2 2

Total # of neighbors = 1449355
Ave neighs/atom = 362.33875
Neighbor list builds = 108229
Dangerous builds = 0

#clear
#
#next RN
#
#jump SELF
Total wall time: 1:21:36
