
units lj                  # Use reduced LJ style units
atom_style atomic         # Uncharged point particles
atom_modify map hash      # Needed for indexing of clusters etc
                          # Used to be able to find where atoms are in relation to each other.

lattice fcc 1.0 spacing 1 1 1
Lattice spacing in x,y,z = 1.5874011 1.5874011 1.5874011
region box block 0 10 0 10 0 10 units lattice
create_box 2 box
Created orthogonal box = (0.0000000 0.0000000 0.0000000) to (15.874011 15.874011 15.874011)
  3 by 4 by 4 MPI processor grid
create_atoms 1 box
Created 4000 atoms
  using lattice units in orthogonal box = (0.0000000 0.0000000 0.0000000) to (15.874011 15.874011 15.874011)
  create_atoms CPU = 0.017 seconds
set type 1 type/fraction 2 0.8 78393
Setting atom values ...
  3188 settings made for type/fraction
mass 1 1.0
mass 2 1.0
pair_style lj/cut  3.5
pair_modify tail  yes
pair_coeff 1  1  1.0  1.0   # Intearaction between 1 and 1 set with epsilon = 1 and sigma = 1
pair_coeff 1  2  1.5  0.8
pair_coeff 2  2  0.5  0.88

write_data data.0
System init for write_data ...
Neighbor list info ...
  update every 1 steps, delay 10 steps, check yes
  max neighbors/atom: 2000, page size: 100000
  master list distance cutoff = 3.8
  ghost atom cutoff = 3.8
  binsize = 1.9, bins = 9 9 9
  1 neighbor lists, perpetual/occasional/extra = 1 0 0
  (1) pair lj/cut, perpetual
      attributes: half, newton on
      pair build: half/bin/atomonly/newton
      stencil: half/bin/3d
      bin: standard
WARNING: Not all mixed pair coeffs generated from mixing. Use write_data with 'pair ij' option to store all pair coeffs. (../write_data.cpp:312)


#############################
#   M E L T   S Y S T E M   #
#############################

velocity all create 2.4 5300450 mom yes dist gaussian # Assign velocities
                                                    # Temperature 2.4, random number seed, zero linear momentum
                                                                                # Gaussian distribution

timestep 0.002   # simulation timestep
thermo 1000       # output thermodynamic data every 1000 steps bf 100

# Define a fix  in this case with index 1 applied to all
# particles in the simulation. This fix is for simulations
# in the anisotropic NPT ensemble. Note that we use the MTK
# correction.
fix 1 all npt temp 2.4 2.4 0.1 iso 5.68 5.68 0.5 mtk yes tchain 5 pchain 5 # Use NPT ensemble
                                                                         # Set temperature and pressure and damping
                                                                         # Numbers of thermostats in chain and in barostat
run 10000          # run for 10000 steps
Per MPI rank memory allocation (min/avg/max) = 3.642 | 3.644 | 3.648 Mbytes
Step Temp E_pair E_mol TotEng Press Volume 
       0          2.4   -3.6981828            0 -0.099082777   -3.2752093         4000 
    1000    2.3559545    -3.051843            0    0.4812053    5.4914225    3823.5638 
    2000     2.366325   -3.0962401            0   0.45236011    5.7608419    3749.3821 
    3000    2.3768486   -3.0862175            0    0.4781641     5.300956    3822.8737 
    4000    2.3921008    -3.037058            0   0.55019626    5.5666444    3821.2649 
    5000    2.3971945   -3.0838157            0    0.5110771    5.5191645    3795.4259 
    6000    2.3964698   -3.0176599            0    0.5761461    5.9827951    3787.6423 
    7000    2.3943423   -3.0111275            0    0.5794881    5.7522191     3815.907 
    8000    2.4085837   -3.0891538            0   0.52281854    5.9000179    3749.9095 
    9000    2.4315831   -3.0375586            0   0.60890414    5.7697235    3811.9823 
   10000    2.4656875   -3.0109617            0   0.68664496    6.0333727    3797.0149 
Loop time of 2.56036 on 48 procs for 10000 steps with 4000 atoms

Performance: 674905.535 tau/day, 3905.703 timesteps/s
99.6% CPU use with 48 MPI tasks x no OpenMP threads

MPI task timing breakdown:
Section |  min time  |  avg time  |  max time  |%varavg| %total
---------------------------------------------------------------
Pair    | 1.1479     | 1.2189     | 1.3463     |   3.4 | 47.61
Neigh   | 0.21133    | 0.21948    | 0.24506    |   1.1 |  8.57
Comm    | 0.71163    | 0.86856    | 0.94342    |   4.5 | 33.92
Output  | 0.00024597 | 0.00025141 | 0.00032071 |   0.0 |  0.01
Modify  | 0.20148    | 0.23791    | 0.28682    |   4.1 |  9.29
Other   |            | 0.0153     |            |       |  0.60

Nlocal:        83.3333 ave          92 max          75 min
Histogram: 2 3 6 5 8 10 4 5 4 1
Nghost:        1699.04 ave        1728 max        1667 min
Histogram: 2 2 4 2 8 13 11 3 0 3
Neighs:        10048.2 ave       11544 max        9023 min
Histogram: 2 7 6 11 6 7 5 3 0 1

Total # of neighbors = 482314
Ave neighs/atom = 120.57850
Neighbor list builds = 907
Dangerous builds = 197

# Equilibrate just above the melting temperature to avoid step fn in T

fix 1 all npt temp 1.25 1.25 0.1 iso 5.68 5.68 0.5 mtk yes tchain 5 pchain 5
run 2000
Per MPI rank memory allocation (min/avg/max) = 3.644 | 3.646 | 3.649 Mbytes
Step Temp E_pair E_mol TotEng Press Volume 
   10000    2.4656875   -3.0109617            0   0.68664496    6.0333727    3797.0149 
   11000    1.2744012   -4.5314923            0   -2.6203684    5.6059867    2909.3985 
   12000    1.2707886   -4.5379628            0   -2.6322564    5.6339523    2910.1579 
Loop time of 0.619505 on 48 procs for 2000 steps with 4000 atoms

Performance: 557864.431 tau/day, 3228.382 timesteps/s
99.7% CPU use with 48 MPI tasks x no OpenMP threads

MPI task timing breakdown:
Section |  min time  |  avg time  |  max time  |%varavg| %total
---------------------------------------------------------------
Pair    | 0.27967    | 0.30701    | 0.32697    |   1.9 | 49.56
Neigh   | 0.040422   | 0.042476   | 0.045422   |   0.5 |  6.86
Comm    | 0.1998     | 0.22273    | 0.25151    |   2.6 | 35.95
Output  | 5.2484e-05 | 5.3811e-05 | 6.9235e-05 |   0.0 |  0.01
Modify  | 0.040156   | 0.042567   | 0.044927   |   0.8 |  6.87
Other   |            | 0.004667   |            |       |  0.75

Nlocal:        83.3333 ave          92 max          75 min
Histogram: 2 2 5 8 6 12 5 5 2 1
Nghost:        2037.58 ave        2070 max        2011 min
Histogram: 2 0 6 11 13 7 7 1 0 1
Neighs:        13154.9 ave       14916 max       10993 min
Histogram: 1 1 4 5 9 9 7 6 5 1

Total # of neighbors = 631436
Ave neighs/atom = 157.85900
Neighbor list builds = 144
Dangerous builds = 16

#############################
# L I N E A R  Q U E N C H  #
#############################

# Define solid atoms. This closely follows ten Wolde  Ruiz-Montero and Frenkel  Faraday Discuss  1996  104  93-110
# Compute components of the per-atom q6 vector
compute q6 all orientorder/atom degrees 1 6 components 6 nnn NULL cutoff 1.3 # compute the Q6 parameter.
                                                                             # Use all neighbours within 1.3 unit cell.

# get number of connections
compute coord_number all coord/atom orientorder q6 0.5

# An atom is solid if it has 8 or more connections (of a possible 14)
variable is_solid atom c_coord_number>=8
group solid dynamic all var is_solid    # Must be dynamic to update
dynamic group solid defined

# do clustering
compute cluster solid cluster/atom 1.3 # Create a cluster where all atoms within are solid and max 1.3 units from another member

# define chunks one chunk per cluster
compute clus_chunks solid chunk/atom c_cluster nchunk every compress yes  # Says which atoms are in which chunk

# count the size of each chunk
compute size_chunks solid property/chunk clus_chunks count


# Find the maximum entry in the vector of chunk sizes
variable max_n equal max(c_size_chunks)


# Thermo style which includes this variable
# thermo_style custom step temp pe vol v_max_n

thermo ${N}  # Print the thermo information every 100 steps
thermo 1000  

# Reset the npt fix at a lower temperature (below freezing)
fix 1  all npt temp  ${temp} ${temp}  0.1  iso  5.68  5.68  0.5  mtk yes tchain  5  pchain  5
fix 1  all npt temp  0.45 ${temp}  0.1  iso  5.68  5.68  0.5  mtk yes tchain  5  pchain  5
fix 1  all npt temp  0.45 0.45  0.1  iso  5.68  5.68  0.5  mtk yes tchain  5  pchain  5

dump dmp2 all dcd ${N} traj.dcd
dump dmp2 all dcd 1000 traj.dcd


compute msd all msd com yes
variable twopoint equal c_msd[4]/6/(step*dt+1.0e-6)
fix 9 all vector 10 c_msd[4]
variable fit equal slope(f_9)/6/(10*dt)
thermo_style custom step temp pe c_msd[4] v_twopoint v_fit v_max_n

fix 1 all npt temp 1.25 ${temp} 0.1 iso 5.68 5.68 0.5 mtk yes tchain 5 pchain 5
fix 1 all npt temp 1.25 0.45 0.1 iso 5.68 5.68 0.5 mtk yes tchain 5 pchain 5
run 500000 # 5000000  # Run for this many steps
Neighbor list info ...
  update every 1 steps, delay 10 steps, check yes
  max neighbors/atom: 2000, page size: 100000
  master list distance cutoff = 3.8
  ghost atom cutoff = 3.8
  binsize = 1.9, bins = 8 8 8
  4 neighbor lists, perpetual/occasional/extra = 1 3 0
  (1) pair lj/cut, perpetual
      attributes: half, newton on
      pair build: half/bin/atomonly/newton
      stencil: half/bin/3d
      bin: standard
  (2) compute orientorder/atom, occasional
      attributes: full, newton on
      pair build: full/bin/atomonly
      stencil: full/bin/3d
      bin: standard
  (3) compute coord/atom, occasional
      attributes: full, newton on
      pair build: full/bin/atomonly
      stencil: full/bin/3d
      bin: standard
  (4) compute cluster/atom, occasional
      attributes: full, newton on
      pair build: full/bin/atomonly
      stencil: full/bin/3d
      bin: standard
Per MPI rank memory allocation (min/avg/max) = 9.833 | 9.840 | 9.844 Mbytes
Step Temp PotEng c_msd[4] v_twopoint v_fit v_max_n 
   12000    1.2707886   -4.5379628 8.5551965e-31 5.9411084e-33 8.3333333e+20            2 
   13000    1.2229479    -4.514623   0.76895162 0.0049291769   0.06416799            2 
   14000    1.2506599   -4.5124437    1.5566315 0.0092656631  0.064562389            1 
   15000     1.268342   -4.5375655    2.2936921  0.012742734  0.064762108            2 
   16000    1.2623231    -4.546192    3.0418262  0.015842844  0.063597904            2 
   17000    1.2249389   -4.5451204    3.7860254  0.018558947  0.063235651            2 
   18000    1.2152426   -4.5458467    4.5665005  0.021141205  0.063260445            2 
   19000    1.2344129    -4.535456    5.3863318  0.023624262  0.063703677            2 
   20000    1.2170856   -4.5854977    6.1474087  0.025614202  0.063803653            3 
   21000    1.2233572   -4.5389515    6.9638292  0.027634242  0.064093583            1 
   22000    1.2389695   -4.5909922    7.6640107  0.029030343  0.064091214            1 
   23000     1.219405   -4.5441835    8.4695439  0.030686753  0.064108843            1 
   24000    1.2316282   -4.5182738    9.2820708  0.032229412  0.064325248            2 
   25000    1.2307349   -4.5883606    10.015217  0.033384057  0.064498038            2 
   26000     1.227287    -4.567007    10.828091  0.034705419  0.064437606            2 
   27000    1.2232515   -4.5798258    11.655471  0.035973675  0.064636911            3 
   28000    1.2491164   -4.5729499     12.37459  0.036829135  0.064736428            2 
   29000    1.2174808   -4.5773808    13.190275  0.037903089   0.06470071            2 
   30000    1.2499878   -4.6024012    14.167688  0.039354688  0.064887235            6 
   31000    1.2150284   -4.5807766    14.809043  0.039809255  0.065096405            2 
   32000     1.217865   -4.5805007    15.785724  0.041108656   0.06524316            2 
   33000     1.237952   -4.5881998    16.555379  0.041806512  0.065466214            2 
   34000    1.1955735   -4.5873338    17.294703  0.042388976  0.065619114            5 
   35000     1.187432   -4.5750134    18.139186  0.043188537  0.065734316            1 
   36000    1.2238488    -4.618648     18.85422  0.043644027  0.065828579            2 
   37000     1.206784   -4.5872261    19.719355  0.044412961  0.065931199            2 
   38000    1.2222092   -4.6455997     20.50354  0.044963902  0.066002937            2 
   39000    1.2097813   -4.6651222    21.234569  0.045373011  0.066067147            3 
   40000     1.190301   -4.5839151    22.110681  0.046063918  0.066087933            2 
   41000    1.2278703   -4.6063417     22.85337  0.046449939  0.066131068            4 
   42000    1.2033368    -4.602894    23.478834  0.046584988  0.066079155            2 
   43000    1.1846311    -4.602313    24.218753  0.046935568   0.06599959            2 
   44000    1.2105854   -4.6115455    25.058445  0.047459176  0.065928244            4 
   45000     1.201929    -4.638206     25.63904  0.047479703  0.065828551            4 
   46000    1.2109222   -4.6316267       26.533  0.048067028  0.065740427            4 
   47000    1.1898622   -4.6460393    27.434861  0.048643371  0.065704517            1 
   48000    1.1670164   -4.6314223    28.127003  0.048831601   0.06566826            1 
   49000    1.1827985   -4.6295575     28.89291  0.049137602  0.065616253            4 
   50000    1.1763744   -4.6373019    29.447613  0.049079355  0.065504906            3 
   51000     1.222479   -4.6218211    30.225748  0.049388477  0.065410162            3 
   52000    1.1824344   -4.6199045    30.936279  0.049577369  0.065306991            1 
   53000    1.2049073    -4.633486     31.77768  0.049964906  0.065197719            2 
   54000    1.1975497   -4.6289608    32.507269  0.050165538  0.065104198            2 
   55000    1.2067155   -4.6567449    32.984407  0.049976374  0.064957907            3 
   56000     1.197061   -4.6736617    33.354801   0.04963512  0.064757448            3 
   57000    1.1743973   -4.6786782    34.272565  0.050106089  0.064559889            3 
   58000    1.1535562   -4.7220525    35.126107  0.050468544  0.064387874            2 
   59000    1.1828995    -4.661015    35.701197   0.05042542  0.064243683            2 
   60000    1.1590326   -4.6595418    36.459484  0.050638172  0.064099462            3 
   61000    1.1618364   -4.6791476     36.95824  0.050489398   0.06394329            2 
   62000    1.1537158   -4.6842811    37.667303  0.050628096  0.063774324            3 
   63000    1.1629039   -4.6451518    38.471233  0.050887874  0.063618052            2 
   64000    1.1681151   -4.6777174    39.041711  0.050835561  0.063455618            1 
   65000    1.1781566   -4.6751118    39.592879  0.050760101  0.063284839            4 
   66000    1.1653461    -4.643945     40.41872  0.051033737  0.063122927            5 
   67000     1.174649   -4.6992307     41.19369  0.051235933  0.062980151            3 
   68000    1.1651946   -4.7148812     41.70799  0.051112733  0.062858379            2 
   69000     1.145847   -4.6512024    42.755472  0.051637043  0.062757728            1 
   70000    1.1295073   -4.6898531    43.446146  0.051721602  0.062653103            3 
   71000    1.1585728   -4.7396285    43.973392  0.051611962  0.062558839            2 
   72000    1.1559482   -4.7193968    44.743946  0.051786975  0.062459631            2 
   73000    1.1694284    -4.718881     45.60418  0.052059566  0.062369744            2 
   74000    1.1617721   -4.7023783    46.584074  0.052459543  0.062302922            2 
   75000    1.1511184   -4.7207188    46.999737   0.05222193  0.062236522            2 
   76000    1.1521875   -4.6858043    47.879742  0.052499716  0.062170768            5 
   77000    1.1631607   -4.7070504    48.464665  0.052450936   0.06211661            3 
   78000    1.1446373   -4.7098494    48.856831  0.052197469  0.062029553            2 
   79000    1.1591767   -4.7129239    49.588394  0.052308432  0.061930093            4 
   80000    1.1335907   -4.7480252    50.458008  0.052560425  0.061843703            2 
   81000    1.1328348   -4.7406782    51.409499  0.052890431  0.061781279            2 
   82000    1.1478959   -4.7172405    51.909449  0.052753505  0.061723815            2 
   83000     1.154905   -4.7235957    52.900639  0.053113091  0.061667958            3 
   84000    1.1197408   -4.7380084    53.298742  0.052875736  0.061608277            2 
   85000    1.1359037   -4.7198384    53.971827  0.052913555  0.061534678            6 
   86000    1.1339693    -4.718674    54.398222  0.052711455  0.061452777            2 
   87000    1.1319514   -4.7649433    55.032257  0.052712889  0.061363266            6 
   88000    1.1291875    -4.731972    55.778385   0.05282044  0.061264972            4 
   89000    1.1118501   -4.7611144    56.487378  0.052890803  0.061176766            4 
   90000    1.1140792   -4.7560532    56.966825   0.05274706  0.061081972            3 
   91000    1.1333299   -4.7582958    57.524817  0.052678403  0.060995639            3 
   92000    1.1367041   -4.7877603    58.037088  0.052569826   0.06089251            1 
   93000    1.1174912   -4.7638451    58.787347  0.052676834  0.060787543            2 
   94000    1.1189243   -4.7781581    59.372785  0.052635448  0.060685212            3 
   95000    1.1251921    -4.769939    59.807278  0.052462524  0.060575164            2 
   96000    1.1332709   -4.7365138    60.916136   0.05287859  0.060470211            3 
   97000    1.1260876    -4.728088    61.435847  0.052779937  0.060374524            3 
   98000    1.1240284   -4.7842763     62.14139  0.052841318  0.060285399            2 
   99000    1.1218688   -4.7740981    62.752346  0.052821839  0.060213413            2 
  100000    1.1322793   -4.7910378     63.16557  0.052637975  0.060136051            3 
  101000    1.1124405   -4.7725977    63.948682  0.052762938  0.060047734            6 
  102000    1.0940114   -4.7952476    64.850037  0.052982056  0.059964347            3 
  103000    1.1000123   -4.7838432    65.511223  0.053002608  0.059886212            5 
  104000    1.1067598   -4.7726492    66.243405  0.053079651  0.059824179            5 
  105000    1.0891864   -4.7720826    67.026847   0.05319591  0.059757008            3 
  106000    1.1164133    -4.816527    67.404007  0.052990571  0.059680461            3 
  107000    1.0964987   -4.7824314    68.492155    0.0533428  0.059618246            2 
  108000    1.0732947   -4.8383193     69.18466  0.053383225  0.059572785            3 
  109000    1.0776295   -4.8178824      69.6949  0.053283563  0.059526868            4 
  110000    1.0808016   -4.8287541    70.461538  0.053379952   0.05947744            4 
  111000    1.1080275   -4.8108908    71.035912  0.053330264  0.059420504            2 
  112000       1.0881   -4.8285219    71.276059  0.053032782  0.059360966            3 
  113000    1.0722912   -4.8291611    72.107367  0.053176524  0.059284458            3 
  114000    1.0844191   -4.8508905    72.152362  0.052742954  0.059199395            2 
  115000    1.0730094   -4.8194432    72.323533  0.052408357  0.059099351            1 
  116000    1.0422845   -4.7850641    73.095629  0.052511228  0.058997449            1 
  117000    1.0816719   -4.8066378    73.748964  0.052527752  0.058897084            5 
  118000    1.0993092   -4.8018826    74.336695  0.052497666   0.05879228            3 
  119000    1.0555045   -4.8452825    74.806329  0.052385384  0.058686701            3 
  120000    1.0758775   -4.8559483    75.742623  0.052599043  0.058592062            4 
  121000    1.0759344   -4.8563845    76.198325  0.052478185  0.058504263            2 
  122000    1.0883864    -4.850358    77.008355  0.052601335  0.058416461            2 
  123000    1.0671038   -4.8208012    77.188913  0.052296011  0.058324715            3 
  124000    1.0879402   -4.8624104    77.648805  0.052183337  0.058218507            3 
  125000    1.0647624    -4.839278    77.999059  0.051999373  0.058114008            3 
  126000    1.0825239   -4.8655969    78.521169   0.05193199  0.058001619            3 
  127000    1.0527525   -4.8559076    78.840728  0.051732761  0.057882646            3 
  128000    1.0551958   -4.8540844    79.584571  0.051812872  0.057762163            2 
  129000    1.0323701   -4.8584015    80.346684  0.051903542  0.057646395            3 
  130000    1.0610223   -4.9080693    80.513858  0.051611447  0.057533808            6 
  131000    1.0784875   -4.8811475    81.580634  0.051896078  0.057424447            3 
  132000    1.0558639   -4.8497761    81.676394   0.05156338  0.057321742            3 
  133000    1.0654953   -4.9044819    81.943444   0.05134301  0.057214661            3 
  134000    1.0719391   -4.8783103    82.432885  0.051264232  0.057101904            3 
  135000    1.0284542   -4.8841332    82.921716  0.051186244  0.056981118            3 
  136000    1.0374017   -4.8743474    83.115212  0.050928438   0.05685448            3 
  137000    1.0307731   -4.8731346    83.999576  0.051094632  0.056725805            3 
  138000    1.0570125   -4.9265717     84.42634  0.050982089  0.056598691            4 
  139000    1.0461774   -4.9028792    84.977996  0.050946041  0.056478536            2 
  140000    1.0232248   -4.9241094    84.984926  0.050586266  0.056352096            5 
  141000    1.0314843   -4.9128014    85.870097  0.050750648  0.056225288            5 
  142000    1.0580306   -4.9391912    85.969925  0.050451834  0.056095443            4 
  143000    1.0233261   -4.9218334    86.541881  0.050432331  0.055965204            3 
  144000    1.0252886   -4.8973429    86.960068  0.050324114  0.055832268            4 
  145000    1.0246889   -4.9147778    87.363101  0.050208679  0.055691848            3 
  146000    1.0217046   -4.9303456    87.791962  0.050109567  0.055552218            5 
  147000    1.0568741   -4.9312587    88.038117   0.04990823  0.055417195            2 
  148000    1.0632661   -4.9453809    88.231695  0.049680008  0.055276471            5 
  149000    1.0572713   -4.9124248    89.180504  0.049877239  0.055139025            5 
  150000    1.0229714   -4.9047588    89.285911  0.049603284  0.055000143            1 
  151000    1.0300659   -4.9565223     89.79128  0.049553687  0.054859381            4 
  152000    1.0262017   -4.9519228    89.768355  0.049215107  0.054713661            2 
  153000    1.0324341   -4.9544119    90.563762  0.049326668  0.054570682            8 
  154000    1.0356594   -4.9056892    91.094199  0.049293397  0.054431987            2 
  155000    1.0221002   -4.9271731    91.508529  0.049198134  0.054294089            3 
  156000    1.0263416   -4.9652366    92.255196  0.049281621  0.054163555            3 
  157000     1.024377   -4.9626272    92.317069  0.049000567  0.054029366            3 
  158000    1.0156976   -4.9385909    92.967181  0.049033323  0.053898329            3 
  159000   0.99678352   -4.9543547    93.508594  0.049008697   0.05377073            3 
  160000   0.98420268   -5.0210897    93.740445  0.048823149  0.053641894            2 
  161000    1.0112663   -4.9493132    94.626174  0.048978351  0.053514911            2 
  162000    1.0212165   -4.9770745    94.779654  0.048754966  0.053386997            3 
  163000    1.0400443    -4.947087    95.307522  0.048725727   0.05325522            2 
  164000   0.98834391   -4.9572736    95.192588  0.048370218  0.053119459            4 
  165000   0.99648428   -4.9911076    95.545676  0.048255392  0.052983431            5 
  166000    1.0095542   -4.9910768    95.598036  0.047990982   0.05284599            7 
  167000   0.98746711   -4.9987661    96.279926  0.048043875  0.052708873            5 
  168000    0.9863176   -5.0057522    96.451962  0.047843235  0.052571311            2 
  169000   0.98843709   -5.0389555    97.453999   0.04805424  0.052433364            4 
  170000    1.0168211   -4.9963266    97.332787   0.04771215  0.052298189            4 
  171000   0.99423938   -5.0158305    98.018414  0.047767258   0.05216268           10 
  172000   0.99387201   -4.9994867    98.836163  0.047885738   0.05203424            4 
  173000   0.98337076   -5.0008883    99.350684  0.047856784  0.051909734            5 
  174000   0.99141396   -5.0001915    99.350375  0.047581597  0.051782117            3 
  175000    0.9788895   -5.0261414    99.682833  0.047468016  0.051656864            3 
  176000    1.0175422   -4.9993278     100.1676  0.047427843   0.05152831            5 
  177000   0.97486432   -5.0125464    100.32769  0.047235257  0.051396224            4 
  178000   0.97935986   -5.0025454    100.81727  0.047199095  0.051264577            3 
  179000   0.98737265   -5.0430846    100.69771  0.046879751   0.05112975            5 
  180000   0.97438893   -5.0174309    101.69859  0.047082678  0.050995603            4 
  181000   0.97876862   -5.0168922    101.80162  0.046869989   0.05086432            3 
  182000   0.96730356   -5.0528763    102.09587  0.046747194  0.050732271            5 
  183000    0.9794482   -5.0182195    102.56803  0.046706753  0.050599706            2 
  184000   0.98153318   -5.0571539     102.5789  0.046457834  0.050466673            5 
  185000   0.97460978   -5.0330476    103.19279   0.04648324  0.050332884            3 
  186000    1.0016426   -5.0251014    103.34175  0.046300066   0.05020218            2 
  187000   0.96831728   -5.0012791    103.95225   0.04632453  0.050069149            5 
  188000   0.97683786   -5.0274545    104.18518  0.046181376  0.049939119            3 
  189000   0.96366709   -5.0323287     104.2629  0.045971294  0.049805762            2 
  190000   0.99736246   -5.0576568    104.59208   0.04587372  0.049673849            3 
  191000   0.95879291   -5.0249942    105.22329  0.045908942  0.049542037            4 
  192000   0.95277665   -5.0755371    105.68639   0.04587083  0.049410323            4 
  193000   0.95192625    -5.064946    106.09645   0.04581021  0.049280528            3 
  194000   0.96822369   -5.0875181    106.28322  0.045654305  0.049151533            6 
  195000   0.94341957   -5.0375031    107.05278  0.045749053  0.049028673            4 
  196000   0.95547578   -5.0321499    107.78216  0.045825749  0.048908176            5 
  197000   0.95979839   -5.0789631    107.66463  0.045543412   0.04878943            3 
  198000    0.9731172   -5.0841092    107.92317   0.04542221  0.048666903            2 
  199000   0.95044961   -5.0696973    108.00538  0.045228385  0.048544811            4 
  200000   0.94730305   -5.1106779    108.45907   0.04519128  0.048422898            7 
  201000   0.95460268   -5.0864278    108.88736  0.045144013   0.04830066            4 
  202000   0.94439688   -5.1019962    108.77311  0.044873396  0.048176387            3 
  203000   0.92096582    -5.088383     109.6713  0.045021057  0.048053872            3 
  204000   0.94537825   -5.1174119    109.25336  0.044629642  0.047932139            4 
  205000   0.92947884   -5.0934157    110.42914  0.044889893  0.047813717            2 
  206000    0.9578912   -5.1154677    109.94907  0.044477778  0.047694545            4 
  207000   0.92691263   -5.0963802     110.6263  0.044535548  0.047575477            6 
  208000   0.95418881   -5.1246432     111.3072  0.044594232  0.047456809            3 
  209000   0.93922647   -5.1129911     111.5999  0.044497569  0.047340423            5 
  210000    0.9361192   -5.0794085    112.15273   0.04450505  0.047226302            3 
  211000   0.94818446   -5.1193268    112.26805  0.044339673  0.047111602            5 
  212000   0.93096502   -5.1645359    112.10446  0.044066219  0.046997065            5 
  213000   0.92105276   -5.1603489    112.47718  0.044005157  0.046883828            5 
  214000   0.91468636    -5.160309    112.77513  0.043915548  0.046766697            2 
  215000   0.91777354   -5.1576053    113.28996  0.043910836  0.046650079            9 
  216000   0.92493662   -5.1697349    113.21661  0.043679249  0.046532206            7 
  217000   0.93350557   -5.1154016    114.25156  0.043875407  0.046416125            4 
  218000   0.93273255   -5.1602878    114.37717  0.043722158  0.046300493            3 
  219000   0.93183583   -5.1506876    114.86651  0.043708717  0.046187308            4 
  220000   0.92073662   -5.1297017    115.40218  0.043712946  0.046076687           10 
  221000   0.88594831   -5.1275248    115.85741  0.043686806  0.045967081            3 
  222000   0.92239273   -5.1670358     115.3433  0.043297033  0.045857368            3 
  223000   0.90237484   -5.1695417    116.25148  0.043442257  0.045747481            4 
  224000   0.90413008   -5.1642716    116.65841  0.043399705  0.045640468            6 
  225000   0.90217969    -5.144062    116.68595  0.043217018  0.045533905            3 
  226000   0.90961663   -5.1521302    117.01484  0.043147063  0.045424362            6 
  227000   0.90243714   -5.1823925    116.96588  0.042939016  0.045314967            5 
  228000   0.91030566   -5.1902325    117.01113  0.042767227  0.045206454            5 
  229000   0.89858743   -5.1517652    117.97201  0.042930134  0.045097083            3 
  230000   0.89365574   -5.1986701    118.02278  0.042761876  0.044988986           11 
  231000   0.88635082   -5.1866112    118.38676  0.042708066  0.044881026            4 
  232000   0.88632614   -5.1658586    118.57131  0.042590269  0.044774621            4 
  233000   0.91032293   -5.2361992    118.58428  0.042412116  0.044666798            4 
  234000   0.89646415   -5.1966859    119.69517  0.042626485  0.044560382            5 
  235000   0.90938979   -5.2015856    119.59664  0.042410158  0.044454487            7 
  236000   0.90993044   -5.1915625    120.01482  0.042378114  0.044351122            6 
  237000   0.87971001   -5.2292235    120.01076  0.042197875  0.044247966            5 
  238000   0.88012019   -5.2280512    120.17053  0.042076515    0.0441427            5 
  239000   0.87557068   -5.2375769     120.4541  0.041999338  0.044036369            5 
  240000   0.88700414   -5.2181683    120.83311  0.041955942  0.043930235            6 
  241000   0.90127903   -5.2324512    120.68315  0.041729998  0.043823481            3 
  242000   0.89132904   -5.2346783    120.89389  0.041630126  0.043717359            7 
  243000    0.8813877   -5.2136796     121.5262  0.041675652  0.043610029            3 
  244000   0.87574107   -5.2409238    122.04208  0.041681037  0.043503184            6 
  245000   0.89047925   -5.2316956    121.95364   0.04148083  0.043398316            4 
  246000   0.86239235   -5.2477442    121.63702  0.041204952   0.04329093            6 
  247000   0.88239683   -5.2601766    121.99705  0.041159598  0.043185003            5 
  248000   0.87490882   -5.2681845    121.92074   0.04096799  0.043079471            4 
  249000    0.8630972   -5.2492735    123.11787  0.041204107  0.042974629            4 
  250000   0.88302839   -5.2748757    123.06992  0.041023306  0.042869556            7 
  251000     0.850114    -5.252179    123.31138  0.040940033  0.042766533            5 
  252000   0.85384467   -5.2620648    123.72839  0.040915472  0.042664788            6 
  253000   0.85378705   -5.2745528    124.11808  0.040882109  0.042561948            4 
  254000   0.84953069   -5.2411928     124.6768  0.040904462  0.042461413            5 
  255000   0.86337007   -5.2669584     124.7085   0.04075441  0.042360476            6 
  256000   0.87356467   -5.2683329    125.04447   0.04070458  0.042260488            9 
  257000   0.84086616   -5.2958658    125.09855  0.040563733  0.042160653            2 
  258000     0.859918   -5.2689756    125.92067   0.04067205  0.042060851            5 
  259000   0.84990458   -5.2628664    125.82059  0.040482815  0.041961189            5 
  260000   0.85829868   -5.2784807    125.84509  0.040334965  0.041862058           13 
  261000   0.85151073    -5.264616    126.25208   0.04031037  0.041762626            9 
  262000   0.84626219   -5.2626366    126.81411  0.040335277  0.041664533            4 
  263000   0.84281481   -5.2980023    126.88684  0.040204955  0.041567055            3 
  264000   0.82913782   -5.3174911    126.66242  0.039981824  0.041468635            6 
  265000     0.840118   -5.3260829     127.1907  0.039997076   0.04137153            6 
  266000   0.85173814   -5.3176921    127.49948  0.039943448  0.041273897            5 
  267000   0.83605694   -5.3242695    127.48017  0.039787819  0.041174515            4 
  268000   0.83850667   -5.3140594    127.47654  0.039638227  0.041075772            7 
  269000   0.84815597   -5.2918589    128.09283  0.039681794  0.040976916            4 
  270000   0.82274781   -5.3390635    127.78483  0.039439763  0.040878179            3 
  271000   0.81510257   -5.3093939     128.2845  0.039447879  0.040780627            6 
  272000   0.83352384   -5.3365009    129.03172  0.039531777  0.040684239            7 
  273000   0.82877967   -5.3531288    128.88448  0.039342026  0.040588591           10 
  274000   0.82054576   -5.3471748    129.26902  0.039315395  0.040492026            3 
  275000   0.82200253   -5.2992841    129.33915  0.039193683  0.040397234           10 
  276000   0.81048137   -5.3619585    129.49135   0.03909763  0.040303475            6 
  277000   0.82590188   -5.3538387    129.95288   0.03909533  0.040208655            7 
  278000   0.81773583   -5.3286701    130.08331  0.038993799  0.040115357            6 
  279000   0.80912612   -5.3490816    131.06021  0.039145821  0.040022827            5 
  280000   0.81681866   -5.3401153    130.60666  0.038871029  0.039930576            3 
  281000    0.8390391    -5.344825    130.87972  0.038813678  0.039837201            6 
  282000   0.81771514   -5.3744869    131.11199  0.038744679  0.039744923            5 
  283000   0.81130924   -5.3871676    130.97113  0.038566292  0.039651253            4 
  284000   0.81457558    -5.380381    131.31252  0.038530668  0.039557146           11 
  285000   0.80928638   -5.3743941    131.79466  0.038536451  0.039463587            6 
  286000   0.81388903   -5.4125636    131.40539  0.038288283  0.039370314           12 
  287000   0.81059236   -5.3983399    132.04165  0.038339618  0.039277956            5 
  288000   0.82533761    -5.408998    131.66723  0.038098158   0.03918598           10 
  289000   0.80479735    -5.350255    132.50747  0.038208613  0.039093406            4 
  290000   0.80014919   -5.3733066    132.12378  0.037966604   0.03900148            6 
  291000    0.8037276    -5.395305    131.94079   0.03778373  0.038907603            9 
  292000   0.79694908   -5.3839244    132.81551  0.037903971  0.038813558            9 
  293000   0.78676177   -5.3884246    132.74691  0.037755094  0.038719083            2 
  294000     0.804398   -5.3989787    132.56962  0.037576422  0.038624164            4 
  295000   0.78549228   -5.3979835    132.84849  0.037527822  0.038528709            7 
  296000   0.81501246   -5.3967832    132.78543  0.037383286  0.038432989            6 
  297000   0.77936216   -5.4106104    133.15572  0.037361314  0.038338316            6 
  298000   0.78799627   -5.4344243    132.99215    0.0371902  0.038243144            4 
  299000   0.77145499   -5.4358149    133.13797  0.037106458  0.038147839            6 
  300000   0.77525541   -5.4067233     133.8552  0.037182001  0.038052852            5 
  301000   0.79144538   -5.4394854     133.9709  0.037090504  0.037958954            5 
  302000   0.78374304   -5.4397377    134.16411  0.037021001  0.037865052            5 
  303000   0.76169237   -5.4412839    134.23959  0.036919579  0.037771708            5 
  304000   0.79302203   -5.4216045    134.22448   0.03679399  0.037679041            6 
  305000   0.79104432   -5.4501757    134.42782  0.036728913  0.037587753           18 
  306000   0.78817235   -5.4564463    134.68852   0.03667988  0.037495101            5 
  307000   0.77330955   -5.4418745     134.9033  0.036618703  0.037403415            7 
  308000   0.78682175   -5.4178206    134.71747  0.036449533   0.03731193            5 
  309000   0.78495651   -5.4146866    135.17704  0.036455512  0.037219834            3 
  310000   0.77325626   -5.4627721    135.69131  0.036476159  0.037128595            5 
  311000   0.80743776   -5.4604179    135.57754  0.036328387    0.0370364            4 
  312000   0.77231635    -5.475737    134.88214  0.036026211  0.036943892            4 
  313000   0.77468815   -5.4681042    135.58204  0.036097455  0.036851987            5 
  314000   0.78508469   -5.4825329    136.01545  0.036097518  0.036761586            7 
  315000   0.76659395   -5.4789799    135.97374   0.03597189  0.036671397            9 
  316000   0.77549743   -5.5016425    135.99612  0.035863955  0.036581619            5 
  317000   0.76148267   -5.4866851    136.11153  0.035781158  0.036491093           18 
  318000    0.7704681   -5.4833528    136.15524  0.035680094  0.036400454            6 
  319000   0.77374422   -5.5038996    136.45249  0.035645896  0.036309571            4 
  320000   0.76845353   -5.4910303     136.7283  0.035606329   0.03621953           18 
  321000   0.73825293   -5.4882412    136.63261  0.035470564  0.036129074           10 
  322000    0.7670672   -5.5089653    137.09555  0.035480215  0.036039035            6 
  323000   0.75313602   -5.4943708    136.82772  0.035301269  0.035948761            6 
  324000   0.73777144   -5.5191808    137.05832  0.035251625  0.035858473            2 
  325000   0.75585373   -5.5100482    137.45525  0.035244936  0.035769309            7 
  326000   0.74550038   -5.5349912    137.39312  0.035120941  0.035680914            6 
  327000   0.73017746   -5.5565134    137.27141  0.034982521  0.035590922            8 
  328000    0.7483345   -5.5190928    137.77564  0.035003974   0.03550105            7 
  329000    0.7356279   -5.5348044    137.59813  0.034852616  0.035411398            5 
  330000   0.74394888   -5.5216822    137.68747  0.034769563   0.03532165            9 
  331000   0.73639546   -5.5296525    137.25208  0.034554903  0.035231244           11 
  332000   0.72267775   -5.5317113    137.52796   0.03452007  0.035141047            6 
  333000   0.73011421   -5.5480267    138.05489  0.034548271  0.035051547            4 
  334000   0.73113854   -5.5469429    138.25026  0.034493579  0.034962546            4 
  335000   0.72654963   -5.5609812    138.65785  0.034492002  0.034874323           10 
  336000   0.73928597   -5.5760409    138.45569  0.034339208   0.03478622           18 
  337000   0.73083029   -5.5809753    138.38604   0.03422009   0.03469883            6 
  338000   0.71193485    -5.598133    138.26489  0.034088976  0.034610787            9 
  339000   0.74647776   -5.5731418    138.56271  0.034061629  0.034522477           14 
  340000   0.71197007   -5.5686051    139.27783  0.034136724  0.034434826            8 
  341000   0.72442755   -5.5700418    138.94924  0.033956314  0.034347513            8 
  342000   0.73173731   -5.5831863    139.23364  0.033926327  0.034261171            9 
  343000   0.73414925   -5.5799686    139.20352  0.033820097  0.034174792           13 
  344000   0.71885015   -5.6050363    139.51063  0.033796179  0.034089213            8 
  345000   0.71014517   -5.5941895    139.63238  0.033727627  0.034003043           15 
  346000    0.7157204   -5.5962636    139.58158  0.033617914   0.03391653            5 
  347000   0.72250594   -5.6113096    139.10923  0.033407595  0.033829965            5 
  348000   0.71501317   -5.6111522    139.60943  0.033431377  0.033742548            7 
  349000    0.7157422   -5.6214643    139.74928  0.033368979  0.033655465            6 
  350000   0.72026336   -5.6213904    139.67501  0.033255955   0.03356814            9 
  351000   0.69655204   -5.6266815    139.11784  0.033028927  0.033481106            8 
  352000   0.69843625   -5.6462371    139.74707  0.033084059  0.033394068            8 
  353000    0.7018314   -5.5983733    140.10595  0.033075059  0.033307924           10 
  354000   0.71292268   -5.6057188    139.87743  0.032927831  0.033221519            5 
  355000   0.72841244   -5.6266617    140.02162  0.032868925  0.033135019            6 
  356000   0.70524405   -5.6355481     139.9002  0.032748175  0.033048634           10 
  357000   0.68330466   -5.6427702    140.23981  0.032735717  0.032961837           10 
  358000   0.69528245   -5.6258764    140.63376  0.032735977  0.032875919           15 
  359000    0.6881085   -5.6439332    140.14329   0.03253094  0.032790345           13 
  360000   0.68214946   -5.6230526    140.73801  0.032578243  0.032704909            7 
  361000   0.70362027   -5.6239855     140.4091  0.032412073  0.032619875            9 
  362000    0.6919081   -5.6531857    140.25882  0.032287941  0.032534627           10 
  363000   0.68441014    -5.641265    140.04722  0.032150418    0.0324494           11 
  364000   0.67827455   -5.6441002    140.92449  0.032262933  0.032364225           11 
  365000   0.68272839   -5.6396794    140.88596  0.032165744  0.032278598           10 
  366000   0.66875975   -5.6761545    140.36745  0.031959802   0.03219281            5 
  367000    0.6798059   -5.6855397    140.58518  0.031922157  0.032107729           23 
  368000   0.67308427   -5.6778142    140.90913  0.031908771  0.032023178            6 
  369000   0.66883354   -5.6576469    140.94721  0.031830897  0.031938705           11 
  370000   0.68557697   -5.6539967    141.44742  0.031857526   0.03185556            5 
  371000   0.67508013   -5.6568384    141.24924  0.031727142  0.031773071            9 
  372000   0.66573881   -5.6740507    141.67799  0.031737901  0.031690829            8 
  373000   0.67861566   -5.6883816    141.26088  0.031559626  0.031608442            6 
  374000   0.66840181   -5.7066399    141.31289   0.03148683  0.031525743            5 
  375000   0.67173032   -5.6953094    141.39014  0.031420031  0.031442924            7 
  376000   0.67004509   -5.7056775    141.68876   0.03140265  0.031361061           10 
  377000   0.65755364   -5.6829944    141.52646  0.031283479  0.031278795            4 
  378000   0.66349468    -5.703192    141.68874  0.031236495  0.031196792            9 
  379000   0.64038989   -5.7042054    141.89303  0.031198994  0.031115351           12 
  380000   0.65866342    -5.699973    141.85133  0.031107748  0.031033783           16 
  381000   0.65030836   -5.7228611    141.96346  0.031050626   0.03095265           23 
  382000   0.64759402   -5.7082615    141.92043  0.030959955  0.030872082            6 
  383000   0.66005454   -5.7267813    142.08366  0.030914634  0.030791542           17 
  384000   0.65517001   -5.7524778    141.98111  0.030811872  0.030710598            8 
  385000   0.65725382   -5.7195229    142.36579  0.030815106  0.030629886            9 
  386000   0.66070972   -5.7435784    142.22979  0.030705914  0.030549134           13 
  387000   0.65175502   -5.7808769    141.81666   0.03053761  0.030468403           21 
  388000   0.65222661   -5.7644577    142.38883  0.030581794  0.030387806           23 
  389000   0.64866734   -5.7330097    142.54664  0.030536983   0.03030774           24 
  390000   0.63915966   -5.7399314    142.38384  0.030423897  0.030228001            7 
  391000   0.64956082   -5.7314725    142.68375  0.030410006  0.030148925           30 
  392000   0.65555469   -5.7733294    142.55239  0.030304505  0.030069699           14 
  393000   0.62795503   -5.7730418    142.69247  0.030257098   0.02999035           10 
  394000   0.64492713    -5.772517    142.33295  0.030104263  0.029910774           12 
  395000   0.64707692   -5.7764168      142.319  0.030025105  0.029831484           13 
  396000   0.63289215   -5.8040476    142.55373  0.029998681  0.029752232           10 
  397000   0.61510855   -5.8271486    142.07647  0.029822936  0.029672753           18 
  398000   0.63172593    -5.791256    142.70163  0.029878901  0.029593555           25 
  399000    0.6209748   -5.7976238    142.59948  0.029782682   0.02951396           22 
  400000   0.63839833   -5.8135005     142.2786  0.029641376  0.029434676           58 
  401000   0.63066583   -5.8239266     142.5783  0.029629739  0.029355469           97 
  402000   0.61753086   -5.8144289    142.60687  0.029561954  0.029276565           24 
  403000   0.61747482   -5.8058584       142.75  0.029518196  0.029198007           11 
  404000   0.63391375   -5.7984225    143.05959  0.029508991  0.029120088            6 
  405000    0.6230764   -5.8032391    142.78225  0.029379063   0.02904194           13 
  406000   0.62294509   -5.8164292    142.46129  0.029240823  0.028963688           12 
  407000   0.62533271   -5.8282019    142.53544  0.029184161  0.028885586           18 
  408000   0.61489461   -5.8336182    142.75075  0.029156607  0.028807179            6 
  409000   0.61756445      -5.8162    142.70279  0.029075547  0.028729049           10 
  410000   0.60724687    -5.820814    142.62036  0.028987879  0.028651166            7 
  411000   0.61205261    -5.822997    142.83986  0.028961853  0.028573723           15 
  412000   0.61510953    -5.825229    143.02077   0.02892815  0.028496437            5 
  413000   0.60568047   -5.8417531    142.89482  0.028832692   0.02841925            7 
  414000    0.6000812   -5.8348883    142.70685  0.028725211  0.028342118           12 
  415000   0.59760383   -5.8469409    142.81397  0.028677504  0.028264812           15 
  416000   0.59340127   -5.8295975    142.87812  0.028621418  0.028187917           12 
  417000   0.58667482   -5.8547793    142.53783  0.028484777   0.02811101           13 
  418000   0.60143838   -5.8500039    142.54213   0.02841749  0.028033536           13 
  419000    0.5984832    -5.863497    142.93083  0.028426976  0.027956457           14 
  420000   0.59395001   -5.8801323    142.39378  0.028252734  0.027879455           14 
  421000   0.60166144   -5.8830667      142.267   0.02816053  0.027802657           21 
  422000   0.59946727   -5.8930763    142.47691   0.02813525  0.027725487           19 
  423000   0.57735528   -5.8865729    142.51011  0.028075278  0.027648492           25 
  424000   0.59389914   -5.9062235    142.48203  0.028003543   0.02757178           21 
  425000     0.585356   -5.9063521    142.67973  0.027976417  0.027495169           19 
  426000   0.58397117   -5.8718664    142.93294  0.027960279  0.027419109           26 
  427000   0.58063856   -5.8967763    142.64596  0.027838789  0.027343219           26 
  428000    0.5958515   -5.9322411    142.27282  0.027701095  0.027267553           31 
  429000   0.59162808   -5.9252247    142.63126   0.02770615  0.027191682           57 
  430000   0.57614055   -5.9087498    142.37251  0.027591571  0.027115942           32 
  431000   0.58198371   -5.9225922    142.61542  0.027574521   0.02704042           30 
  432000   0.57838229   -5.9102745    142.18627  0.027427907  0.026964754           10 
  433000   0.59191826   -5.9045201    142.79199  0.027481138   0.02688957           14 
  434000   0.57078961   -5.9065735    142.94256  0.027446728  0.026814748           21 
  435000   0.58053976   -5.9303275    142.44355  0.027288036  0.026739791           24 
  436000   0.56971005   -5.9300659    142.44447  0.027225626    0.0266649           24 
  437000   0.58286865   -5.9271648    142.37303    0.0271497  0.026589969           11 
  438000   0.55909665   -5.9613884    142.49683  0.027111269  0.026515161           30 
  439000   0.55148954   -5.9107855    142.61491  0.027071927  0.026440464           22 
  440000    0.5659736   -5.9246615    142.74022  0.027034133  0.026366229           21 
  441000    0.5623321   -5.9539176    142.40411  0.026909318   0.02629193           43 
  442000   0.56433899   -5.9787491    142.17645  0.026805515  0.026217595           24 
  443000   0.56609585   -5.9317711    142.38171  0.026783617   0.02614345           19 
  444000   0.56279485   -5.9614125    142.18336  0.026686065  0.026069227           22 
  445000   0.56603594   -5.9578867    142.35006  0.026657314  0.025995414           23 
  446000   0.55883843   -5.9562958     142.5755  0.026639668  0.025921598           48 
  447000   0.55417335   -5.9799933     142.4499  0.026556655  0.025848129           25 
  448000   0.56132891    -5.998421    142.12825  0.026437547  0.025774765           29 
  449000    0.5571986   -6.0061037    142.31183  0.026412738  0.025701499           31 
  450000   0.52866254   -5.9690358    142.44308  0.026378347  0.025628576           27 
  451000   0.54578797   -6.0085042    142.39568  0.026311101  0.025555799           32 
  452000   0.54860214   -5.9894027    142.33932  0.026242501  0.025483099           25 
  453000   0.54356341   -6.0097778    141.81093  0.026087368  0.025410345           61 
  454000   0.53655124   -6.0069636    141.94069  0.026053725  0.025337757           52 
  455000   0.55060092   -6.0005267    142.41375  0.026083105  0.025265407           44 
  456000   0.53496524   -6.0231032    141.65086  0.025886488  0.025193191           95 
  457000   0.53204766   -6.0361736    142.35673  0.025958558   0.02512089           23 
  458000    0.5380129   -6.0128212    142.10207  0.025855544  0.025048712           40 
  459000   0.53178945   -6.0352105    142.08764  0.025796595  0.024976795           50 
  460000   0.52938958    -6.030168    141.90594  0.025707598  0.024904919           55 
  461000   0.53124854   -6.0339998    141.83599  0.025639188  0.024833297           47 
  462000   0.53403079   -6.0423198    141.87279  0.025590331  0.024761887           17 
  463000   0.53435073   -6.0489105    141.93353  0.025545992  0.024690518           31 
  464000   0.51329064   -6.0418762    141.85626  0.025477058  0.024619423           33 
  465000    0.5258045   -6.0575648    141.90689  0.025431342  0.024548382           33 
  466000   0.52791933   -6.0485912    141.64344  0.025329656  0.024477538           31 
  467000   0.52788533    -6.048484    141.90286   0.02532171  0.024406962           58 
  468000    0.5243338   -6.0632373    141.59424   0.02521265  0.024336271           26 
  469000   0.52061987   -6.0756921    141.67785  0.025173748  0.024265629           27 
  470000   0.50698873   -6.0713191    141.60933  0.025108037  0.024195103           34 
  471000   0.50754828   -6.0630757    141.29574  0.024999246  0.024124914           33 
  472000   0.50891687   -6.0725234    141.63295  0.025005818  0.024054896          150 
  473000   0.51339281   -6.0585168    141.70304    0.0249653  0.023985093          104 
  474000   0.51811102   -6.0734561    141.46963  0.024871595  0.023915602          106 
  475000   0.51326555   -6.0851623    141.39946  0.024806922  0.023846226           57 
  476000   0.49731254    -6.098748    141.52334  0.024776495  0.023777036          105 
  477000   0.50671972    -6.091462    141.48049  0.024717067  0.023707938          137 
  478000   0.49582574   -6.0889379    141.43275  0.024657034  0.023639178           75 
  479000   0.49103275   -6.0967672    141.48098  0.024613948  0.023570573           86 
  480000    0.5023045   -6.1022977    141.33384  0.024537125  0.023502146          103 
  481000   0.50873667   -6.0920749    141.52125  0.024518581  0.023433954           43 
  482000     0.511775   -6.1041365    141.27902  0.024425834  0.023365799           38 
  483000    0.5108172   -6.1109988    141.30153  0.024379147   0.02329777          118 
  484000   0.49868856    -6.124888     141.1445  0.024301739  0.023229963          166 
  485000   0.49321053   -6.1110751    141.25871  0.024271257   0.02316219          138 
  486000    0.4983415   -6.1346921    141.09579   0.02419338  0.023094623          141 
  487000   0.48668554    -6.103093    141.54165  0.024219995  0.023027176           92 
  488000   0.49011158   -6.1384399      141.053  0.024086919  0.022959929          202 
  489000   0.48333639   -6.1095899    141.16875  0.024057387  0.022892772          152 
  490000   0.47925293   -6.1257981    141.03992  0.023986381  0.022825816          151 
  491000   0.48117402   -6.1425532    141.11481  0.023950239  0.022758944          206 
  492000   0.48028682   -6.1311308    140.98989  0.023880401  0.022692335          136 
  493000   0.48861754   -6.1335391    140.80098   0.02380003  0.022625953           72 
  494000   0.48604638   -6.1368209    141.15891  0.023812232  0.022559735           78 
  495000   0.48695657   -6.1478285    141.08142  0.023751081    0.0224937          108 
  496000   0.47007701   -6.1730678    140.97003  0.023684481  0.022427818           84 
  497000   0.48365737   -6.1541974      140.474  0.023553655  0.022362075          174 
  498000   0.47102971   -6.1602591    141.13598  0.023617132  0.022296491          117 
  499000   0.47058241   -6.1598103    140.78768  0.023511637  0.022231056          247 
  500000   0.45818222   -6.1813813    140.61753  0.023436256  0.022165767          180 
  501000   0.46610378   -6.1691112    140.69687  0.023402674   0.02210073          213 
  502000   0.46550339   -6.1751407    140.89682  0.023389247   0.02203595          165 
  503000   0.45932075   -6.1686781    140.69643  0.023309548  0.021971233          188 
  504000   0.46652343   -6.1819021    140.72016  0.023267223  0.021906847           52 
  505000    0.4605577   -6.1815187    140.58393  0.023198668  0.021842795          240 
  506000   0.45298817     -6.17448    140.49493  0.023138163  0.021778849          180 
  507000   0.47037889    -6.187073    140.59982  0.023109766  0.021715083          218 
  508000   0.46475807   -6.1780335    140.49982   0.02304787  0.021651485          261 
  509000   0.46137715   -6.1830977    140.64142  0.023025772  0.021588028          200 
  510000    0.4609556   -6.1896445    140.45147  0.022949587  0.021524704          180 
  511000   0.45696271   -6.1960713    140.23509  0.022869388  0.021461652           84 
  512000    0.4485401   -6.1916485    140.25581  0.022828095  0.021398713          197 
Loop time of 1273.48 on 48 procs for 500000 steps with 4000 atoms

Performance: 67845.702 tau/day, 392.626 timesteps/s
99.4% CPU use with 48 MPI tasks x no OpenMP threads

MPI task timing breakdown:
Section |  min time  |  avg time  |  max time  |%varavg| %total
---------------------------------------------------------------
Pair    | 87.163     | 95.665     | 104.44     |  36.7 |  7.51
Neigh   | 8.5977     | 8.9782     | 9.3783     |   6.5 |  0.71
Comm    | 81.747     | 90.26      | 100.19     |  38.9 |  7.09
Output  | 0.89797    | 0.89904    | 0.92483    |   0.4 |  0.07
Modify  | 1061.7     | 1065       | 1069.4     |   5.9 | 83.63
Other   |            | 12.67      |            |       |  0.99

Nlocal:        83.3333 ave          88 max          77 min
Histogram: 2 3 1 4 11 6 3 8 2 8
Nghost:        2355.85 ave        2377 max        2334 min
Histogram: 4 2 5 8 3 6 8 5 4 3
Neighs:        16171.5 ave       18959 max       13426 min
Histogram: 3 2 7 3 8 8 7 6 3 1
FullNghs:      32344.3 ave       34542 max       30088 min
Histogram: 5 0 4 8 8 4 8 4 4 3

Total # of neighbors = 1552526
Ave neighs/atom = 388.13150
Neighbor list builds = 26895
Dangerous builds = 0

#clear
#
#next RN
#
#jump SELF
Total wall time: 0:21:17
