
units lj                  # Use reduced LJ style units
atom_style atomic         # Uncharged point particles
atom_modify map hash      # Needed for indexing of clusters etc
                          # Used to be able to find where atoms are in relation to each other.

lattice fcc 1.0 spacing 1 1 1
Lattice spacing in x,y,z = 1.5874011 1.5874011 1.5874011
region box block 0 10 0 10 0 10 units lattice
create_box 2 box
Created orthogonal box = (0.0000000 0.0000000 0.0000000) to (15.874011 15.874011 15.874011)
  3 by 4 by 4 MPI processor grid
create_atoms 1 box
Created 4000 atoms
  using lattice units in orthogonal box = (0.0000000 0.0000000 0.0000000) to (15.874011 15.874011 15.874011)
  create_atoms CPU = 0.003 seconds
set type 1 type/fraction 2 0.72 78393
Setting atom values ...
  2894 settings made for type/fraction
mass 1 1.0
mass 2 1.0
pair_style lj/cut  3.5
pair_modify tail  yes
pair_coeff 1  1  1.0  1.0   # Intearaction between 1 and 1 set with epsilon = 1 and sigma = 1
pair_coeff 1  2  1.5  0.8
pair_coeff 2  2  0.5  0.88

write_data data.0
System init for write_data ...
Neighbor list info ...
  update every 1 steps, delay 10 steps, check yes
  max neighbors/atom: 2000, page size: 100000
  master list distance cutoff = 3.8
  ghost atom cutoff = 3.8
  binsize = 1.9, bins = 9 9 9
  1 neighbor lists, perpetual/occasional/extra = 1 0 0
  (1) pair lj/cut, perpetual
      attributes: half, newton on
      pair build: half/bin/atomonly/newton
      stencil: half/bin/3d
      bin: standard
WARNING: Not all mixed pair coeffs generated from mixing. Use write_data with 'pair ij' option to store all pair coeffs. (../write_data.cpp:312)


#############################
#   M E L T   S Y S T E M   #
#############################

velocity all create 2.4 3143649 mom yes dist gaussian # Assign velocities
                                                    # Temperature 2.4, random number seed, zero linear momentum
                                                                                # Gaussian distribution

timestep 0.002   # simulation timestep
thermo 1000       # output thermodynamic data every 1000 steps bf 100

# Define a fix  in this case with index 1 applied to all
# particles in the simulation. This fix is for simulations
# in the anisotropic NPT ensemble. Note that we use the MTK
# correction.
fix 1 all npt temp 2.4 2.4 0.1 iso 5.68 5.68 0.5 mtk yes tchain 5 pchain 5 # Use NPT ensemble
                                                                         # Set temperature and pressure and damping
                                                                         # Numbers of thermostats in chain and in barostat
run 10000          # run for 10000 steps
Per MPI rank memory allocation (min/avg/max) = 3.642 | 3.644 | 3.648 Mbytes
Step Temp E_pair E_mol TotEng Press Volume 
       0          2.4   -4.0785584            0  -0.47945841   -3.6688173         4000 
    1000    2.4044806   -3.6311611            0 -0.025341774    5.5094521    3703.6213 
    2000    2.4381022   -3.5862475            0  0.069991457    5.7458591    3718.2961 
    3000    2.3937323   -3.6217084            0  -0.03200751     5.730533    3699.8043 
    4000    2.4579414   -3.6314796            0  0.054510801    5.9265006    3675.4455 
    5000    2.4097078   -3.6296845            0 -0.016026415    5.8868323     3672.501 
    6000    2.3650794   -3.6455814            0 -0.098849205    5.4341131     3696.414 
    7000    2.4263468   -3.6361199            0 0.0024903663    5.8714569    3674.0874 
    8000    2.4194514   -3.6764354            0  -0.04816565    5.6549054    3666.3902 
    9000    2.4446951   -3.5782331            0  0.087892847    5.8028938    3725.6451 
   10000    2.3712164   -3.6819955            0  -0.12606014    5.4735822    3676.8104 
Loop time of 2.76067 on 48 procs for 10000 steps with 4000 atoms

Performance: 625934.594 tau/day, 3622.307 timesteps/s
99.5% CPU use with 48 MPI tasks x no OpenMP threads

MPI task timing breakdown:
Section |  min time  |  avg time  |  max time  |%varavg| %total
---------------------------------------------------------------
Pair    | 1.1783     | 1.2544     | 1.4209     |   3.2 | 45.44
Neigh   | 0.21562    | 0.22391    | 0.24618    |   1.0 |  8.11
Comm    | 0.73105    | 0.91928    | 0.99481    |   5.1 | 33.30
Output  | 0.00024893 | 0.000254   | 0.0003237  |   0.0 |  0.01
Modify  | 0.29778    | 0.34749    | 0.38434    |   4.0 | 12.59
Other   |            | 0.01534    |            |       |  0.56

Nlocal:        83.3333 ave          94 max          75 min
Histogram: 2 9 4 6 7 9 3 6 0 2
Nghost:        1739.25 ave        1771 max        1717 min
Histogram: 4 6 7 7 5 9 3 4 2 1
Neighs:        10387.0 ave       11887 max        9383 min
Histogram: 7 6 5 9 6 4 4 4 0 3

Total # of neighbors = 498575
Ave neighs/atom = 124.64375
Neighbor list builds = 909
Dangerous builds = 220

# Equilibrate just above the melting temperature to avoid step fn in T

fix 1 all npt temp 1.25 1.25 0.1 iso 5.68 5.68 0.5 mtk yes tchain 5 pchain 5
run 2000
Per MPI rank memory allocation (min/avg/max) = 3.644 | 3.646 | 3.649 Mbytes
Step Temp E_pair E_mol TotEng Press Volume 
   10000    2.3712164   -3.6819955            0  -0.12606014    5.4735822    3676.8104 
   11000    1.2445249    -5.403853            0   -3.5375324    5.5400423    2809.9025 
   12000    1.2312438   -5.4234101            0    -3.577006    5.5757721    2796.7233 
Loop time of 0.667609 on 48 procs for 2000 steps with 4000 atoms

Performance: 517668.525 tau/day, 2995.767 timesteps/s
99.6% CPU use with 48 MPI tasks x no OpenMP threads

MPI task timing breakdown:
Section |  min time  |  avg time  |  max time  |%varavg| %total
---------------------------------------------------------------
Pair    | 0.30751    | 0.3229     | 0.38623    |   2.2 | 48.37
Neigh   | 0.042481   | 0.044189   | 0.051034   |   0.6 |  6.62
Comm    | 0.18356    | 0.25197    | 0.27267    |   2.9 | 37.74
Output  | 5.2107e-05 | 5.319e-05  | 6.8526e-05 |   0.0 |  0.01
Modify  | 0.038225   | 0.043622   | 0.047454   |   1.4 |  6.53
Other   |            | 0.004878   |            |       |  0.73

Nlocal:        83.3333 ave          92 max          75 min
Histogram: 1 0 10 3 14 5 8 3 3 1
Nghost:        2101.27 ave        2126 max        2071 min
Histogram: 1 1 3 5 8 9 11 5 2 3
Neighs:        13644.2 ave       14885 max       11885 min
Histogram: 1 1 5 4 5 9 6 5 7 5

Total # of neighbors = 654922
Ave neighs/atom = 163.73050
Neighbor list builds = 144
Dangerous builds = 9

#############################
# L I N E A R  Q U E N C H  #
#############################

# Define solid atoms. This closely follows ten Wolde  Ruiz-Montero and Frenkel  Faraday Discuss  1996  104  93-110
# Compute components of the per-atom q6 vector
compute q6 all orientorder/atom degrees 1 6 components 6 nnn NULL cutoff 1.3 # compute the Q6 parameter.
                                                                             # Use all neighbours within 1.3 unit cell.

# get number of connections
compute coord_number all coord/atom orientorder q6 0.5

# An atom is solid if it has 8 or more connections (of a possible 14)
variable is_solid atom c_coord_number>=8
group solid dynamic all var is_solid    # Must be dynamic to update
dynamic group solid defined

# do clustering
compute cluster solid cluster/atom 1.3 # Create a cluster where all atoms within are solid and max 1.3 units from another member

# define chunks one chunk per cluster
compute clus_chunks solid chunk/atom c_cluster nchunk every compress yes  # Says which atoms are in which chunk

# count the size of each chunk
compute size_chunks solid property/chunk clus_chunks count


# Find the maximum entry in the vector of chunk sizes
variable max_n equal max(c_size_chunks)


# Thermo style which includes this variable
# thermo_style custom step temp pe vol v_max_n

thermo ${N}  # Print the thermo information every 100 steps
thermo 1000  

# Reset the npt fix at a lower temperature (below freezing)
fix 1  all npt temp  ${temp} ${temp}  0.1  iso  5.68  5.68  0.5  mtk yes tchain  5  pchain  5
fix 1  all npt temp  0.45 ${temp}  0.1  iso  5.68  5.68  0.5  mtk yes tchain  5  pchain  5
fix 1  all npt temp  0.45 0.45  0.1  iso  5.68  5.68  0.5  mtk yes tchain  5  pchain  5

dump dmp2 all dcd ${N} traj.dcd
dump dmp2 all dcd 1000 traj.dcd


compute msd all msd com yes
variable twopoint equal c_msd[4]/6/(step*dt+1.0e-6)
fix 9 all vector 10 c_msd[4]
variable fit equal slope(f_9)/6/(10*dt)
thermo_style custom step temp pe c_msd[4] v_twopoint v_fit v_max_n

fix 1 all npt temp 1.25 ${temp} 0.1 iso 5.68 5.68 0.5 mtk yes tchain 5 pchain 5
fix 1 all npt temp 1.25 0.45 0.1 iso 5.68 5.68 0.5 mtk yes tchain 5 pchain 5
run 5000000 # 5000000  # Run for this many steps
Neighbor list info ...
  update every 1 steps, delay 10 steps, check yes
  max neighbors/atom: 2000, page size: 100000
  master list distance cutoff = 3.8
  ghost atom cutoff = 3.8
  binsize = 1.9, bins = 8 8 8
  4 neighbor lists, perpetual/occasional/extra = 1 3 0
  (1) pair lj/cut, perpetual
      attributes: half, newton on
      pair build: half/bin/atomonly/newton
      stencil: half/bin/3d
      bin: standard
  (2) compute orientorder/atom, occasional
      attributes: full, newton on
      pair build: full/bin/atomonly
      stencil: full/bin/3d
      bin: standard
  (3) compute coord/atom, occasional
      attributes: full, newton on
      pair build: full/bin/atomonly
      stencil: full/bin/3d
      bin: standard
  (4) compute cluster/atom, occasional
      attributes: full, newton on
      pair build: full/bin/atomonly
      stencil: full/bin/3d
      bin: standard
Per MPI rank memory allocation (min/avg/max) = 9.845 | 9.850 | 9.855 Mbytes
Step Temp PotEng c_msd[4] v_twopoint v_fit v_max_n 
   12000    1.2312438   -5.4234101 7.7268926e-31 5.3658974e-33 8.3333333e+20            2 
   13000    1.2303311   -5.4279832   0.63592714 0.0040764559  0.052407282            2 
   14000    1.2459382   -5.4069233    1.2962136 0.0077155567  0.053443168            2 
   15000    1.2448343   -5.4519455    1.9029929  0.010572182  0.053457542            3 
   16000    1.2402907   -5.4236548    2.4799043  0.012916168  0.051969874            1 
   17000    1.2422996   -5.4233846    3.1001069  0.015196602  0.051400119            2 
   18000    1.2447709   -5.4482427    3.6371988  0.016838883  0.050838174            2 
   19000    1.2417681    -5.422978    4.2696921  0.018726719  0.050333911            4 
   20000      1.22731    -5.456852    4.8235613  0.020098172  0.050015825            4 
   21000    1.2324987   -5.4393955    5.3977889  0.021419797     0.049765            2 
   22000    1.2508385   -5.4523825    6.0239479  0.022817984   0.04953458            4 
   23000    1.2568096   -5.4165143    6.7417677  0.024426694  0.049705594            3 
   24000    1.2426152    -5.466876    7.3726613  0.025599518  0.050134708            5 
   25000    1.2683333   -5.4189034    7.9816516  0.026605505  0.050362773            2 
   26000    1.2617327   -5.4088162    8.6550689  0.027740605  0.050580833            2 
   27000    1.2398081   -5.4450239     9.350458  0.028859438  0.050957395            1 
   28000    1.2349488   -5.4042255    9.8994515  0.029462653  0.051093916            2 
   29000    1.2391544   -5.4281799    10.571228  0.030377092  0.051240547            4 
   30000    1.2829733   -5.4212981    11.216076  0.031155765   0.05140627            3 
   31000     1.250006   -5.4241574    11.719808  0.031504859  0.051502792            2 
   32000    1.2520364   -5.4271405    12.293407  0.032014081  0.051500041            2 
   33000    1.2610517   -5.4268391    13.176965  0.033275164  0.051592123            2 
   34000    1.2676548   -5.4350663    13.721019  0.033629949  0.051729597            4 
   35000    1.2162147   -5.4632366    14.335007  0.034130969  0.051820329            3 
   36000    1.2637698   -5.3814392    14.937916   0.03457851  0.051858115            2 
   37000    1.2564959   -5.4430961    15.490681  0.034888921  0.051902753            3 
   38000    1.2565595   -5.4601032    16.117663  0.035345753  0.051922337            7 
   39000    1.2393104   -5.4430806    16.652941  0.035583207  0.051906509            2 
   40000    1.2605453   -5.4349419    17.335792  0.036116232  0.051892076            4 
   41000    1.2272518   -5.4389492    17.937614  0.036458565  0.051879345            2 
   42000    1.2482033   -5.4486208    18.476389  0.036659502  0.051815275            2 
   43000    1.2755417   -5.4363834    19.169495  0.037150183  0.051780374            2 
   44000    1.2363829   -5.4194341    19.907976    0.0377045  0.051768366            3 
   45000    1.2381867   -5.4375525    20.639454   0.03822121  0.051807937            2 
   46000    1.2317142   -5.4726866    21.231162   0.03846225   0.05187948           11 
   47000    1.2364882   -5.4324068    21.937692  0.038896617  0.051945087            2 
   48000    1.2359599   -5.4119376    22.702294  0.039413704  0.052015203            1 
   49000    1.2283075   -5.4402331    23.235522  0.039516194  0.052080799            2 
   50000    1.2406832   -5.4223165    23.958334  0.039930556    0.0521856            2 
   51000    1.2388836   -5.4160591    24.546593  0.040108812  0.052257144            1 
   52000    1.2421802   -5.4369921    25.120401  0.040257053  0.052282185            1 
   53000     1.247309   -5.4413881    25.680441  0.040378051  0.052323375            2 
   54000    1.2534653   -5.4121685     26.43772  0.040798951  0.052370886            2 
   55000    1.2295926   -5.4108017    27.145369  0.041129346  0.052422583            1 
   56000    1.2329889   -5.4319485    27.574455  0.041033415  0.052446495            1 
   57000    1.2360492    -5.408579     27.94701  0.040858202  0.052407776            5 
   58000     1.217293   -5.4677916    28.457843  0.040887706  0.052320252            1 
   59000    1.2568071   -5.5091122    28.770968   0.04063696  0.052228373            5 
   60000    1.2583311   -5.4110626    29.457846  0.040913675  0.052109042            4 
   61000    1.2362625    -5.437467    29.875277   0.04081322  0.051999833            1 
   62000    1.2598345    -5.422716    30.465597  0.040948383   0.05187684            5 
   63000    1.2345393   -5.4451794    31.099339  0.041136691  0.051756259            6 
   64000    1.2636797   -5.4631738    31.759064  0.041352947  0.051669936            1 
   65000    1.2411574   -5.4479809    32.320791  0.041436911  0.051571909            2 
   66000    1.2499785   -5.4395767    32.843143  0.041468614  0.051482154            5 
   67000    1.2472196   -5.4502612    33.583086  0.041770007  0.051399136            3 
   68000    1.2649133    -5.455127    34.035564  0.041710249  0.051328795            1 
   69000    1.2307624   -5.4670091    35.018758  0.042293185  0.051286662            2 
   70000     1.246486   -5.4450459    35.646816  0.042436686  0.051270344            1 
   71000    1.2602108   -5.4091043    36.346438  0.042660138  0.051252743            2 
   72000    1.2110573   -5.3938246    36.858466  0.042660261  0.051227025            2 
   73000       1.2531   -5.4370244    37.404996  0.042699766  0.051201593            1 
   74000    1.2452321   -5.4600338    38.040184  0.042838045  0.051190581            3 
   75000    1.2334252   -5.4350266    38.871899  0.043190999  0.051183822            4 
   76000    1.2583607   -5.4397765    39.397684  0.043199215  0.051179433            3 
   77000    1.2475784   -5.4896492    39.931647  0.043216068  0.051179096            4 
   78000    1.2266098   -5.4612586    40.704279  0.043487477  0.051177249            1 
   79000    1.2204851   -5.4300585    41.421917  0.043694005  0.051188724            4 
   80000    1.2287744   -5.4301063    42.067928  0.043820758  0.051205359            2 
   81000    1.2492914   -5.4605249    42.569804  0.043796094  0.051212352            1 
   82000    1.2276953   -5.4268067    43.353571  0.044058507  0.051221186            2 
   83000    1.2235306   -5.4513124    44.023866  0.044200668  0.051245217            2 
   84000    1.2041051   -5.4451367    44.655843  0.044301431  0.051269784            2 
   85000    1.2759602    -5.520876    45.229956  0.044343094  0.051295991            3 
   86000    1.2388186    -5.435884    46.176031  0.044744216  0.051328676            4 
   87000    1.2393396   -5.3852199    46.841723   0.04486755  0.051371207            3 
   88000    1.2186165   -5.4448879    47.170093  0.044668648  0.051391321            2 
   89000    1.2470603   -5.4515831    47.584631  0.044554898  0.051395847            2 
   90000    1.2412391   -5.4471389    47.967907  0.044414728  0.051391691            2 
   91000    1.2398035   -5.4624784    48.426187  0.044346325  0.051371777            2 
   92000    1.2165178   -5.4478696    49.069458  0.044446972  0.051354751            3 
   93000     1.263187   -5.4562818    49.927764  0.044738139  0.051344941            4 
   94000    1.2224409   -5.4273476    50.612604   0.04486933  0.051337025            2 
   95000    1.2044977   -5.4877747    50.984864  0.044723565  0.051328941            3 
   96000    1.2320267   -5.4554781    51.897877   0.04505024  0.051315363            1 
   97000    1.2364027   -5.4560918     52.87418  0.045424553  0.051330193            2 
   98000    1.2555026   -5.5025783    53.255321  0.045285137  0.051353621            2 
   99000    1.2248515   -5.3898968     54.54069  0.045909671   0.05138383            2 
  100000    1.2488355   -5.3962162    55.012393   0.04584366  0.051427019            2 
  101000    1.2614281    -5.487859    55.474785  0.045771275  0.051459864            4 
  102000    1.2024422   -5.4843483    56.354259  0.046041061  0.051492117            2 
  103000    1.2463825   -5.4627814    56.714663  0.045885649  0.051519609            2 
  104000    1.2321983   -5.4423733    57.411034  0.046002431  0.051547542            1 
  105000     1.240154   -5.4141284    58.216671  0.046203707  0.051575217            1 
  106000    1.2204328   -5.4471814    58.532669  0.046016249  0.051594961            1 
  107000     1.224717   -5.4717118    58.856117  0.045838097  0.051604313            1 
  108000    1.2491097   -5.4498134     59.83133  0.046166149  0.051602712            2 
  109000    1.2165873   -5.4521852     60.10046  0.045948364  0.051602398            2 
  110000    1.2358872   -5.4299868    60.460871   0.04580369  0.051584917            6 
  111000    1.2516145   -5.4283706    61.079018  0.045855118  0.051577244            1 
  112000    1.2486126    -5.439202    62.008548  0.046137312  0.051576334            5 
  113000    1.2353913   -5.4345549    62.644774  0.046198211  0.051575303            1 
  114000    1.2435984   -5.4684854    62.921327  0.045995122   0.05157859            2 
  115000    1.2272898   -5.4245073    63.703839  0.046162202  0.051582426            2 
  116000    1.2521479   -5.4343595    64.082889  0.046036558  0.051573295            6 
  117000    1.2400864    -5.454873     64.66043  0.046054437  0.051563972            2 
  118000    1.2458911   -5.4425838    65.018599  0.045917089   0.05154025            1 
  119000    1.2517292   -5.4608672    65.276252  0.045711661  0.051513279            2 
  120000     1.234045    -5.457833    66.222903  0.045988127  0.051493223            3 
  121000    1.2275353   -5.4804326    66.609953  0.045874623  0.051467191            1 
  122000    1.2140222   -5.4810275    67.402697  0.046040093  0.051443747            4 
  123000    1.2213916      -5.4848    67.818116  0.045947233  0.051422575            5 
  124000    1.2251172    -5.481074    68.623628  0.046118029  0.051393708            5 
  125000    1.2310674   -5.4686294    69.535098  0.046356732  0.051379796            2 
  126000    1.2577328   -5.4747967    69.919625  0.046243138  0.051376278            3 
  127000    1.2378282    -5.424769    70.869728  0.046502446  0.051369465            2 
  128000    1.2389227   -5.4549894    71.088869  0.046281815  0.051357784            2 
  129000    1.1958749   -5.4311824     72.00117  0.046512384  0.051339399            2 
  130000    1.2383941   -5.4544456    72.309225  0.046352067  0.051320484            5 
  131000    1.2631973   -5.4371982    72.983135   0.04642693  0.051300574            9 
  132000    1.2738435   -5.4489978    73.491678  0.046396261  0.051281401            1 
  133000    1.2164933   -5.4728006    74.236872  0.046514331  0.051271325            1 
  134000    1.2140989   -5.4464522    74.962635  0.046618554  0.051256795            3 
  135000    1.2506785   -5.4920675    75.291913  0.046476489  0.051241754            2 
  136000    1.2426584    -5.480713    76.191576  0.046686015  0.051232089            2 
  137000    1.2380008   -5.4217609     77.31678  0.047029671  0.051229203            2 
  138000    1.2268395   -5.4763205    77.312322  0.046686185  0.051233001            5 
  139000    1.1909722   -5.4431308    78.585675  0.047113714  0.051232615            3 
  140000    1.2300415   -5.4319477    79.257602  0.047177144  0.051236231            3 
  141000    1.2042093   -5.4391756     79.89096  0.047216879  0.051235456            2 
  142000     1.220292   -5.4538904    80.329557  0.047141758  0.051235415            4 
  143000    1.2525467   -5.4471073     80.63648  0.046990955  0.051233871            5 
  144000    1.2377132   -5.4732081    81.169139  0.046972881  0.051227902            2 
  145000    1.2469865   -5.4869556    81.490875  0.046833836  0.051218726            5 
  146000    1.2327221   -5.4517271    82.233665  0.046937023  0.051209622            3 
  147000    1.2648665   -5.4702943    82.868841  0.046977801  0.051203169            3 
  148000    1.1906308   -5.4884449    83.185817  0.046838861  0.051192991            4 
  149000    1.2778351   -5.4645461    83.913454  0.046931462  0.051181296            3 
  150000    1.2259078   -5.4530818    84.921229   0.04717846  0.051172132            1 
  151000    1.2148981    -5.403867     85.17842  0.047007958  0.051160076            2 
  152000    1.2287117   -5.4794102    85.451393  0.046848351  0.051145049            3 
  153000    1.2224173   -5.4573999    85.910792   0.04679237  0.051125882            3 
  154000    1.2232546   -5.4807568    86.159128  0.046622905  0.051104027            1 
  155000    1.2138843   -5.4932956    86.892449   0.04671637  0.051076566            2 
  156000    1.2421208   -5.4953945    87.905138  0.046957872  0.051054564            2 
  157000    1.2122897   -5.4906103    87.998002  0.046708069   0.05103311            1 
  158000    1.2369114   -5.4615483    88.496909  0.046675585  0.051008815            2 
  159000    1.2065666   -5.4749845      89.5869  0.046953302  0.050993237            2 
  160000     1.230489   -5.4667662    90.254098  0.047007343  0.050978757            1 
  161000    1.2215897   -5.5055587    90.761195  0.046977844  0.050962167            2 
  162000    1.2373846   -5.4834552    91.322123  0.046976401   0.05094684            4 
  163000    1.2328133   -5.4815429     92.49432  0.047287485  0.050935161            2 
  164000    1.2408075   -5.4424177    93.479077  0.047499531  0.050927974            4 
  165000    1.2513425   -5.4928711    93.668174  0.047307158  0.050929333            6 
  166000    1.2185594   -5.4511781    94.231669  0.047305055  0.050929608            2 
  167000    1.2029657   -5.4629122    94.906886  0.047358726  0.050931038            2 
  168000    1.2129065   -5.4627521    95.835229  0.047537316  0.050929354            3 
  169000     1.215601   -5.5249441    95.782098  0.047229831  0.050927664            4 
  170000    1.2402798   -5.4812569    96.995822  0.047546971  0.050927271            2 
  171000    1.2127097   -5.4385942     97.88238  0.047700965   0.05093229            1 
  172000    1.2260467   -5.5003013    98.104069  0.047531041  0.050935362            4 
  173000    1.2147108   -5.4424953     98.60156  0.047495934  0.050939698            2 
  174000    1.2295257   -5.4694877    99.523105  0.047664322  0.050943921            2 
  175000    1.2487549   -5.3917576    100.74696  0.047974741  0.050950998            5 
  176000    1.2136147   -5.4988672    100.85807   0.04775477  0.050956116            3 
  177000    1.2471262   -5.4773756    101.34107  0.047712367  0.050961793            5 
  178000    1.2294969     -5.44697    101.71981  0.047621633  0.050959315            7 
  179000    1.2065843   -5.4604038    101.90922  0.047443769  0.050954987            4 
  180000    1.2075244   -5.4876332    102.70839  0.047550182  0.050948857            3 
  181000    1.2331347    -5.462272    103.93327  0.047851415  0.050947408            1 
  182000    1.2155486   -5.4696922    104.24212   0.04772991  0.050948765            2 
  183000    1.2204953   -5.4387532    105.13932  0.047877649  0.050950046            1 
  184000    1.2206235   -5.4297947    105.38158  0.047727167  0.050949231            2 
  185000    1.2315477   -5.5076771    105.67514  0.047601414  0.050941678            2 
  186000    1.2038929   -5.4745442    106.61903  0.047768382  0.050935071            1 
  187000    1.2229485   -5.4722612    106.74884  0.047570783   0.05092831            4 
  188000    1.2562547   -5.4573056    107.51731  0.047658382  0.050923005            2 
  189000    1.2137816   -5.5046521    107.82913   0.04754371  0.050917408            2 
  190000    1.2014653   -5.4360078    108.93003  0.047776331   0.05091383            2 
  191000    1.2226741    -5.486962    109.40563  0.047733697   0.05091024            5 
  192000    1.2237828   -5.4907773    109.93702  0.047715721  0.050905401            4 
  193000    1.2014335   -5.4382911    110.32686  0.047636814  0.050899503            2 
  194000    1.2337334   -5.4507948    111.04634  0.047700316  0.050891059            2 
  195000    1.2021388   -5.5139291    111.25171  0.047543468  0.050880224            2 
  196000    1.2274127   -5.5065935    112.08999  0.047657307  0.050870237            3 
  197000    1.2487595   -5.5387308    112.37772  0.047537107  0.050859832            2 
  198000    1.2251466    -5.484299    113.47628  0.047759376  0.050852878            5 
  199000    1.2335792    -5.465494    114.28001  0.047855952  0.050846419            2 
  200000    1.2224636   -5.5304631    114.45925  0.047691356  0.050842128            3 
  201000    1.2097601    -5.470478    115.94111  0.048068455  0.050840902            3 
  202000    1.2317398   -5.5113153    115.99315  0.047851961  0.050840911            2 
  203000     1.230629   -5.4811031    116.75981  0.047930954   0.05084439            1 
  204000    1.2469811   -5.5033068    117.10515   0.04783707  0.050843873            2 
  205000    1.2423738   -5.4591093    118.52002  0.048178868  0.050842116            2 
  206000    1.2081607   -5.4973316    119.00997   0.04814319  0.050844466            2 
  207000    1.2074294   -5.5124723    118.99712  0.047905441  0.050847303            2 
  208000     1.202399   -5.5035045    119.27877  0.047787969  0.050845555            2 
  209000    1.2024969   -5.5193731    119.64132  0.047703874  0.050841112            2 
  210000    1.2381529   -5.4647408     121.5021  0.048215121   0.05083954            5 
  211000    1.2187296   -5.4603131    121.78914  0.048099977  0.050837173            1 
  212000    1.2026502   -5.4715826    122.17739  0.048025704  0.050835823            2 
  213000    1.2386847   -5.5278667    123.20828  0.048203551  0.050836416            2 
  214000    1.2250431    -5.471631    123.85892  0.048231668  0.050837958            2 
  215000    1.2151681   -5.4944357     123.9452  0.048040775  0.050840178            2 
  216000    1.2194218   -5.5069793    124.79773  0.048147274  0.050840068            2 
  217000    1.2416421   -5.4906491    125.84753  0.048328546  0.050840436            5 
  218000    1.2057599   -5.4919851    125.43808  0.047950335  0.050841128            1 
  219000    1.2263587   -5.4693732    126.67956  0.048203792  0.050838409            3 
  220000       1.2049   -5.5149677    126.56894   0.04794278  0.050832316            6 
  221000    1.1984874   -5.4492597    127.03807  0.047902741  0.050824116            3 
  222000      1.19838   -5.4876734    127.51452  0.047865812  0.050813412            2 
  223000    1.1994075   -5.5355591     128.3503   0.04796349  0.050808089            1 
  224000    1.2205648    -5.512619    128.97564  0.047982011  0.050801851            1 
  225000    1.2317594   -5.4940701    129.48333  0.047956789   0.05079579            4 
  226000    1.2204628   -5.4876826     130.4379  0.048096571  0.050791088            2 
  227000    1.2338277   -5.4633293     131.0295  0.048101873  0.050788023            4 
  228000    1.2233338   -5.4864252    131.42323  0.048034806  0.050782989            2 
  229000    1.2563813   -5.5171594    131.68802  0.047921405   0.05077868            4 
  230000    1.2141208   -5.4718306    132.90673  0.048154613  0.050773538            3 
  231000     1.204611   -5.4940341    133.75456  0.048252005  0.050771325            2 
  232000    1.2013793   -5.4984832    133.84108  0.048075102  0.050766612            1 
  233000    1.2169462   -5.4887179    134.69274  0.048173369   0.05076205            4 
  234000    1.2397746   -5.5151737    135.12625  0.048121885  0.050760585            4 
  235000    1.2234891   -5.5203998    135.71158  0.048124673  0.050758345            2 
  236000    1.2031135   -5.5207522    136.63233   0.04824588  0.050756876            1 
  237000    1.2007703   -5.4801534    137.48759  0.048343036  0.050755395            3 
  238000    1.2415575   -5.4739678     138.5044   0.04849594   0.05076034            1 
  239000    1.2297884   -5.5147888    139.00095  0.048466162  0.050764533            3 
  240000    1.2262763   -5.4020881    140.56624  0.048807722  0.050769835            2 
  241000    1.2285299   -5.5127747    139.24247  0.048147466   0.05077142            3 
  242000    1.2149604   -5.4781695    140.73995  0.048464171  0.050772425            2 
  243000    1.1999921    -5.496514    141.49141  0.048522431  0.050776423            2 
  244000    1.1968764   -5.5132759    142.09395  0.048529353  0.050776948            2 
  245000    1.2421521   -5.4728443    142.08157  0.048327064  0.050777733            1 
  246000    1.2187656   -5.5252854    142.64373  0.048321045  0.050776327            8 
  247000    1.2149175   -5.4780581    144.02845  0.048592595  0.050773137            1 
  248000    1.2175971   -5.5108494    143.79186  0.048317158  0.050769928            3 
  249000     1.218585   -5.4899598    144.11631  0.048231697  0.050768664            3 
  250000    1.2154183   -5.5537365    144.50658  0.048168861   0.05076364            3 
  251000    1.2050564   -5.4621457    145.34692   0.04825595  0.050757723            2 
  252000    1.2186825   -5.5073731    146.08302  0.048307876  0.050752118            2 
  253000    1.2141694   -5.4935254    146.36209  0.048208857  0.050746976            1 
  254000    1.1972929   -5.5194064    146.81268  0.048166891  0.050742358            2 
  255000    1.2395499   -5.5102159    147.58795  0.048231355  0.050734625            2 
  256000    1.2000379   -5.4754765    148.59425  0.048370523   0.05073113            1 
  257000    1.2027386   -5.4808892     149.0253   0.04832208  0.050726561            1 
  258000    1.2092698   -5.4411844    150.23004  0.048523914   0.05072132            1 
  259000    1.1995357   -5.5406601    149.25768  0.048023706  0.050714892            1 
  260000    1.2106471   -5.4707284    150.60976  0.048272358  0.050704922            2 
  261000    1.2350059   -5.5271932    150.65929  0.048103223  0.050694247            5 
  262000    1.2215042   -5.4850809    151.52136  0.048193816  0.050682182            3 
  263000    1.2233872    -5.492385    152.17462  0.048217559  0.050672895            3 
  264000    1.2138991   -5.5061652    152.32085  0.048081076   0.05066287            2 
  265000    1.1901824   -5.5427293    153.09171  0.048142046  0.050653567            2 
  266000      1.20199   -5.5224115     153.3111  0.048029792  0.050642312            3 
  267000    1.2082975   -5.4736732    154.52739  0.048229523  0.050632942            2 
  268000    1.2373537   -5.5021838    154.56958   0.04806268  0.050621584            3 
  269000    1.2442612    -5.519647    154.59391  0.047891546  0.050608598            3 
  270000    1.2407079   -5.5604781     155.1633  0.047889907  0.050594729            3 
  271000     1.198425   -5.5370188    155.00255  0.047663761  0.050578439            4 
  272000    1.2427348   -5.5008329    155.75651  0.047719519   0.05055964            2 
  273000    1.2145045   -5.5180449    156.31765  0.047716009  0.050540469            2 
  274000    1.2198685   -5.4766676    157.26305  0.047829396  0.050521257            2 
  275000    1.1799867   -5.4982812    157.86279   0.04783721  0.050500954            4 
  276000    1.2033831   -5.4764545    157.75022  0.047629898  0.050479364            5 
  277000    1.1978363   -5.4524133    158.27757  0.047616598  0.050458283            3 
  278000    1.1993431    -5.475988    159.37027  0.047772861  0.050437087            2 
  279000    1.2011647   -5.5054306    159.47403  0.047632625  0.050416362            2 
  280000      1.21743    -5.503031    160.36115  0.047726532  0.050397426            3 
  281000    1.2145246   -5.5284939    160.42369  0.047575234  0.050379363            2 
  282000    1.1856901   -5.5100648    161.71498  0.047788115  0.050362842            6 
  283000     1.229152   -5.5626364    162.33308  0.047801261  0.050346423            2 
  284000    1.2200627   -5.5058914    162.46713  0.047672278  0.050328843            5 
  285000    1.1924784   -5.5177697     162.9101  0.047634533  0.050310312            5 
  286000      1.21719   -5.4932547    164.08624  0.047810677  0.050294773            2 
  287000    1.2179138   -5.5467596    164.20379  0.047678219  0.050277929            2 
  288000    1.2173976   -5.4888662      165.983  0.048027487  0.050262289            2 
  289000    1.2074964   -5.5018182    165.26139  0.047653225  0.050249393            2 
  290000    1.2300515   -5.4880799     166.3014  0.047787757  0.050233194            2 
  291000     1.157419   -5.5375682    166.89651  0.047793961  0.050218445            3 
  292000    1.2105376   -5.5183933    167.08219  0.047683274  0.050203466            3 
  293000    1.1935294   -5.4867664    168.70407  0.047981816  0.050189591            4 
  294000    1.1901627   -5.5422243    169.54551  0.048057118   0.05017711            2 
  295000    1.2186157   -5.4978617    168.94228  0.047723807  0.050163772            2 
  296000    1.1774434   -5.5163267     169.6294  0.047756025  0.050149737            3 
  297000    1.2071222   -5.5020784    170.35016  0.047797463  0.050135652            2 
  298000    1.2029526    -5.500976    170.57297  0.047699376  0.050120966            2 
  299000    1.2011234    -5.507405    171.24723  0.047727767   0.05010793            4 
  300000    1.2083612   -5.4937937    172.55503  0.047931953  0.050094848            1 
  301000    1.1975892   -5.5481069    172.46878  0.047748831    0.0500837            4 
  302000    1.2162146   -5.4906363    173.15071  0.047778893  0.050069016            1 
  303000    1.1913359   -5.5362636    173.42949   0.04769788  0.050054392            3 
  304000    1.2075014    -5.487105    174.01321   0.04770099   0.05003969            1 
  305000    1.2183892   -5.4827295    174.50056  0.047677748  0.050026181            4 
  306000    1.1779355   -5.4787832    175.82814  0.047883481  0.050011354            2 
  307000    1.2016753   -5.5361445    175.02836  0.047510413   0.04999567            2 
  308000     1.194916   -5.5245606     175.3929  0.047454789  0.049978614            3 
  309000    1.2172583   -5.5366048    176.32057  0.047551394  0.049963504            2 
  310000    1.1876278   -5.5513185    176.32494  0.047399176  0.049946364            4 
  311000    1.2006093   -5.5371298     176.8381  0.047384271   0.04992873            3 
  312000    1.1892448   -5.5160213    177.90871  0.047518351  0.049909568            2 
  313000    1.1716492   -5.5174604    178.63774  0.047560633  0.049893113            3 
  314000    1.1898012   -5.5428254    179.07482  0.047525165  0.049874091            1 
  315000    1.2053604   -5.5002597    179.28223  0.047429162  0.049857372            1 
  316000    1.2114722   -5.5206818    179.98712  0.047464957  0.049839943            3 
  317000    1.2325618   -5.5942693    179.62817  0.047220865  0.049821808            3 
  318000    1.1977425   -5.5313319    181.27085  0.047502843  0.049803934            2 
  319000    1.2098428   -5.5146996    181.53014  0.047421668  0.049787086            2 
  320000    1.2000065   -5.5076757    183.08587  0.047678613    0.0497701            4 
  321000    1.2255403    -5.533932    182.23532  0.047309273  0.049753512            2 
  322000    1.2175104   -5.4991867    183.25406  0.047425999  0.049737216            4 
  323000    1.2198049   -5.5066271    183.72995  0.047401948  0.049719897            2 
  324000    1.2019849   -5.5078408    184.67226   0.04749801  0.049702575            2 
  325000    1.1854728   -5.5421296    184.97084  0.047428422  0.049682621            1 
  326000    1.2081725   -5.5459571    184.24536  0.047097484  0.049662715            3 
  327000    1.1930039    -5.552232    185.07443  0.047164737  0.049642006            5 
  328000    1.2099299   -5.5101452    185.56565  0.047145744  0.049621231            2 
  329000    1.1821785   -5.5069098    186.50405  0.047240133  0.049600116            3 
  330000    1.1906842   -5.5875149    186.36538  0.047061964  0.049579307            2 
  331000     1.176534    -5.536812      187.224  0.047135953  0.049556305            2 
  332000    1.2000454   -5.5292309    187.08643  0.046959445  0.049532438            4 
  333000    1.2040221   -5.4961587    188.27753  0.047116498  0.049508765            3 
  334000    1.1910294   -5.5623286    188.09103  0.046928899  0.049485889            2 
  335000    1.2076726   -5.5173903    187.99977  0.046766112  0.049462551            4 
  336000    1.1797438   -5.4714523    188.37713  0.046720518  0.049436927            2 
  337000    1.2211306   -5.4855148    190.58671  0.047128266  0.049412326            1 
  338000    1.1651314   -5.5447725    190.07082  0.046861642  0.049387815            2 
  339000     1.198628    -5.524884    189.64623  0.046619034  0.049361139            1 
  340000    1.2192758   -5.5310198    190.93063  0.046796722   0.04933399            2 
  341000    1.1844099   -5.4796075    191.82028  0.046876902  0.049307896            2 
  342000    1.1731911   -5.5293835    191.12357   0.04657007  0.049281069            4 
  343000    1.2186692   -5.5409227    191.21531  0.046456586   0.04925392            2 
  344000    1.1925893   -5.5834147    192.28286   0.04658015  0.049226758            1 
  345000    1.1876461    -5.536223    192.78436   0.04656627  0.049200577            3 
  346000     1.186559   -5.5115635    194.14465  0.046759308  0.049176802            2 
  347000    1.1948191   -5.5041908    194.73876  0.046767232   0.04915232            2 
  348000    1.1986196   -5.5100107    196.00219  0.046935391  0.049130011            4 
  349000    1.1878325   -5.4871654    197.05722  0.047052822  0.049109376            2 
  350000    1.1977175   -5.5547061    196.65412   0.04682241  0.049086774            2 
  351000    1.1847317   -5.5363999    197.78855  0.046958346  0.049065896            7 
  352000    1.2217263   -5.5422955    197.67595  0.046798283  0.049045915            2 
  353000    1.1932762   -5.5819708    197.44491  0.046611168  0.049026098            2 
  354000    1.1945261   -5.5463105    199.40748  0.046941498   0.04900516            2 
  355000    1.2034687    -5.528295    200.01376  0.046951586  0.048985039            3 
  356000    1.2077223   -5.5312905    200.66701  0.046972616  0.048966285            2 
  357000    1.1986812   -5.5564952     200.2511  0.046743955  0.048947834            2 
  358000    1.1816136   -5.5405008    202.33535  0.047098546  0.048931045            1 
  359000    1.2077939   -5.5530535     202.5497  0.047017109  0.048913861            2 
  360000    1.1687899   -5.5025226    203.58227  0.047125526  0.048898286            2 
  361000    1.2000182   -5.5938707     203.1209  0.046888482  0.048883647            4 
  362000    1.2071912   -5.5518329    204.68751  0.047119593  0.048868614            1 
  363000    1.2159455   -5.5584507     204.5624  0.046961064   0.04885552            1 
  364000    1.1867132   -5.5113959    206.64744  0.047309395  0.048843283            1 
  365000    1.1891237    -5.519451    207.21824    0.0473101  0.048832198            3 
  366000    1.2070682   -5.5179967    206.66996  0.047056003  0.048819505            9 
  367000    1.1862653   -5.5533427    206.83157  0.046964481  0.048804305            1 
  368000     1.213915   -5.5453069    207.42238  0.046970649  0.048788819            3 
  369000    1.1939669    -5.541721    207.87277  0.046945069  0.048774328            1 
  370000     1.179718     -5.53731    209.23785  0.047125642  0.048760348            2 
  371000    1.2133851    -5.514287    209.96565  0.047162096  0.048747382            1 
  372000    1.1918502   -5.5457708    209.41672  0.046912348  0.048736162            2 
  373000    1.1940235   -5.5186037    210.90387  0.047118827  0.048723932            3 
  374000    1.2124024    -5.542547    211.17894  0.047054131  0.048711651            2 
  375000    1.1855115   -5.5151671    211.88483  0.047085518  0.048697583            1 
  376000    1.1655709   -5.5417463    212.19207  0.047028384  0.048685423            4 
  377000    1.1979449   -5.5132059    212.97584  0.047076889  0.048674177            2 
  378000    1.1828924   -5.5245177    214.29633  0.047243459  0.048662076            5 
  379000    1.2012446   -5.5320833    214.70795  0.047209311  0.048650763            2 
  380000    1.1736378   -5.5421821      214.361  0.047008992  0.048639562            2 
  381000    1.1837157   -5.5717703    215.61048  0.047158897  0.048627954            2 
  382000    1.2084388   -5.5551926    216.91359  0.047319718  0.048617594            1 
  383000    1.1645387   -5.5428977    216.31993     0.047067  0.048608552            3 
  384000    1.1831391   -5.5522778    217.45781  0.047191364  0.048598065            3 
  385000     1.168525   -5.5735188    217.54917  0.047088564  0.048589084            3 
  386000    1.1993601   -5.5691236    218.05971  0.047076793  0.048579663            3 
  387000    1.1896494   -5.5720791    219.34068  0.047230982  0.048569185            1 
  388000    1.1984635   -5.5418888    219.75972  0.047199252  0.048560407            3 
  389000    1.1925756    -5.571698    219.68098  0.047061049  0.048550962            1 
  390000     1.188194    -5.579843    220.45295  0.047105331  0.048542294            4 
  391000    1.1919143   -5.5560448    221.08399   0.04711935  0.048532463            3 
  392000    1.1935372   -5.5389883    222.62136   0.04732597  0.048523197            1 
  393000    1.2074549   -5.5159579    222.56436   0.04719346  0.048514387            2 
  394000    1.1669868   -5.5330647    223.79047   0.04733301  0.048505479            2 
  395000    1.2020587   -5.5494696    224.09136  0.047276658  0.048498405            3 
  396000    1.2122823   -5.5411005    224.44799  0.047232322   0.04849042            2 
  397000    1.1961902   -5.5832111    224.41297  0.047105997  0.048483632            3 
  398000    1.1857477     -5.58714    225.36314  0.047186587  0.048475134            2 
  399000    1.1986669   -5.4967583    227.76257  0.047569459  0.048467591            6 
  400000     1.179196   -5.5249367    227.53539  0.047403207  0.048460631            2 
  401000    1.1951298   -5.5710806    226.67448  0.047106085  0.048452984            4 
  402000    1.2102176     -5.58546    227.72173  0.047205997  0.048445843            5 
  403000    1.1646949   -5.5221403     228.8075  0.047313378  0.048438975            2 
  404000    1.1944456   -5.5456776    228.79794  0.047194295  0.048433468            2 
  405000    1.2001624   -5.5739791    229.30781  0.047182677  0.048426262            2 
  406000    1.1606459   -5.5684017    229.84917  0.047177581  0.048419734            2 
  407000    1.2114005   -5.5609813    230.55723   0.04720664    0.0484132            2 
  408000     1.181499      -5.5715    231.79749  0.047344258  0.048407121            2 
  409000    1.1831703     -5.56902     231.5455   0.04717716  0.048400001            3 
  410000    1.1756598   -5.5306703    233.33268  0.047425341  0.048392039            2 
  411000     1.162078   -5.5763748    232.76497  0.047194843  0.048384047            4 
  412000    1.2033282   -5.5306037    233.34592    0.0471978  0.048375844            2 
  413000    1.1986228   -5.5532241    233.32619  0.047079538  0.048367215            1 
  414000    1.1715677   -5.5643712    233.89116  0.047079541  0.048358481            4 
  415000    1.1781874   -5.5925748    233.82887  0.046953588  0.048348766            3 
  416000      1.20139   -5.5519178    234.86866  0.047049011  0.048339152            2 
  417000    1.1918424   -5.5578861     235.4139  0.047045144  0.048328729            2 
  418000    1.2093241   -5.5253032    236.07434  0.047064262  0.048317733            1 
  419000    1.1722842   -5.5404308    235.88918  0.046915111   0.04830802            1 
  420000    1.1855801   -5.5781573    236.49866  0.046924337  0.048297545            2 
  421000    1.2129006   -5.5699561     236.5102  0.046815163  0.048286192            2 
  422000    1.1719139   -5.5707908    237.61102  0.046921607  0.048274543            7 
  423000    1.1995113   -5.5511921    238.24918  0.046936402   0.04826391            2 
  424000    1.1971834   -5.5933117    238.07779  0.046792018  0.048254004            2 
  425000    1.1654651   -5.5303467    239.90846  0.047040875  0.048244684            1 
  426000    1.1855588   -5.5538551    239.55298  0.046860911  0.048235157            6 
  427000    1.1900231   -5.5849842    239.96872  0.046832302  0.048224643            2 
  428000    1.1678033   -5.5910558    241.47455  0.047016072  0.048215068            2 
  429000    1.1799116    -5.546712    241.87463  0.046984194  0.048204158            2 
  430000    1.2219509   -5.5755083    242.08286  0.046915283  0.048195401            3 
  431000     1.167739   -5.5448568     243.9073  0.047159183  0.048186599            5 
  432000    1.2057676   -5.5474893    243.07324  0.046889129  0.048177149            5 
  433000    1.1812558   -5.5817564    243.62195  0.046886441  0.048167236            3 
  434000    1.1898823     -5.54647    245.51635  0.047142156   0.04815768            5 
  435000    1.1771561   -5.5528451    245.50001  0.047030653  0.048148732            4 
  436000    1.1917991   -5.5713108    245.23898  0.046872893  0.048139513            2 
  437000    1.1816172   -5.5507264    245.75374  0.046863794  0.048129517            3 
  438000     1.186054   -5.5792553    247.01473  0.046996714  0.048120733            2 
  439000    1.1981123   -5.5463509    246.20747  0.046736423  0.048111061            2 
  440000    1.1890903   -5.5757957     247.3486  0.046846325  0.048101931            3 
  441000    1.1704934   -5.5210196    249.30706  0.047110178  0.048091461            3 
  442000    1.1800237   -5.5598693     248.3823  0.046829243  0.048082507            1 
  443000    1.1703194   -5.5504993     249.4846  0.046930888  0.048073019            2 
  444000    1.1772982   -5.5871133    249.35601  0.046801053  0.048063554            3 
  445000    1.1877998   -5.5790089    249.45576  0.046714562  0.048053075            2 
  446000     1.169125   -5.5507335    250.42356  0.046790651  0.048043084            1 
  447000    1.1891642   -5.5775659    251.04973   0.04680271  0.048032999            4 
  448000    1.1752588   -5.5744834    251.10852  0.046709174  0.048024278            3 
  449000    1.1767382   -5.5957481    252.00592  0.046771701  0.048015406            4 
  450000     1.194374   -5.5558745     253.4532  0.046935778  0.048006239            5 
  451000    1.1625365   -5.5703018     253.7413   0.04688494  0.047997665            1 
  452000    1.1743509   -5.5292193    255.16675  0.047044017  0.047989479            1 
  453000    1.1776666   -5.5627241    254.87259  0.046886054  0.047981347            5 
  454000    1.2020245   -5.5601371    255.65594  0.046926567  0.047972705            4 
  455000    1.1727652   -5.5604554    255.43214  0.046782444  0.047963791            3 
  456000    1.1967684   -5.5743706     257.1615  0.046995888  0.047955036            3 
  457000    1.1806286   -5.5680637    256.06468   0.04669305  0.047946215            4 
  458000     1.193879   -5.5880588    256.63855  0.046695515  0.047937434            4 
  459000    1.1709196   -5.5353663    257.10366  0.046678225  0.047928868            3 
  460000    1.1704048   -5.5910412    257.45191  0.046639838  0.047920216            6 
  461000    1.1802479   -5.5625231     258.6701  0.046758876  0.047911706            2 
  462000     1.196806   -5.5493383    258.91442  0.046701734  0.047902194            3 
  463000    1.2035759   -5.5931751     259.7067  0.046743467  0.047892374            2 
  464000    1.1631394    -5.549231    260.99997  0.046874994  0.047882027            3 
  465000    1.1284984   -5.5696091    261.44836  0.046854545  0.047871509            4 
  466000     1.176855   -5.5934357    260.82866   0.04664318  0.047860563            1 
  467000    1.1683205   -5.5723538    261.45903  0.046655786  0.047849843            3 
  468000    1.1767698   -5.5739632    261.70165  0.046599296  0.047839171            3 
  469000    1.1711393   -5.5485572    263.45096  0.046810761  0.047828893            2 
  470000    1.1794589   -5.5786079    262.78115  0.046592402  0.047819135            3 
  471000    1.1825251   -5.5414052    263.01539  0.046534924  0.047808777            4 
  472000     1.141106   -5.5488271    263.84452  0.046582718  0.047798598            2 
  473000     1.177864   -5.5900676      264.062  0.046522551  0.047786859            4 
  474000    1.1916263   -5.5836232     264.3353  0.046472451  0.047774917            4 
  475000    1.1955996   -5.5811174    264.99757  0.046490802  0.047763511            4 
  476000     1.194086   -5.5736952    266.00676  0.046569812   0.04775211            2 
  477000    1.1753899   -5.5613841    267.33117  0.046703559  0.047740294            2 
  478000    1.1919165   -5.6029645    266.95233  0.046539806  0.047729424            5 
  479000    1.1810162   -5.6042754    267.16904  0.046480347  0.047718928            4 
  480000    1.1667709   -5.5341322    268.54081  0.046621668  0.047708238            2 
  481000    1.1720824   -5.5683681    269.68936  0.046723728  0.047699257            4 
  482000    1.1724985   -5.5774105    269.25065  0.046550942  0.047690502            3 
  483000    1.1863556   -5.6138687    269.53103  0.046502939   0.04768138            1 
  484000    1.1731454   -5.6060107    269.64004  0.046425627  0.047671694            3 
  485000     1.142248   -5.5937998    271.01401   0.04656598  0.047661653            3 
  486000    1.1612595    -5.599149    270.83656  0.046439739  0.047652306            3 
  487000    1.1674428   -5.6069419    271.33348  0.046429411  0.047641622            7 
  488000    1.1689591   -5.5773516     272.2408  0.046489208  0.047633063            6 
  489000    1.1882363   -5.6119346    273.17402  0.046553174  0.047623664            3 
  490000    1.1732344   -5.5537213    274.80229  0.046735083  0.047614873            2 
  491000    1.1846936   -5.5591793     274.5333  0.046594247   0.04760709            2 
  492000     1.176747   -5.5457184    275.83076  0.046719303  0.047598044            4 
  493000    1.1948052   -5.6181165     275.6933  0.046601302  0.047589999            3 
  494000     1.205857   -5.5961964     276.3787  0.046622588  0.047582401            3 
  495000    1.1643112   -5.5446131    277.27866  0.046679909  0.047575251            1 
  496000    1.1814556   -5.6163768    276.89911  0.046522028  0.047567319            2 
  497000    1.1631145   -5.6437062    278.09489  0.046628922  0.047560192            4 
  498000    1.1676369    -5.594476    279.59278  0.046785941  0.047553404            4 
  499000     1.187722   -5.6311541    279.00208  0.046593533  0.047546824            3 
  500000    1.1645817   -5.6177097    279.78567  0.046630946  0.047540441            3 
  501000    1.1977945   -5.5830397    280.87819  0.046719592  0.047533435            4 
  502000    1.1706068   -5.5978048    281.56537    0.0467406  0.047526045            2 
  503000    1.1901837   -5.5794432    281.54001  0.046643474  0.047519693            2 
  504000    1.1701593   -5.6082534    282.14862  0.046651558  0.047513311            4 
  505000    1.1714592   -5.5640673    283.57539  0.046794619  0.047507161            1 
  506000    1.1606767   -5.6038458    284.38135  0.046834873   0.04750209            4 
  507000    1.1819637   -5.5838243    285.27952  0.046890125  0.047495644            7 
  508000    1.1596879   -5.5866648    284.33149  0.046642305  0.047489758            3 
  509000    1.1577853   -5.5994646    285.55431  0.046750869   0.04748371            3 
  510000    1.1735673   -5.5782336    284.77376  0.046531661  0.047476673            5 
  511000    1.1556876    -5.573969    286.16636  0.046667704  0.047469187            3 
  512000    1.1749322    -5.582374    287.52412  0.046797545  0.047462329            4 
  513000    1.1592546    -5.583526    287.43837  0.046692392  0.047456267            4 
  514000    1.1943125   -5.5695847    288.07764  0.046705194  0.047450471            2 
  515000    1.1663495   -5.5520821    288.50682  0.046683952  0.047444073            2 
  516000    1.1667096   -5.5666764    289.33929  0.046727922   0.04743714            6 
  517000    1.1857361   -5.6121782    290.19696  0.046775784  0.047430339            2 
  518000    1.1557218     -5.60874    289.40853  0.046558644  0.047423869            3 
  519000    1.1725748    -5.638697    289.33655  0.046457377  0.047416538            2 
  520000    1.1694575   -5.6068809    291.08997  0.046649033  0.047409356            1 
  521000    1.1728741   -5.5960246    290.18779  0.046415194  0.047403632            3 
  522000    1.1585902    -5.599954    292.54138  0.046702008   0.04739856            3 
  523000    1.1695948    -5.579908    293.13043   0.04670657  0.047393097            1 
  524000    1.1537788   -5.5264081    293.81661  0.046726561  0.047387637            2 
  525000    1.1728979    -5.638181    292.73735  0.046466246   0.04738171            3 
  526000    1.1649817   -5.5979092    295.17338  0.046763843  0.047376153            3 
  527000    1.1664391   -5.6387353    295.11814  0.046666372  0.047370629            1 
  528000    1.1571713    -5.589876    295.98981  0.046715563  0.047365818            3 
  529000    1.1607957   -5.6297551    295.37215  0.046529954  0.047360152            2 
  530000    1.1789475    -5.583897    296.01286  0.046542902  0.047353129            3 
  531000    1.1626204   -5.5730287    297.76198  0.046729752  0.047347087            2 
  532000    1.1650945   -5.6239857    297.17283  0.046549629   0.04734102            3 
  533000    1.1695822   -5.5650666    298.16594  0.046617565  0.047333821            5 
  534000    1.1621349   -5.5530498    299.18171  0.046688781  0.047327407            3 
  535000    1.2130425   -5.5839599    298.79308  0.046540979  0.047321315            2 
  536000    1.1664487   -5.6248291    298.84788  0.046462667  0.047314311            3 
  537000     1.147515   -5.5554699    299.42004  0.046464935  0.047306836            4 
  538000    1.1655703   -5.6217317    298.37696  0.046217002  0.047298569            3 
  539000    1.1445758   -5.5507097    300.33595  0.046434129  0.047290864            2 
  540000    1.1744332   -5.6034824    300.23961  0.046333273  0.047283825            3 
  541000    1.1636191   -5.6109191     301.3205  0.046414126  0.047276915            3 
  542000     1.171585   -5.6243552    301.85851   0.04641121  0.047269688            4 
  543000    1.1415689   -5.6617342    302.40296  0.046409293  0.047261967            3 
  544000    1.1780866   -5.6249469    302.46655  0.046333724  0.047253899            3 
  545000    1.1402745     -5.61453    303.98397  0.046480729   0.04724645            2 
  546000    1.1735864   -5.5582717    305.48135  0.046624137  0.047238874            5 
  547000    1.1951982   -5.5931976    304.79373  0.046434145  0.047231347            3 
  548000    1.1709436   -5.5901833    304.48311  0.046302176  0.047223434            2 
  549000    1.1630413   -5.5766275    305.53973  0.046378222  0.047215068            3 
  550000    1.1392352   -5.5901916    305.08275  0.046224658  0.047206524            2 
  551000    1.1790721   -5.6230198    306.14822  0.046301908  0.047197841            1 
  552000    1.1958835   -5.5657511    307.22462  0.046380528  0.047189213            2 
  553000    1.1449775   -5.6117009    307.15396  0.046286009  0.047180293            7 
  554000     1.180163   -5.5745941    306.41648  0.046091528   0.04717086            1 
  555000    1.1742799    -5.580484    306.86967  0.046076527  0.047160272            2 
  556000    1.1749596   -5.5590105    308.66627   0.04626293  0.047150679            3 
  557000    1.1787281   -5.5863775    308.62556  0.046173782  0.047140444            3 
  558000    1.1698107   -5.6145833    308.67783   0.04609884  0.047130722            7 
  559000    1.1601097   -5.6156825    309.68114  0.046165943  0.047121626            6 
  560000    1.1852814    -5.585211    310.52121  0.046208514  0.047112234            5 
  561000    1.1633597    -5.626977     310.8771  0.046179011  0.047102777            1 
  562000    1.1790876   -5.5967764    310.72218  0.046073871  0.047093141            3 
  563000    1.1599784   -5.6020374    311.60769  0.046123104  0.047083587            2 
  564000    1.1498991   -5.6199361    311.48006  0.046022468  0.047074193            2 
  565000    1.1845768    -5.624561    311.15837  0.045893565  0.047065187            2 
  566000    1.1687591   -5.5931373    313.66382  0.046181363  0.047056049            2 
  567000    1.1454186   -5.6097828    314.27209  0.046189314  0.047046806            3 
  568000    1.1624213   -5.6211827     312.8296  0.045896361  0.047036913            2 
  569000    1.1721951    -5.634445    313.10521  0.045856064  0.047026401            2 
  570000    1.1629626   -5.6023786    314.41157  0.045966603  0.047015885            3 
  571000    1.1533961   -5.5969285    314.44825  0.045891455  0.047005371            5 
  572000    1.1884668   -5.6340854    314.81723   0.04586498  0.046994974            3 
  573000    1.1740226   -5.6025302     316.5329  0.046034453  0.046985165            6 
  574000    1.1520859   -5.6186573    315.88098  0.045859608  0.046975016            4 
  575000    1.1500114   -5.6094458    316.53378  0.045874461  0.046964655            3 
  576000    1.1718976   -5.6063113    318.72092  0.046111245  0.046954462            2 
  577000     1.151058    -5.623004    319.05936  0.046080207  0.046944508            4 
  578000    1.1623626   -5.5966991    318.99098  0.045990626  0.046934785            3 
  579000    1.1741121   -5.6258506    317.81654  0.045742162   0.04692467            2 
  580000    1.1754881   -5.5992776    319.81422  0.045950319  0.046914463            3 
  581000      1.16402    -5.632345    319.85718  0.045877393  0.046905136            2 
  582000    1.1617078   -5.6674346    319.75895    0.0457845  0.046895578            2 
  583000    1.1825164   -5.5986681    321.94219  0.046018038  0.046886361            2 
  584000     1.169215   -5.6219227    321.03893  0.045810349  0.046876688            2 
  585000    1.1708288   -5.6203534    321.69724  0.045825818  0.046867104            3 
  586000    1.1383091   -5.6197758    322.90471  0.045919328   0.04685705            6 
  587000    1.1360106   -5.6222007    322.99582  0.045854035  0.046847552            6 
  588000    1.1394472   -5.5870147    324.20594  0.045947554  0.046837888            3 
  589000    1.1591578    -5.560128     326.0517  0.046130687    0.0468281            4 
  590000    1.1588615   -5.6104201     323.8863  0.045746653  0.046818375            3 
  591000    1.1954772   -5.6267415    324.61936  0.045772611  0.046808907            3 
  592000    1.1328246   -5.5806419    326.44456  0.045952218  0.046799143            4 
  593000    1.1730289   -5.5993617    325.27231  0.045709993  0.046789153            2 
  594000    1.1767879   -5.5667973    328.13749  0.046035001   0.04677945            1 
  595000    1.1231507   -5.6037075    325.85598  0.045638093  0.046768955            2 
  596000    1.1354851   -5.5895002    326.90223  0.045707806  0.046758544            2 
  597000    1.1543096   -5.6273905    325.79441  0.045476607  0.046747291            5 
  598000    1.1627921   -5.5885412    327.43528   0.04562922  0.046735764            3 
  599000    1.1480271   -5.5933015    327.88418  0.045615496  0.046724381            3 
  600000    1.1339317   -5.5910485    328.21941  0.045586029  0.046713503            2 
  601000    1.1388302   -5.6492298    329.78774   0.04572764  0.046702685            4 
  602000    1.1560575   -5.6147088    329.64885  0.045632454  0.046692237            2 
  603000     1.163511   -5.5962792    330.78616  0.045713953  0.046681088            2 
  604000     1.153762   -5.6139956    331.01827  0.045670291   0.04666948            2 
  605000    1.1592692   -5.6391665    331.18242  0.045617414  0.046658746            2 
  606000    1.1722039   -5.6540899    330.59354  0.045461158  0.046647569            3 
  607000    1.1733701   -5.6484465    331.01098  0.045443572  0.046635608            2 
  608000    1.1534591    -5.607341    332.46504  0.045568125  0.046624034            2 
  609000    1.1386948   -5.6541214    332.22009  0.045459782  0.046611987            2 
  610000    1.1483607   -5.6094744     333.0261  0.045495368  0.046599502            6 
  611000    1.1627634   -5.6190261    332.85487  0.045397554  0.046587601            6 
  612000    1.1445775   -5.6400512    333.73764  0.045443578  0.046576506            3 
  613000    1.1688089   -5.6148083    333.62658  0.045354347  0.046564717            5 
  614000    1.1411596    -5.646974    334.29884  0.045371721  0.046552947            3 
  615000    1.1890858   -5.6621121    335.94331  0.045520774   0.04654224            2 
  616000    1.1409247   -5.6122855    336.09148  0.045466921  0.046531462            4 
  617000    1.1527919   -5.6413977    336.50976  0.045449724  0.046520208            3 
  618000    1.1501871   -5.6188062    337.40311  0.045496644   0.04650913           11 
  619000    1.1420986   -5.6628579    337.55151  0.045443122  0.046498281            8 
  620000    1.1535773   -5.6250521    337.17667  0.045319445  0.046487073            3 
  621000    1.1500598   -5.6543412    337.68213  0.045314296   0.04647603            2 
  622000    1.1673307    -5.638791    340.62778   0.04563609   0.04646532            6 
  623000    1.1331858   -5.6053704    341.38444   0.04566405   0.04645617            2 
  624000    1.1311704   -5.6178091    341.85981  0.045654356  0.046446986            5 
  625000    1.1396019   -5.6470332    343.14482  0.045752642  0.046438168            9 
  626000    1.1482801   -5.5979428    343.46454  0.045722116  0.046430151            4 
  627000    1.1258573   -5.6148423    345.10927  0.045867792  0.046421555            3 
  628000    1.1586119   -5.6149086    343.87393  0.045630829  0.046413616            5 
  629000    1.1401147   -5.5867121    345.48745  0.045772052  0.046405928            3 
  630000    1.1262699   -5.6083677    346.52569  0.045836731  0.046398033            1 
  631000    1.1530457   -5.6253501    347.26393  0.045861586  0.046390378            2 
  632000    1.1337769   -5.6520502     346.4285  0.045678864  0.046383024            2 
  633000    1.1625943   -5.6224321    347.07292  0.045691538  0.046374699            2 
  634000    1.1405246   -5.6578153     346.8771  0.045593731  0.046366447            4 
  635000    1.1446358   -5.6093446      349.492  0.045865092  0.046358226            3 
  636000    1.1746264   -5.6174006    347.71281  0.045559855  0.046349746            2 
  637000    1.1575197   -5.6227672    350.58609  0.045864219  0.046342213            2 
  638000    1.1480517   -5.6177951    348.92304   0.04557511  0.046334421            1 
  639000     1.155068   -5.6356664    349.03287   0.04551811   0.04632703            3 
  640000    1.1564017   -5.6804737    349.54486  0.045513654  0.046319136            5 
  641000    1.1415662   -5.6618196    350.23658  0.045532577  0.046310613            2 
  642000    1.1750061   -5.6709916    350.55884  0.045503484  0.046301828            2 
  643000    1.1558178   -5.6562094    351.59013  0.045566372  0.046293032            2 
  644000    1.1228825   -5.6376388     353.0816  0.045688612   0.04628413            3 
  645000    1.1385704   -5.6151263    354.85489  0.045846885  0.046276357            2 
  646000    1.1359452   -5.5934214    353.52563  0.045604441  0.046268231            4 
  647000    1.1560892   -5.6043742    353.46101  0.045525633  0.046259461            2 
  648000    1.1318537   -5.6109291    354.67445  0.045611426  0.046250789            2 
  649000    1.1116263   -5.6447922    353.88076  0.045439235  0.046241194            4 
  650000    1.1360435   -5.6486707    354.01284  0.045386261  0.046231755            3 
  651000    1.1508461   -5.6367936    355.08372  0.045453625   0.04622256            2 
  652000    1.1509289   -5.6396137    355.59146  0.045448806  0.046213517            1 
  653000     1.151765   -5.6352665    355.49215  0.045366533  0.046204863            2 
  654000    1.1504021   -5.6431599    356.89588   0.04547603  0.046195554            3 
  655000    1.1496212   -5.6478401    354.74924  0.045133491   0.04618535            2 
  656000    1.1449103   -5.5843651    359.00264   0.04560501    0.0461753            4 
  657000    1.1332413   -5.6183196    357.80449  0.045383624  0.046166334            2 
  658000    1.1189997   -5.6395156    357.32307  0.045253682  0.046156735            3 
  659000    1.1421292   -5.6308306     358.5457  0.045339618  0.046146989            2 
  660000    1.1394558   -5.6347473    360.39944   0.04550498  0.046138258            3 
  661000     1.138292   -5.6503266    359.54403  0.045328295  0.046128935            3 
  662000    1.1470193   -5.6251306    361.52212  0.045508826  0.046119713            5 
  663000    1.1358206    -5.647212    361.01657  0.045376643  0.046110659            4 
  664000    1.1674319   -5.6141607    362.09259  0.045443347  0.046101588            3 
  665000    1.1347225   -5.6521614    360.75849  0.045207831  0.046091975            2 
  666000    1.1268653   -5.6370139    360.67184  0.045129109  0.046082582            5 
  667000    1.1552538   -5.6175251    362.61196  0.045303843  0.046072965            1 
  668000     1.126399   -5.6282094    362.57335  0.045231207  0.046062418            4 
  669000    1.1353402   -5.6203488    363.25424  0.045248411  0.046052556            2 
  670000    1.1796602    -5.642264    363.61508  0.045225757  0.046042387            2 
  671000    1.1679939   -5.6525063    363.50261  0.045144387  0.046032602            5 
  672000    1.1426239   -5.6273754     364.0659  0.045147061    0.0460236            2 
  673000    1.1264118   -5.6684154    363.56498  0.045017951  0.046014584            5 
  674000    1.1351618   -5.6432868    367.23173  0.045404517  0.046005113            3 
  675000    1.1223515   -5.6911512     365.9772  0.045182371  0.045995996            5 
  676000    1.1442101   -5.6395134    369.03763  0.045492805  0.045987539            3 
  677000    1.1430881   -5.6809007     369.2863  0.045456217  0.045979577            5 
  678000    1.1422275   -5.6492437    369.30655  0.045391661   0.04597156            4 
  679000    1.1291544   -5.6462158    370.29483  0.045446101  0.045963783            5 
  680000    1.1475504   -5.6377601    370.21243  0.045369171  0.045956618            1 
  681000    1.1530192   -5.6224503    371.48006  0.045457668  0.045949333            1 
  682000    1.1496102   -5.6534093    371.75818  0.045424998   0.04594307            2 
  683000     1.158067   -5.6557191    372.27678  0.045421764  0.045935721            3 
  684000    1.1363755   -5.6134182     372.3627  0.045365826  0.045928606            2 
  685000    1.1579098   -5.6389431    373.09054  0.045388144  0.045920827            3 
  686000    1.1446762   -5.6546065    373.72755  0.045399362  0.045914388            1 
  687000    1.1358577   -5.6569847    373.96536  0.045362125   0.04590723            5 
  688000    1.1348083   -5.6687978    374.72828  0.045388599  0.045900125            3 
  689000    1.1515452   -5.6554996    375.73078  0.045443974  0.045894275            2 
  690000    1.1365749   -5.6765617    373.52272   0.04511144  0.045887594            2 
  691000    1.1027094   -5.6508882    377.00558  0.045466182  0.045881382            3 
  692000    1.1643785   -5.6329768    377.67379  0.045480948  0.045875523            3 
  693000     1.122662   -5.6457348    377.57848  0.045403858    0.0458694            1 
  694000    1.1394871   -5.6632984    378.17035  0.045409505   0.04586388            2 
  695000    1.1440973   -5.6180003    380.20953  0.045588672  0.045858218            2 
  696000     1.145426   -5.5936365    380.48486  0.045556137   0.04585255            2 
  697000    1.1585214    -5.680873    378.62219  0.045268076  0.045846244            5 
  698000     1.151254   -5.6569975    380.93829  0.045479738  0.045839778            1 
  699000    1.1283216   -5.6510049    381.24525  0.045451269  0.045834102            2 
  700000    1.1431597   -5.6612164    382.45657  0.045530544  0.045828322            5 
  701000    1.1330788   -5.6812169    382.98684  0.045528631  0.045822364            2 
  702000    1.1438483   -5.6437167    384.13509  0.045600082  0.045816411            4 
  703000    1.1332926   -5.6405907    383.08516  0.045410758  0.045810596            2 
  704000     1.137054   -5.6569092    383.27012  0.045368149  0.045804247            2 
  705000     1.130925    -5.644198    385.42076  0.045558009  0.045798607            2 
  706000    1.1307318   -5.6490228    384.98833  0.045442437  0.045793462            4 
  707000    1.1389135   -5.6171884    386.92265  0.045606159  0.045787522            2 
  708000    1.1201805   -5.6652827    385.60217   0.04538632  0.045781471            2 
  709000    1.1555558   -5.6498732    386.36253  0.045411675  0.045775798            2 
  710000    1.1095846    -5.705026    384.78841  0.045162959   0.04576902            3 
  711000    1.1495772   -5.6772617    386.56162  0.045307269  0.045762027            3 
  712000    1.1453392   -5.5985608    388.48417  0.045468653  0.045755407            3 
  713000     1.129432   -5.6727152    387.97858   0.04534579  0.045749187            2 
  714000    1.1548187   -5.6646535    388.15594  0.045302981  0.045742989            3 
  715000    1.1258507   -5.6623699    389.14385  0.045354761  0.045737063            3 
  716000    1.1294177   -5.6614186    389.53481   0.04533692  0.045731156            5 
  717000    1.1390428   -5.6414711    391.49567  0.045501589  0.045725402            3 
  718000    1.1074475    -5.691961    391.13021  0.045395799  0.045719623            3 
  719000    1.1387036   -5.7010725    391.60724  0.045387951  0.045714271            4 
  720000    1.1256366   -5.6621437     393.1458  0.045502986  0.045708945            2 
  721000    1.1368963   -5.6876651    392.78325  0.045397972  0.045703211            3 
  722000     1.144291   -5.6715087    393.61305  0.045430869  0.045697678            5 
  723000    1.1287447   -5.6801266    392.80536  0.045274937  0.045691691            2 
  724000    1.1136996   -5.6428406    392.82519  0.045214686   0.04568611            5 
  725000    1.1133112   -5.6423406    394.64279  0.045361241  0.045680762            4 
  726000    1.1409245   -5.6595312    395.19093  0.045361677  0.045674364            4 
  727000    1.1331726   -5.6423649     394.7798  0.045252155  0.045667875            3 
  728000    1.1334023   -5.6506078    395.09247  0.045225787  0.045661607            3 
  729000    1.1380407   -5.6785763    394.27616  0.045070434   0.04565427            3 
  730000    1.1394415   -5.6358427    397.37499  0.045362442  0.045647453            3 
  731000    1.1099188   -5.7022817    396.00328  0.045144012  0.045640926            5 
  732000    1.1641147   -5.6826553    398.03339  0.045313455   0.04563441            8 
  733000    1.1177566   -5.6924514     396.1501  0.045037528  0.045627578            4 
  734000    1.1436655    -5.704422    396.80221  0.045050206  0.045621014            3 
  735000    1.1456409   -5.6852118    398.25019  0.045153083  0.045614589            5 
  736000    1.1149626   -5.6462824    399.25701   0.04520573  0.045607962            3 
  737000    1.1348211   -5.6819875    399.42441  0.045163321  0.045601142            1 
  738000    1.1230189   -5.6475288    399.70304  0.045133586  0.045594235            3 
  739000    1.1383695   -5.6555593    398.97192  0.044990067    0.0455876            2 
  740000    1.1251475   -5.6188231    401.91979  0.045261238  0.045580524            2 
  741000     1.153794   -5.6729481      401.111  0.045109199  0.045573584            3 
  742000    1.1368696   -5.6788288    400.74505  0.045007306   0.04556658            3 
  743000    1.1425313   -5.6826467     399.6279  0.044821434  0.045558358            5 
  744000    1.1238115   -5.7010842    398.58201  0.044644043   0.04554988            9 
  745000    1.1343107   -5.6768994    401.31645  0.044889983  0.045540766            2 
  746000    1.1312506   -5.6861254    400.64427  0.044754722  0.045532211            3 
  747000    1.1694808   -5.6608835     402.5827  0.044911055  0.045523524            5 
  748000    1.1456431    -5.725755    402.02097  0.044788433  0.045515519            4 
  749000    1.1153866    -5.668313    403.11779  0.044850667  0.045506417            3 
  750000    1.0909562    -5.655243    403.96403  0.044884893  0.045497883            4 
  751000    1.1312753   -5.6344385    404.76505  0.044914009  0.045489234            2 
  752000    1.1146739   -5.6431232    405.58248  0.044944866  0.045481235            4 
  753000     1.131935   -5.6797847    404.78474  0.044796895  0.045473144            4 
  754000    1.1146146    -5.672155    404.37468  0.044692161    0.0454649            4 
  755000    1.1518826   -5.6898292    406.30913  0.044846482  0.045456961            2 
  756000    1.1288059   -5.6666726    405.34112  0.044680458  0.045448507            4 
  757000    1.1389252   -5.6748178    409.05161    0.0450299  0.045440678            3 
  758000    1.1571608   -5.6905574    407.28051  0.044775782   0.04543319            4 
  759000    1.1227144   -5.6668431    409.76285  0.044989334  0.045425477            2 
  760000    1.1280222    -5.660544    409.82048  0.044936456    0.0454177            3 
  761000    1.1523406    -5.693441    408.85618  0.044771812  0.045409921            3 
  762000    1.1418741   -5.6263368    409.98018  0.044835978   0.04540205            2 
  763000    1.1519302   -5.7020214    409.68058  0.044744493  0.045393983            2 
  764000     1.127442   -5.6798723    410.62132  0.044788539   0.04538575            3 
  765000    1.1425022   -5.6831772    410.70661  0.044739282  0.045376799            5 
  766000    1.1268702   -5.6608655    411.59265  0.044777268  0.045368239            2 
  767000    1.1260532   -5.6865223    408.94816  0.044431569  0.045358824            3 
  768000    1.1168023   -5.6951667    410.89649  0.044585123  0.045349231            2 
  769000    1.1213347   -5.6771333    411.97702  0.044644237  0.045339968            4 
  770000    1.1301952   -5.6639097    411.72361  0.044558832  0.045330865            4 
  771000    1.1426317   -5.6927532    413.10691  0.044650552  0.045321346            7 
  772000    1.1573032   -5.6745539      412.918  0.044572323  0.045311951            7 
  773000    1.1266511   -5.7182769    410.98956  0.044306766  0.045301867            6 
  774000    1.1042596   -5.6961544    412.21281  0.044381224  0.045291445            5 
  775000    1.1476966   -5.7233754    412.35756  0.044339523  0.045280853            2 
  776000    1.1363813   -5.6572545    413.41711  0.044396168  0.045270592            3 
  777000    1.1263951   -5.6661797    413.32718  0.044329384   0.04525994            3 
  778000    1.1385459   -5.6908977    414.79444  0.044429567  0.045249688            5 
  779000    1.1391785   -5.6877986    415.05172  0.044400056  0.045239311            5 
  780000    1.1247642   -5.7088969    414.44107  0.044277893  0.045229147            3 
  781000    1.1573033   -5.6709122     415.5544  0.044339991  0.045218738            2 
  782000    1.1316628   -5.6516849    417.69409  0.044511305  0.045209128            2 
  783000    1.1403527   -5.6776318    417.84177  0.044470175  0.045199305            2 
  784000    1.1358316   -5.7119878      416.995  0.044323448  0.045189627            2 
  785000     1.133577   -5.6872896    417.46658  0.044317047  0.045179694            3 
  786000     1.105389   -5.7188829    416.87965  0.044198436  0.045169967            3 
  787000    1.1227962   -5.6884237    417.97352  0.044258103  0.045159516            2 
  788000    1.1282782   -5.7057387    419.03561  0.044314256  0.045150484            2 
  789000    1.1257256   -5.7239488    418.38926  0.044189825  0.045140721            3 
  790000    1.1415413   -5.6862992    420.55088  0.044361907  0.045130941            3 
  791000    1.1340001   -5.6466452    421.36042  0.044391111  0.045120818            3 
  792000     1.124343   -5.6774973    421.77445  0.044378625  0.045110672            3 
  793000    1.1455752   -5.6716681    420.72743  0.044212634  0.045100168            6 
  794000     1.145451   -5.6875678    422.22872  0.044314517  0.045089947            2 
  795000    1.1240146   -5.6569971    423.71448  0.044414515   0.04508014            4 
  796000    1.1272696   -5.6829832    423.28253  0.044313498  0.045070347            1 
  797000    1.1079129   -5.6877977    424.32017  0.044366392  0.045060459            2 
  798000    1.1178431   -5.6852395    424.36086  0.044315044  0.045050347            3 
  799000    1.1085851   -5.6964045    422.93727  0.044111105  0.045040308            3 
  800000    1.1343979   -5.7130612    424.79338   0.04424931  0.045030325            5 
  801000    1.1016429    -5.683259    427.13557  0.044437741  0.045020688            3 
  802000    1.0987482    -5.728676    425.76112  0.044239518  0.045011056            4 
  803000    1.1438638   -5.6745973     424.9861  0.044103996  0.045001429            2 
  804000    1.1015309   -5.7275389    427.94279  0.044355596  0.044992106            3 
  805000    1.1003671   -5.6493849    427.73903  0.044279403  0.044983017            4 
  806000    1.1308771   -5.6546836    429.58662   0.04441549  0.044973533            2 
  807000    1.1266867   -5.6852136    429.94034  0.044396978  0.044964214            3 
  808000    1.1190081   -5.6800848    430.19646  0.044368447  0.044955075            5 
[...]
 4800000   0.47511681   -7.3023712    943.66185  0.016383018  0.014540857         1441 
 4801000   0.48045784   -7.3173936    945.05138  0.016403725  0.014536105         1391 
 4802000   0.48425865   -7.3258555    944.50378  0.016390806   0.01453137         1408 
 4803000   0.47859162   -7.3112495    944.73843  0.016391464  0.014526631         1417 
 4804000   0.48224686   -7.3198074    945.39202   0.01639939  0.014521902         1459 
 4805000   0.48333599    -7.318796     944.6643  0.016383356  0.014517168         1411 
 4806000   0.47214756   -7.3116702     943.9477  0.016367521  0.014512435         1422 
 4807000   0.48027615   -7.3233679    944.62471  0.016375853  0.014507707         1463 
 4808000    0.4839437    -7.320492    944.89464  0.016377126  0.014502981         1472 
 4809000   0.47978322   -7.3016701    944.37003  0.016364629  0.014498255         1508 
 4810000   0.47815614   -7.3148052    945.44091   0.01637978  0.014493528         1425 
 4811000    0.4831938   -7.3214195    943.51354  0.016342991  0.014488807         1454 
 4812000   0.47503252   -7.3338665    945.17405  0.016368351  0.014484085         1481 
 4813000   0.47571824   -7.3277817    942.66069  0.016321433   0.01447936         1508 
 4814000   0.48264316   -7.3265836    945.33261  0.016364295  0.014474638         1432 
 4815000   0.48213126   -7.3260778    945.69251  0.016367125  0.014469919         1467 
 4816000   0.48851293   -7.3152449    944.42905  0.016341865  0.014465206         1500 
 4817000   0.49301463   -7.3078189    942.68666  0.016308329  0.014460489         1416 
 4818000   0.47540441   -7.3198646    944.55431  0.016337248  0.014455778         1435 
 4819000    0.4741598   -7.3211564    944.29488  0.016329371  0.014451069         1428 
 4820000   0.48859855   -7.3232295     943.3395  0.016309466  0.014446363         1462 
 4821000   0.47729761    -7.337995    945.23917   0.01633892   0.01444166         1435 
 4822000   0.47033078    -7.314716    943.77578  0.016310241  0.014436955         1423 
 4823000   0.47382108   -7.3196143    944.48333  0.016319084  0.014432253         1430 
 4824000   0.48184565    -7.333135     943.2888  0.016295066  0.014427553         1475 
 4825000   0.46788514   -7.3303313    943.08097    0.0162881  0.014422854         1504 
 4826000   0.47794656   -7.3147904    942.72154  0.016278518  0.014418155         1480 
 4827000   0.48294739   -7.3250289    944.38075   0.01630379  0.014413453         1405 
 4828000   0.48714975   -7.3359391    943.71236  0.016288877  0.014408757         1454 
 4829000   0.48033335   -7.3308721    943.96672  0.016289893   0.01440406         1420 
 4830000    0.4697763   -7.3316837    943.36445  0.016276129  0.014399369         1492 
 4831000   0.48205602   -7.3300808    944.86142  0.016298582  0.014394678         1418 
 4832000   0.47158734   -7.3276011    944.42834   0.01628774  0.014389987         1444 
 4833000   0.48297641   -7.3210216    943.24474  0.016263962  0.014385303         1399 
 4834000   0.47664612   -7.3318652    944.43778  0.016281164   0.01438062         1518 
 4835000   0.48556531   -7.3264435    943.06892  0.016254204  0.014375942         1509 
 4836000   0.48364709   -7.3424052    945.15463  0.016286784  0.014371263         1367 
 4837000   0.48178139   -7.3280099    942.33775  0.016234886  0.014366584         1455 
 4838000   0.47149754   -7.3309536    944.07516  0.016261457  0.014361904         1424 
 4839000     0.474759   -7.3152281    944.53958  0.016266095  0.014357227         1486 
 4840000   0.46418326   -7.3390312    942.71187  0.016231265  0.014352553         1467 
 4841000   0.47543574   -7.3434291    943.08948  0.016234412  0.014347877         1416 
 4842000   0.47550855   -7.3225771    944.35652  0.016252866  0.014343207         1442 
 4843000    0.4735271   -7.3320444    944.17226  0.016246339  0.014338534         1429 
 4844000   0.46974779   -7.3241537    945.39042  0.016263942  0.014333866         1496 
 4845000    0.4746329   -7.3321605     942.3975  0.016209107  0.014329198         1459 
 4846000   0.48212775   -7.3308157    945.11188   0.01625244  0.014324536         1436 
 4847000   0.47776023   -7.3402318    943.87423  0.016227808  0.014319881         1480 
 4848000   0.48622027   -7.3451673    944.67732  0.016238265  0.014315224         1502 
 4849000   0.47014063   -7.3284286    942.97932  0.016205735  0.014310569         1408 
 4850000   0.47926349   -7.3269173     943.1112   0.01620466  0.014305915         1419 
 4851000   0.47156625   -7.3277617    941.84562  0.016179578  0.014301261         1523 
 4852000   0.47767522   -7.3311331    944.47849  0.016221464  0.014296607         1417 
 4853000   0.46852133   -7.3225453    943.87254  0.016207716  0.014291957         1463 
 4854000   0.48221871   -7.3552757    942.78618  0.016185726  0.014287308         1460 
 4855000   0.48611542     -7.32733    943.49211  0.016194509  0.014282663         1536 
 4856000   0.47718365    -7.322714    943.81429  0.016196703  0.014278019         1450 
 4857000   0.46973182   -7.3294087    944.24309  0.016200726  0.014273373         1397 
 4858000   0.47582328   -7.3523556    944.52522   0.01620223  0.014268729         1462 
 4859000   0.48312676   -7.3306106    945.27957  0.016211833  0.014264092         1456 
 4860000   0.47252597   -7.3410147    942.75238  0.016165164  0.014259458         1470 
 4861000   0.47235226   -7.3328734    943.35651  0.016172196  0.014254822         1447 
 4862000   0.46784891   -7.3416722    941.44455  0.016136099  0.014250186         1456 
 4863000   0.47459495   -7.3354046     942.8673  0.016157161  0.014245554         1493 
 4864000   0.46710818    -7.318338    944.47388  0.016181365  0.014240924         1494 
 4865000   0.47895776   -7.3202738    942.94339  0.016151822  0.014236296         1496 
 4866000   0.47544308    -7.328429    943.47078  0.016157535  0.014231672         1502 
 4867000   0.47457025   -7.3481494    943.54232   0.01615544  0.014227043         1450 
 4868000   0.47210788   -7.3381433    943.00776   0.01614297  0.014222418         1550 
 4869000    0.4740417   -7.3216002    943.20092  0.016142961    0.0142178         1586 
 4870000   0.46459338    -7.324743    943.64378  0.016147224  0.014213182         1543 
 4871000   0.45932339   -7.3373805    944.19365  0.016153316  0.014208565         1538 
 4872000   0.46550095    -7.335719    942.42751  0.016119792  0.014203949         1506 
 4873000   0.47864312   -7.3354795    943.33331  0.016131974  0.014199337         1552 
 4874000    0.4652958    -7.341535    943.04092  0.016123665  0.014194727         1525 
 4875000   0.47716547   -7.3316625    942.26909  0.016107164  0.014190114         1587 
 4876000   0.48962834   -7.3281973    942.77879  0.016112572  0.014185512         1483 
 4877000   0.46869259   -7.3394093    943.47371  0.016121142  0.014180911         1417 
 4878000    0.4664018   -7.3273712    943.98019  0.016126489  0.014176311         1517 
 4879000   0.47145313   -7.3505222    943.82373  0.016120512  0.014171708         1413 
 4880000   0.46181491   -7.3362708    943.75664  0.016116063  0.014167105         1541 
 4881000   0.47471206    -7.346978    943.49141  0.016108233  0.014162508         1471 
 4882000   0.47043423   -7.3389096    941.87212  0.016077293   0.01415791         1414 
 4883000   0.47817427    -7.322424    944.46071  0.016118177   0.01415332         1490 
 4884000    0.4744543   -7.3258971    943.52429  0.016098899  0.014148725         1450 
 4885000   0.48117353   -7.3462689    943.15877  0.016089368  0.014144136         1329 
 4886000   0.47461984   -7.3377435    943.29341  0.016088372  0.014139543         1399 
 4887000    0.4676938   -7.3424048    942.79778  0.016076628  0.014134955         1429 
 4888000   0.47950225   -7.3469865    942.28926   0.01606467  0.014130367         1379 
 4889000   0.46607928   -7.3484103    944.10883  0.016092398  0.014125783         1449 
 4890000   0.46026055   -7.3519681    942.51362  0.016061923    0.0141212         1479 
 4891000   0.45732179   -7.3468252    942.36638   0.01605613  0.014116619         1443 
 4892000   0.46320158   -7.3403321    943.96626  0.016080101  0.014112041         1406 
 4893000   0.47434378    -7.337453    942.87291  0.016058194  0.014107463         1459 
 4894000   0.47118857   -7.3437238    941.89155  0.016038202  0.014102889         1436 
 4895000   0.46129456   -7.3364768     942.9654  0.016053207  0.014098317         1393 
 4896000   0.46270224   -7.3330155    943.85151  0.016065011  0.014093751         1388 
 4897000   0.46965477   -7.3274769    943.68335  0.016058869  0.014089186         1421 
 4898000   0.47485046   -7.3404626    944.14807  0.016063497  0.014084619         1409 
 4899000   0.47745473   -7.3494903    943.40957  0.016047655  0.014080052         1419 
 4900000   0.45931732   -7.3391931    942.41157  0.016027408  0.014075488         1510 
 4901000   0.45680901   -7.3283009    941.32956   0.01600574  0.014070924         1492 
 4902000   0.47016914   -7.3370406    942.38311  0.016020385  0.014066361         1420 
 4903000   0.47027316   -7.3398265     943.7079  0.016039634  0.014061801         1619 
 4904000   0.47742024   -7.3436103    942.99431  0.016024237  0.014057241         1576 
 4905000   0.46410537   -7.3537775    942.24402  0.016008223  0.014052688         1428 
 4906000   0.46894316   -7.3423119    942.88869  0.016015911  0.014048133         1458 
 4907000    0.4547414   -7.3516994    943.34899  0.016020464  0.014043582         1398 
 4908000   0.47522871   -7.3355078    946.12952  0.016064411  0.014039034         1435 
 4909000   0.47014068   -7.3521268    942.42108  0.015998185  0.014034493         1374 
 4910000   0.45566282   -7.3406176    942.75119  0.016000529  0.014029946         1361 
 4911000   0.46724288   -7.3263559    943.94762  0.016017573  0.014025401         1433 
 4912000   0.46253247   -7.3624735    941.56974  0.015973971  0.014020856         1408 
 4913000   0.46875813   -7.3516114    943.31073   0.01600025  0.014016308         1438 
 4914000   0.46348436   -7.3604069    942.79209  0.015988199  0.014011766         1473 
 4915000   0.46299027   -7.3551955    943.82049  0.016002382   0.01400722         1460 
 4916000   0.46410638   -7.3396057    943.09186  0.015986775  0.014002679         1480 
 4917000   0.45700734   -7.3643078    942.09621   0.01596665  0.013998143         1466 
 4918000   0.46667945   -7.3453699    942.23273  0.015965717  0.013993606         1549 
 4919000   0.46066745   -7.3596346    942.81534  0.015972341  0.013989067         1487 
 4920000   0.47444495   -7.3668281    942.92111  0.015970886   0.01398453         1470 
 4921000   0.46467132   -7.3421163    941.21201  0.015938698  0.013979996         1475 
 4922000   0.46179821   -7.3427398    943.62941  0.015976388  0.013975469         1500 
 4923000   0.46174444   -7.3619404    941.75956  0.015941492   0.01397094         1458 
 4924000   0.47221921   -7.3459486    942.87109  0.015957065  0.013966415         1454 
 4925000   0.46672134   -7.3404788    943.00153  0.015956033  0.013961891         1497 
 4926000   0.46862888   -7.3575436    942.00219  0.015935888  0.013957368         1375 
 4927000   0.46822356   -7.3630228    940.38263  0.015905261  0.013952845         1548 
 4928000   0.46963338   -7.3551429    942.42158  0.015936512  0.013948325         1441 
 4929000   0.46448251   -7.3454256    943.01458  0.015943305  0.013943811         1426 
 4930000    0.4606407   -7.3454074    942.04147  0.015923622  0.013939297         1531 
 4931000   0.45768223   -7.3452309    943.80106  0.015950129  0.013934778         1494 
 4932000    0.4638758   -7.3486819    942.93091  0.015932193  0.013930264         1438 
 4933000    0.4541368   -7.3430633     941.3726  0.015902639   0.01392575         1433 
 4934000   0.45621642   -7.3469003    943.60453  0.015937112  0.013921238         1461 
 4935000   0.45844268   -7.3646406    941.29939  0.015894958  0.013916728         1491 
 4936000    0.4670272   -7.3620016    941.66141  0.015897849  0.013912217         1543 
 4937000   0.45675586   -7.3610164    942.33304  0.015905966  0.013907711         1574 
 4938000    0.4586628   -7.3537463    942.25726  0.015901466  0.013903208         1521 
 4939000    0.4491342     -7.35023    941.46421  0.015884866  0.013898705         1485 
 4940000   0.45380244   -7.3598453    941.11195  0.015875708  0.013894205         1476 
 4941000   0.46074849    -7.361162    942.55366   0.01589681  0.013889709         1561 
 4942000   0.46819392   -7.3563171    940.42236  0.015857655  0.013885215         1582 
 4943000   0.46669065   -7.3504699    941.23456  0.015868139  0.013880719         1535 
 4944000   0.46350519   -7.3521568     942.5443  0.015887006  0.013876223         1526 
 4945000   0.44978303   -7.3599909    941.58786  0.015867675   0.01387173         1485 
 4946000   0.45504822   -7.3635235    941.48801  0.015862785   0.01386724         1570 
 4947000   0.46813329    -7.346023    942.37607  0.015874538  0.013862753         1442 
 4948000   0.45994965   -7.3553825    942.03638  0.015865609  0.013858267         1558 
 4949000   0.46321978   -7.3670682    942.70564  0.015873672  0.013853784         1551 
 4950000   0.46222423   -7.3584945    941.99404  0.015858486  0.013849302         1488 
 4951000   0.45379103   -7.3603064    942.08283  0.015856777  0.013844821         1534 
 4952000   0.45990541   -7.3671325    941.98741  0.015851969  0.013840343         1560 
 4953000   0.45512339    -7.360249    940.94072  0.015831158  0.013835869         1504 
 4954000    0.4555932   -7.3534026    942.14925  0.015848292  0.013831393         1536 
 4955000   0.45915732   -7.3653829     941.1996  0.015829122  0.013826916         1540 
 4956000   0.45841729   -7.3663003    941.28848  0.015827423  0.013822441         1426 
 4957000   0.46269909    -7.359098    944.28745  0.015874646  0.013817969         1468 
 4958000   0.46860642   -7.3652972    941.53672   0.01582521  0.013813502         1537 
 4959000   0.46648926   -7.3551591    941.50058  0.015821412  0.013809031         1472 
 4960000   0.45558315   -7.3678832    942.08791   0.01582809  0.013804568         1383 
 4961000   0.45901557   -7.3629727    944.17463  0.015859951  0.013800109         1539 
 4962000    0.4572163   -7.3525362    941.00263  0.015803484  0.013795648         1621 
 4963000    0.4658736   -7.3713558    940.83424  0.015797472  0.013791189         1544 
 4964000   0.46448358    -7.352714    943.18666  0.015833781  0.013786736         1462 
 4965000   0.46381539   -7.3537252    941.98998  0.015810507  0.013782282         1439 
 4966000   0.45590891   -7.3535626    941.79854   0.01580411  0.013777829         1503 
 4967000   0.47219102   -7.3509878    943.40626  0.015827902  0.013773374         1487 
 4968000   0.45938044   -7.3688905    941.02244   0.01578473  0.013768921         1583 
 4969000   0.46789402   -7.3602294    942.32864  0.015803459  0.013764473         1478 
 4970000   0.46065336   -7.3501659    942.01598  0.015795037  0.013760027         1537 
 4971000   0.45959598   -7.3590826    941.83238  0.015788781  0.013755584         1470 
 4972000    0.4587525   -7.3529978    943.15879  0.015807837  0.013751142         1555 
 4973000   0.46036086   -7.3611789    940.33766  0.015757384  0.013746701         1519 
 4974000   0.45732156   -7.3619106    941.47567  0.015773282  0.013742261         1468 
 4975000   0.44992885   -7.3781355     942.0969  0.015780518  0.013737824         1551 
 4976000   0.45460607   -7.3598568    941.65699  0.015769979  0.013733386         1474 
 4977000   0.45073066   -7.3401278    942.36971  0.015778744  0.013728952         1559 
 4978000     0.458532   -7.3672702    942.08311  0.015770777  0.013724518         1461 
 4979000   0.45377745   -7.3684451    940.23874   0.01573674  0.013720084         1536 
 4980000   0.44502027   -7.3468376    940.96739  0.015745773  0.013715651         1498 
 4981000   0.45710932   -7.3387014    942.91604  0.015775213  0.013711228         1546 
 4982000   0.45628006   -7.3650119    942.92734  0.015772236  0.013706805         1532 
 4983000   0.45224615   -7.3596726    941.18201  0.015739882  0.013702382         1604 
 4984000   0.45652796   -7.3757402    942.01924  0.015750723  0.013697957         1518 
 4985000   0.44563997    -7.362166    941.38343  0.015736935  0.013693537         1457 
 4986000   0.45752916   -7.3761745     943.3481  0.015766615  0.013689116         1495 
 4987000   0.44456099   -7.3634336    941.98004  0.015740593  0.013684699         1548 
 4988000   0.46265873   -7.3688345    940.56959  0.015713873   0.01368028         1471 
 4989000   0.45719679   -7.3627878    944.11813  0.015769996  0.013675866         1500 
 4990000   0.45582256   -7.3636161    942.22228  0.015735175  0.013671452         1489 
 4991000   0.45921872   -7.3810553    940.89787  0.015709909  0.013667043         1536 
 4992000   0.45739055   -7.3558266    941.76679  0.015721267  0.013662631         1469 
 4993000   0.46220241   -7.3778712    942.09524    0.0157236  0.013658225         1571 
 4994000   0.45476605   -7.3626185    940.38178   0.01569186  0.013653821         1550 
 4995000   0.45072891   -7.3461208    943.02291  0.015732781  0.013649418         1523 
 4996000   0.44144974   -7.3746507    940.77908  0.015692205   0.01364502         1427 
 4997000    0.4463636   -7.3813833    940.61089   0.01568626  0.013640618         1610 
 4998000   0.46004481   -7.3710513    941.53684   0.01569856  0.013636224         1492 
 4999000   0.45739464   -7.3754278    942.32377  0.015708538  0.013631828         1512 
 5000000   0.45820261   -7.3727216    940.37618  0.015672936  0.013627437         1574 
 5001000   0.45997607   -7.3750225    942.79978  0.015710188  0.013623047         1515 
 5002000   0.44783698   -7.3778282     942.8778  0.015708347  0.013618658         1583 
 5003000   0.45181167   -7.3739359     941.7614  0.015686611  0.013614266         1529 
 5004000   0.44673269   -7.3717793    941.52447  0.015679531  0.013609882         1535 
 5005000   0.45862192   -7.3827844    940.84992  0.015665167  0.013605495         1546 
 5006000    0.4427104   -7.3629013    940.87208  0.015662406  0.013601111         1545 
 5007000   0.46184846   -7.3612274    940.45893  0.015652402  0.013596729         1553 
 5008000   0.43905713   -7.3596896     940.8635  0.015656009  0.013592353         1488 
 5009000   0.44984188   -7.3835984    940.56022  0.015647838  0.013587977         1575 
 5010000   0.44579409   -7.3896586    943.03016  0.015685798  0.013583596         1608 
 5011000   0.44075144    -7.371564    941.66993  0.015660047  0.013579219         1609 
 5012000    0.4560066   -7.3723466    941.17801  0.015648743  0.013574846         1503 
Loop time of 13065.2 on 48 procs for 5000000 steps with 4000 atoms

Performance: 66129.898 tau/day, 382.696 timesteps/s
99.4% CPU use with 48 MPI tasks x no OpenMP threads

MPI task timing breakdown:
Section |  min time  |  avg time  |  max time  |%varavg| %total
---------------------------------------------------------------
Pair    | 974.41     | 1041.9     | 1109.7     | 112.5 |  7.97
Neigh   | 91.405     | 94.055     | 97.28      |  15.2 |  0.72
Comm    | 849.54     | 909.23     | 983.88     | 120.5 |  6.96
Output  | 27.692     | 27.697     | 27.793     |   0.3 |  0.21
Modify  | 10843      | 10872      | 10897      |  13.7 | 83.22
Other   |            | 120        |            |       |  0.92

Nlocal:        83.3333 ave          89 max          77 min
Histogram: 3 0 3 1 14 12 5 4 4 2
Nghost:        2421.02 ave        2439 max        2403 min
Histogram: 2 2 7 3 6 15 6 2 1 4
Neighs:        16755.8 ave       19455 max       14544 min
Histogram: 1 8 7 6 5 7 6 2 5 1
FullNghs:      33510.9 ave       36120 max       30815 min
Histogram: 2 1 3 10 10 5 9 3 2 3

Total # of neighbors = 1608525
Ave neighs/atom = 402.13125
Neighbor list builds = 267531
Dangerous builds = 0

#clear
#
#next RN
#
#jump SELF
Total wall time: 3:37:48
