
units lj                  # Use reduced LJ style units
atom_style atomic         # Uncharged point particles
atom_modify map hash      # Needed for indexing of clusters etc
                          # Used to be able to find where atoms are in relation to each other.

# Define a lattice with which to populate the simulation cell. With units
# set to 'lj' the second argument to the lattice command is the reduced
# density rho* and the spacings are multiples of that required to acheive
# that density. Also define a simulation cell called 'box' in lattice units
# and fill it with atoms. Here we're creating a box which is ten lattice
# constants in each direction.
lattice fcc 1.0 spacing 1 1 1                 # All equal sizes - gives the right reduced density.
Lattice spacing in x,y,z = 1.5874011 1.5874011 1.5874011

region box block 0 10 0 10 0 10 units lattice # Defines a region, "box", in lattice units
create_box 1 box                              # Creates a simulation box as specified above,
Created orthogonal box = (0.0000000 0.0000000 0.0000000) to (15.874011 15.874011 15.874011)
  3 by 4 by 4 MPI processor grid
                                              # with one type of atom
create_atoms 1 box                            # Creates particles on lattice points
Created 4000 atoms
  using lattice units in orthogonal box = (0.0000000 0.0000000 0.0000000) to (15.874011 15.874011 15.874011)
  create_atoms CPU = 0.003 seconds


# Set the mass of the first (and only) atom type.
mass 1 1.0

# Lennard-Jones interactions between particles, 3.5 sigma cut-off. Apply
# long range tail corrections to energy and pressure and set all coefficients
# to unity since we work in reduced units here. Note that this doesn't shift
# the potential such that it goes to zero at the cutoff. That would require
# pair_modify('shift', 'yes').
pair_style lj/cut  3.5      # non-GPU version
pair_modify tail  yes
pair_coeff 1  1  1.0  1.0   # Intearaction between 1 and 1 set with epsilon = 1 and sigma = 1

write_data data.*
System init for write_data ...
Neighbor list info ...
  update every 1 steps, delay 10 steps, check yes
  max neighbors/atom: 2000, page size: 100000
  master list distance cutoff = 3.8
  ghost atom cutoff = 3.8
  binsize = 1.9, bins = 9 9 9
  1 neighbor lists, perpetual/occasional/extra = 1 0 0
  (1) pair lj/cut, perpetual
      attributes: half, newton on
      pair build: half/bin/atomonly/newton
      stencil: half/bin/3d
      bin: standard

#############################
#   M E L T   S Y S T E M   #
#############################

velocity all create 2.4 3143649 mom yes dist gaussian # Assign velocities
                                                    # Temperature 2.4, random number seed, zero linear momentum
						                                                        # Gaussian distribution

timestep 0.002   # simulation timestep
thermo 1000       # output thermodynamic data every 1000 steps

# Define a fix  in this case with index 1 applied to all
# particles in the simulation. This fix is for simulations
# in the anisotropic NPT ensemble. Note that we use the MTK
# correction.
fix 1 all npt temp 2.4 2.4 0.1 iso 5.68 5.68 0.5 mtk yes tchain 5 pchain 5 # Use NPT ensemble
                                                                         # Set temperature and pressure and damping
                                                                         # Numbers of thermostats in chain and in barostat
run 1000         # run for 10000 steps
Per MPI rank memory allocation (min/avg/max) = 3.642 | 3.644 | 3.648 Mbytes
Step Temp E_pair E_mol TotEng Press Volume 
       0          2.4   -8.3859253            0   -4.7868253   -2.2405722         4000 
    1000    2.3556826   -4.4218277            0  -0.88918722    5.9178648    5149.9434 
Loop time of 0.238006 on 48 procs for 1000 steps with 4000 atoms

Performance: 726031.522 tau/day, 4201.571 timesteps/s
99.3% CPU use with 48 MPI tasks x no OpenMP threads

MPI task timing breakdown:
Section |  min time  |  avg time  |  max time  |%varavg| %total
---------------------------------------------------------------
Pair    | 0.08944    | 0.10121    | 0.11395    |   1.5 | 42.52
Neigh   | 0.017356   | 0.018686   | 0.021288   |   0.5 |  7.85
Comm    | 0.06757    | 0.079313   | 0.090539   |   2.0 | 33.32
Output  | 3.0085e-05 | 3.0904e-05 | 3.7485e-05 |   0.0 |  0.01
Modify  | 0.033561   | 0.037195   | 0.043865   |   1.5 | 15.63
Other   |            | 0.00157    |            |       |  0.66

Nlocal:        83.3333 ave          91 max          77 min
Histogram: 5 1 7 7 6 11 2 6 0 3
Nghost:        1399.19 ave        1422 max        1377 min
Histogram: 1 1 6 6 12 10 4 2 3 3
Neighs:        7397.58 ave        8529 max        6755 min
Histogram: 5 7 9 9 9 3 3 1 0 2

Total # of neighbors = 355084
Ave neighs/atom = 88.771000
Neighbor list builds = 86
Dangerous builds = 18

# Equilibrate just above the melting temperature to avoid step fn in T

fix 1 all npt temp 1.25 1.25 0.1 iso 5.68 5.68 0.5 mtk yes tchain 5 pchain 5
run 1000
Per MPI rank memory allocation (min/avg/max) = 3.642 | 3.644 | 3.648 Mbytes
Step Temp E_pair E_mol TotEng Press Volume 
    1000    2.3556826   -4.4218277            0  -0.88918722    5.9178648    5149.9434 
    2000    1.2718396   -5.8179173            0   -3.9106348    5.8388957    4340.7158 
Loop time of 0.222288 on 48 procs for 1000 steps with 4000 atoms

Performance: 777371.365 tau/day, 4498.677 timesteps/s
99.5% CPU use with 48 MPI tasks x no OpenMP threads

MPI task timing breakdown:
Section |  min time  |  avg time  |  max time  |%varavg| %total
---------------------------------------------------------------
Pair    | 0.093157   | 0.10094    | 0.1183     |   1.6 | 45.41
Neigh   | 0.015526   | 0.016197   | 0.018963   |   0.5 |  7.29
Comm    | 0.06374    | 0.079111   | 0.090889   |   2.0 | 35.59
Output  | 2.3334e-05 | 2.4097e-05 | 2.9793e-05 |   0.0 |  0.01
Modify  | 0.019333   | 0.024038   | 0.029894   |   1.8 | 10.81
Other   |            | 0.001979   |            |       |  0.89

Nlocal:        83.3333 ave          89 max          77 min
Histogram: 4 4 1 5 6 7 7 6 3 5
Nghost:        1554.81 ave        1572 max        1531 min
Histogram: 1 1 2 6 7 10 4 10 2 5
Neighs:        8780.42 ave        9530 max        7727 min
Histogram: 1 0 5 5 4 10 6 8 6 3

Total # of neighbors = 421460
Ave neighs/atom = 105.36500
Neighbor list builds = 74
Dangerous builds = 4


# Small amount of linear quench

fix 1 all npt temp 1.25 ${temp} 0.1 iso 5.68 5.68 0.5 mtk yes tchain 5 pchain 5
fix 1 all npt temp 1.25 0.16 0.1 iso 5.68 5.68 0.5 mtk yes tchain 5 pchain 5
run 2000
Per MPI rank memory allocation (min/avg/max) = 3.643 | 3.645 | 3.648 Mbytes
Step Temp E_pair E_mol TotEng Press Volume 
    2000    1.2718396   -5.8179173            0   -3.9106348    5.8388957    4340.7158 
    3000   0.79641013   -6.4754984            0   -5.2811819    5.8374932    4054.9109 
    4000   0.28337034   -7.2962266            0   -6.8712774    5.7287909    3767.5268 
Loop time of 0.47557 on 48 procs for 2000 steps with 4000 atoms

Performance: 726706.526 tau/day, 4205.478 timesteps/s
99.6% CPU use with 48 MPI tasks x no OpenMP threads

MPI task timing breakdown:
Section |  min time  |  avg time  |  max time  |%varavg| %total
---------------------------------------------------------------
Pair    | 0.20994    | 0.22894    | 0.27883    |   2.9 | 48.14
Neigh   | 0.023018   | 0.024179   | 0.027784   |   0.7 |  5.08
Comm    | 0.12568    | 0.16939    | 0.1891     |   3.9 | 35.62
Output  | 4.7353e-05 | 4.9278e-05 | 6.1488e-05 |   0.0 |  0.01
Modify  | 0.037711   | 0.047435   | 0.067397   |   3.7 |  9.97
Other   |            | 0.005577   |            |       |  1.17

Nlocal:        83.3333 ave          92 max          76 min
Histogram: 4 5 1 10 4 11 7 1 4 1
Nghost:        1705.62 ave        1723 max        1686 min
Histogram: 2 0 4 4 14 8 8 2 3 3
Neighs:        10203.1 ave       11310 max        9098 min
Histogram: 3 4 1 6 12 6 7 4 2 3

Total # of neighbors = 489751
Ave neighs/atom = 122.43775
Neighbor list builds = 104
Dangerous builds = 0

#############################
# F R E E Z E  S Y S T E M  #
#############################

# Define solid atoms. This closely follows ten Wolde  Ruiz-Montero and Frenkel  Faraday Discuss  1996  104  93-110
# Compute components of the per-atom q6 vector
compute q6 all orientorder/atom degrees 1 6 components 6 nnn NULL cutoff 1.3 # compute the Q6 parameter.
                                                                             # Use all neighbours within 1.3 unit cell.

# get number of connections
compute coord_number all coord/atom orientorder q6 0.5

# An atom is solid if it has 8 or more connections (of a possible 14)
variable is_solid atom c_coord_number>=8
group solid dynamic all var is_solid    # Must be dynamic to update
dynamic group solid defined

# do clustering
compute cluster solid cluster/atom 1.3 # Create a cluster where all atoms within are solid and max 1.3 units from another member

# define chunks one chunk per cluster
compute clus_chunks solid chunk/atom c_cluster nchunk every compress yes  # Says which atoms are in which chunk

# count the size of each chunk
compute size_chunks solid property/chunk clus_chunks count


# Find the maximum entry in the vector of chunk sizes
variable max_n equal max(c_size_chunks)


# Thermo style which includes this variable
thermo_style custom step temp pe vol v_max_n

thermo ${N}  # Print the thermo information every 100 steps
thermo 1000  

# Reset the npt fix at a lower temperature (below freezing)
fix 1  all npt temp  ${temp} ${temp}  0.1  iso  5.68  5.68  0.5  mtk yes tchain  5  pchain  5
fix 1  all npt temp  0.16 ${temp}  0.1  iso  5.68  5.68  0.5  mtk yes tchain  5  pchain  5
fix 1  all npt temp  0.16 0.16  0.1  iso  5.68  5.68  0.5  mtk yes tchain  5  pchain  5

dump dmp2 all dcd ${N} traj_${rand}.dcd
dump dmp2 all dcd 1000 traj_${rand}.dcd
dump dmp2 all dcd 1000 traj_462431.dcd


# fix rnuntil all halt ${N} v_max_n >= 3980 error soft message no   # Stop when solidified


run 1000000 # 5000000  # Run for this many steps
Neighbor list info ...
  update every 1 steps, delay 10 steps, check yes
  max neighbors/atom: 2000, page size: 100000
  master list distance cutoff = 3.8
  ghost atom cutoff = 3.8
  binsize = 1.9, bins = 9 9 9
  4 neighbor lists, perpetual/occasional/extra = 1 3 0
  (1) pair lj/cut, perpetual
      attributes: half, newton on
      pair build: half/bin/atomonly/newton
      stencil: half/bin/3d
      bin: standard
  (2) compute orientorder/atom, occasional
      attributes: full, newton on
      pair build: full/bin/atomonly
      stencil: full/bin/3d
      bin: standard
  (3) compute coord/atom, occasional
      attributes: full, newton on
      pair build: full/bin/atomonly
      stencil: full/bin/3d
      bin: standard
  (4) compute cluster/atom, occasional
      attributes: full, newton on
      pair build: full/bin/atomonly
      stencil: full/bin/3d
      bin: standard
Per MPI rank memory allocation (min/avg/max) = 9.391 | 9.395 | 9.400 Mbytes
Step Temp PotEng Volume v_max_n 
    4000   0.28337034   -7.2962266    3767.5268           74 
    5000   0.16130278   -7.5025613    3704.4988           68 
    6000   0.16056191   -7.5321823    3697.6342           94 
    7000    0.1613489   -7.5500843    3695.8274           95 
    8000   0.15965684   -7.5497776    3688.2891          228 
    9000   0.16054746   -7.5512024     3687.716          268 
   10000   0.16335772   -7.5623909    3688.2245          188 
   11000   0.16023776   -7.5735202    3687.3185          386 
   12000   0.15669755   -7.5654552    3681.9591          420 
   13000   0.16287862   -7.5760424    3689.9093          378 
   14000   0.16203982   -7.5773114    3684.5935          336 
   15000   0.16187057   -7.5803341    3687.9241          474 
   16000   0.16011831   -7.5818147    3679.9509          357 
   17000   0.16478381   -7.5849986    3684.6938          548 
   18000   0.16228694   -7.5813221    3682.5959          563 
   19000   0.16012053   -7.5903869     3686.454          541 
   20000   0.15844629   -7.5837546    3680.2542          562 
   21000   0.15964009   -7.5890755    3683.2272          578 
   22000   0.15934534   -7.5924723    3681.3262          661 
   23000   0.16156906    -7.588989    3680.6787          705 
   24000   0.16006528   -7.5919342    3679.9298          699 
   25000    0.1612728   -7.5850344    3677.7674          699 
   26000   0.15900829   -7.5960965    3678.1525          658 
   27000   0.15911653   -7.5981735    3679.3452          553 
   28000   0.15977905   -7.5913951    3673.5402          736 
   29000   0.16054459   -7.5970063    3680.6498          674 
   30000   0.15891384   -7.5975385    3679.6171          663 
   31000    0.1661371   -7.5980081    3677.1594          630 
   32000   0.16052891   -7.5953319     3674.344          647 
   33000   0.16158876   -7.6042323    3680.6099          705 
   34000   0.16157767   -7.6018419    3678.6204          707 
   35000    0.1610918   -7.5980611    3679.8448          632 
   36000   0.16404091   -7.5959294    3675.9227          712 
   37000   0.16036947   -7.5920784    3675.8487          743 
   38000   0.16358336   -7.5968144    3678.5906          692 
   39000   0.16117021   -7.5954344     3675.204          723 
   40000   0.15856142   -7.5985042    3679.0363          750 
   41000   0.15775762   -7.5948328    3679.6379          716 
   42000   0.16280294   -7.5921309    3671.4453          769 
   43000   0.15983529    -7.604911    3684.4299          732 
   44000    0.1648669   -7.5939686     3673.702          718 
   45000   0.15893129   -7.5955199    3677.5011          733 
   46000   0.16181275    -7.601413    3678.2109          711 
   47000   0.15699492   -7.5958545    3674.8557          707 
   48000   0.16078069    -7.597368    3676.6337          720 
   49000   0.16273491   -7.5964803    3678.1565          739 
   50000    0.1588211   -7.5915205    3673.9257          702 
   51000   0.15923088    -7.602491    3675.3373          730 
   52000   0.16116665    -7.601151     3678.793          675 
   53000   0.15845417   -7.5975891     3675.152          691 
   54000    0.1615063   -7.5962535    3676.2192          670 
   55000   0.15852436   -7.6053897    3681.3551          659 
   56000   0.16252339   -7.5971947     3674.208          741 
   57000   0.16293833   -7.6045177      3677.55          703 
   58000   0.15944114   -7.6007328    3677.7684          776 
   59000   0.16151714   -7.5983914    3671.9702          670 
   60000    0.1607864   -7.5981397    3673.5799          779 
   61000   0.16118473   -7.6011468    3679.6925          774 
   62000    0.1587936   -7.6006986    3678.5002          764 
   63000   0.16041447   -7.6058127     3679.939          762 
   64000   0.16247417   -7.5942183    3671.4737          799 
   65000   0.15942825   -7.5984226    3677.7287          765 
   66000   0.16006238   -7.5980807    3676.2681          796 
   67000   0.16034322   -7.5983156    3676.2717          716 
   68000   0.15670013   -7.6021725    3678.5114          715 
   69000   0.15767056   -7.5960043     3673.739          781 
   70000   0.15860149   -7.5981427    3675.7944          792 
   71000   0.16307383    -7.595704    3673.2056          788 
   72000   0.15953514   -7.5977639    3675.5437          672 
   73000   0.15881161   -7.6039285    3677.5556          694 
   74000   0.15537834    -7.601661    3677.2519          831 
   75000   0.16162055   -7.6044819    3679.7073          837 
   76000    0.1618563    -7.602237    3675.7672          846 
   77000   0.15865986    -7.599253    3672.3572          885 
   78000   0.16090549   -7.6012494    3675.3174          893 
   79000     0.156573   -7.6049097    3677.0995          919 
   80000   0.15783439   -7.6112503     3679.173          917 
   81000   0.16227218   -7.6051028    3677.4946          877 
   82000   0.15917312   -7.6080012    3673.2744          866 
   83000   0.15986404    -7.610343    3675.6381          862 
   84000   0.16045092   -7.6111344    3675.8619          883 
   85000   0.15856307    -7.604736    3672.6358          906 
   86000   0.15778942   -7.6054828     3677.027          909 
   87000    0.1584829   -7.6097002    3676.6133          916 
   88000   0.16036621   -7.6170221     3679.195          872 
   89000    0.1627511   -7.6119815    3674.5462          870 
   90000   0.16423517   -7.6076268    3675.2834          877 
   91000   0.16119388   -7.6081512    3676.9338          910 
   92000   0.16165741   -7.6086503    3677.4481          919 
   93000   0.15659956   -7.6052866     3672.289          919 
   94000   0.16163881   -7.6062846    3669.8206          939 
   95000    0.1632558   -7.6149956    3676.4973          917 
   96000   0.15977164   -7.6097615     3673.483          936 
   97000    0.1605142   -7.6026939    3671.8953          925 
   98000   0.16202617   -7.6115175     3673.599          892 
   99000   0.15725617   -7.6047527    3671.1563          963 
  100000   0.15881301   -7.6198691     3673.759         1021 
  101000   0.15848463    -7.611799    3672.4833          990 
  102000   0.16206802   -7.6042245    3671.6314         1023 
  103000   0.16216032   -7.6005302     3667.773         1085 
  104000   0.15704747   -7.6087017    3676.3219          984 
  105000   0.15904498    -7.598352    3669.8772         1008 
  106000   0.15847907    -7.614697    3676.4554         1013 
  107000   0.16508816   -7.6104885     3672.976         1065 
  108000    0.1567831   -7.6109058    3671.6093         1053 
  109000   0.16212863   -7.6066669    3671.6075         1022 
  110000   0.15900896   -7.6124541    3673.2627         1018 
  111000   0.16085574   -7.6087221    3669.4818         1058 
  112000   0.15632384   -7.6129064    3673.3888         1019 
  113000   0.16410132    -7.617429     3677.741         1011 
  114000   0.15638613   -7.6101836    3672.2095         1014 
  115000   0.16100145   -7.6190111    3675.0558         1019 
  116000   0.15803446   -7.6106571     3669.825         1017 
  117000   0.16053713   -7.6076157    3674.0962         1003 
  118000   0.15950946   -7.6104848    3674.6714         1077 
  119000   0.16000637   -7.6156924    3673.3875         1037 
  120000   0.15867273   -7.6058714    3670.0256         1024 
  121000   0.16090931   -7.6132939    3674.7899         1050 
  122000   0.16321011   -7.6130672    3673.2402         1035 
  123000   0.15953347   -7.6109672    3676.6228         1078 
  124000   0.15751588   -7.6125253    3671.1014         1107 
  125000   0.15942961   -7.6073864    3673.0635         1064 
  126000   0.16067742   -7.6075195     3674.354         1057 
  127000   0.15895008   -7.6077872    3670.7055         1110 
  128000   0.15895787    -7.622462    3677.1489         1134 
  129000   0.15682271    -7.612729    3670.4364         1133 
  130000   0.15664796   -7.6091224     3673.179         1082 
  131000   0.16173558   -7.6209479    3676.1081         1079 
  132000   0.15993089   -7.6132473    3673.2898         1168 
  133000   0.15740227   -7.6095741    3669.0732         1142 
  134000   0.16178663   -7.6210799    3672.0163         1166 
  135000   0.16240852   -7.6180737    3673.3659         1153 
  136000    0.1588766   -7.6141483    3669.0855         1118 
  137000   0.15556599   -7.6199366    3670.4709         1093 
  138000   0.15673788   -7.6218755    3673.1843         1196 
  139000   0.15934177   -7.6116245    3669.9292         1157 
  140000   0.15878222    -7.612797    3669.7611         1125 
  141000   0.16026029   -7.6213926    3673.3723         1153 
  142000   0.16040996   -7.6187193    3672.0342         1111 
  143000    0.1626851   -7.6222757    3671.6165         1099 
  144000   0.16263354   -7.6193628    3672.0605         1099 
  145000   0.16248873   -7.6166801    3672.0873         1120 
  146000   0.16099656   -7.6102578    3668.5303         1104 
  147000   0.16218407    -7.619825    3673.2171         1143 
  148000   0.15984325   -7.6184117    3670.5904         1147 
  149000   0.15840261   -7.6201037    3669.0873         1153 
  150000   0.16119133   -7.6183602    3669.9442         1152 
  151000   0.16065142   -7.6198806    3673.1629         1033 
  152000   0.16066274   -7.6166535    3664.7988         1100 
  153000   0.16058542   -7.6263758     3675.281         1114 
  154000   0.16108109    -7.621697    3671.7968         1169 
  155000   0.15831736   -7.6236139    3669.2411         1135 
  156000   0.15964203   -7.6233525    3669.6586         1116 
  157000   0.15845759   -7.6139746    3667.4265         1079 
  158000    0.1584419   -7.6194044    3671.4316         1125 
  159000   0.16259968   -7.6202206    3671.9761         1180 
  160000   0.15811276   -7.6248181    3674.9294         1096 
  161000   0.15960265    -7.618788    3668.7714         1164 
  162000     0.163909   -7.6192403    3669.3826         1205 
  163000   0.15983718    -7.622868    3672.5214         1178 
  164000   0.15744877   -7.6172433    3669.5681         1209 
  165000    0.1600279   -7.6169512    3669.0363         1215 
  166000   0.15824733   -7.6176666     3674.076         1149 
  167000   0.15903048   -7.6200094     3669.752         1211 
  168000   0.15894997   -7.6222845    3668.5176         1189 
  169000   0.15868677   -7.6207839    3669.7289         1212 
  170000   0.15856806   -7.6221578    3671.5417         1149 
  171000   0.15852383   -7.6171051    3672.9506         1207 
  172000   0.15958318   -7.6211327    3670.8348         1201 
  173000   0.15771488    -7.618388    3672.1752         1180 
  174000   0.15897361   -7.6234931    3676.0877         1195 
  175000   0.15759897   -7.6169444    3668.6916         1188 
  176000   0.15995282   -7.6153535    3670.2242         1190 
  177000    0.1637833   -7.6184584    3669.6169         1147 
  178000    0.1592603   -7.6175582    3672.5495         1177 
  179000   0.16242673   -7.6229776    3671.1299         1188 
  180000   0.16117941   -7.6090725    3665.9339         1165 
  181000   0.15923376   -7.6201097    3671.7782         1163 
  182000   0.15894651   -7.6234101    3673.2616         1182 
  183000   0.15925338   -7.6142676    3669.1962         1194 
  184000   0.16169557   -7.6248056    3670.2078         1168 
  185000   0.15610361   -7.6176528    3664.8886         1152 
  186000   0.15785816   -7.6193613    3672.2419         1197 
  187000   0.16344977   -7.6169681    3668.6029         1170 
  188000   0.16096109   -7.6188372    3669.2085         1162 
  189000   0.16120128   -7.6277154    3674.2829         1178 
  190000   0.16226806   -7.6180938    3668.1173         1158 
  191000    0.1579783   -7.6218099    3667.5204         1175 
  192000   0.16374438   -7.6209912     3670.515         1164 
  193000   0.16237206   -7.6295904    3676.1008         1136 
  194000   0.15914251   -7.6170601    3668.5831         1179 
  195000   0.15944137   -7.6201343     3668.795         1181 
  196000   0.16020025   -7.6259002    3672.9511         1131 
  197000   0.16298584   -7.6130995    3671.3821         1174 
  198000   0.16079501   -7.6127089     3670.409         1160 
  199000   0.15648837   -7.6215095    3671.9624         1188 
  200000     0.162596   -7.6138241    3668.9592         1158 
  201000   0.15905079   -7.6307902    3672.1423         1130 
  202000   0.15681941   -7.6235728    3674.0216         1138 
  203000   0.16351329   -7.6187019    3669.6991         1187 
  204000   0.16342163   -7.6313687    3673.2705         1140 
  205000   0.16076038   -7.6250412    3670.5827         1193 
  206000   0.15920782    -7.616993    3669.5644         1190 
  207000   0.16095772   -7.6164017    3667.9547         1152 
  208000   0.15796872   -7.6207749    3675.4483         1171 
  209000   0.16032984   -7.6187635    3669.4714         1195 
  210000   0.16268036   -7.6225322     3673.213         1153 
  211000   0.16485564    -7.622052    3671.1114         1150 
  212000   0.15630325   -7.6208573    3670.4865         1170 
  213000   0.16210672    -7.613254    3666.8293         1124 
  214000   0.16182731   -7.6194264    3673.5123         1196 
  215000   0.15988539    -7.623777    3674.0338         1198 
  216000   0.16221384   -7.6155377    3667.9884         1162 
  217000   0.16280254   -7.6230735    3673.6236         1185 
  218000   0.15992281   -7.6200793    3670.5496         1130 
  219000   0.15877202   -7.6221739    3670.1342         1195 
  220000   0.15798067   -7.6240221    3671.3647         1190 
  221000    0.1638815   -7.6185936    3667.6795         1159 
  222000   0.16070865   -7.6251257    3674.1599         1185 
  223000   0.16252265   -7.6222977    3669.8452         1193 
  224000   0.16146094   -7.6211551    3667.5387         1190 
  225000    0.1582376   -7.6192245    3671.6154         1202 
  226000   0.16186399   -7.6300173    3673.1854         1141 
  227000   0.15816586   -7.6214202     3669.576         1217 
  228000   0.16228871   -7.6161126    3671.4286         1182 
  229000   0.16168947   -7.6180512    3668.9213         1168 
  230000   0.15950394   -7.6237422    3671.6085         1215 
  231000   0.16085555    -7.623219    3673.7243         1229 
  232000   0.16201559   -7.6210382    3667.7321         1208 
  233000   0.15981618   -7.6210275    3672.8615         1206 
  234000   0.16268619   -7.6201472    3670.7296         1184 
  235000   0.15831461   -7.6171029    3668.8734         1217 
  236000   0.16116787   -7.6238701    3671.4807         1188 
  237000    0.1573845   -7.6202661    3667.8142         1208 
  238000   0.16237166   -7.6260539    3672.6458         1212 
  239000   0.15617966   -7.6160206    3665.4375         1221 
  240000   0.15862671   -7.6261989    3673.4657         1192 
  241000    0.1633142   -7.6244548     3671.168         1205 
  242000   0.16259876   -7.6097852    3663.7632         1189 
  243000   0.16150289   -7.6222173    3670.7506         1228 
  244000   0.15648308    -7.621473    3673.3852         1231 
  245000   0.15633378   -7.6185311    3670.2666         1185 
  246000   0.16126192   -7.6236126    3674.5439         1150 
  247000   0.15829398   -7.6189552    3669.6121         1228 
  248000   0.16000641   -7.6211593     3670.208         1191 
  249000    0.1587975   -7.6266682    3673.6224         1226 
  250000   0.16000567   -7.6208769    3670.9729         1167 
  251000   0.15935592   -7.6162739    3666.3631         1167 
  252000   0.15824031   -7.6270002    3674.0295         1158 
  253000   0.16191524   -7.6230621     3668.928         1214 
  254000   0.16011251   -7.6176391    3668.2592         1171 
  255000   0.15866923   -7.6254589    3674.1513         1155 
  256000   0.16046676   -7.6198083    3668.6512         1219 
  257000   0.16305939   -7.6253104    3665.5273         1248 
  258000   0.15924737   -7.6242638    3668.6538         1268 
  259000   0.16021524   -7.6234171    3667.6285         1257 
  260000   0.16030337   -7.6266996    3669.8154         1250 
  261000   0.16089844    -7.618633    3667.1091         1251 
  262000   0.15999884   -7.6278508    3671.6667         1215 
  263000   0.16189575   -7.6330242     3669.616         1258 
  264000   0.16010585   -7.6206736    3667.9364         1264 
  265000   0.16052782   -7.6275759    3669.1118         1304 
  266000     0.159094   -7.6292916    3672.7198         1307 
  267000    0.1580454   -7.6228633    3667.3607         1399 
  268000   0.15957458   -7.6256088    3671.7542         1361 
  269000   0.15983997   -7.6276433    3669.6791         1352 
  270000   0.15941831   -7.6306896     3672.331         1288 
  271000   0.16024177   -7.6239134    3666.8371         1383 
  272000   0.16096662   -7.6263165    3665.9127         1361 
  273000   0.16026579   -7.6281775    3670.3571         1363 
  274000   0.15784279   -7.6312155    3669.1212         1343 
  275000   0.16069877    -7.624911    3666.7236         1342 
  276000   0.16112051   -7.6244124    3666.8558         1378 
  277000   0.16239312   -7.6336189    3668.8076         1378 
  278000   0.16256547   -7.6334768    3674.6507         1346 
  279000   0.16161118   -7.6287386    3667.0338         1357 
  280000   0.15993983   -7.6242353    3670.5573         1382 
  281000   0.15999868    -7.633577    3671.6855         1395 
  282000   0.16087263   -7.6309138    3667.5237         1408 
  283000   0.15831479   -7.6339212    3671.0334         1410 
  284000   0.16129578    -7.623733     3666.351         1359 
  285000   0.15889542   -7.6300634    3669.7506         1412 
  286000    0.1607477   -7.6279761    3666.1443         1351 
  287000   0.15617044   -7.6286414    3670.7993         1370 
  288000   0.16226087   -7.6272041     3668.844         1381 
  289000   0.16082287   -7.6351044    3672.5977         1411 
  290000   0.15814257   -7.6290677    3665.9193         1399 
  291000   0.15877113    -7.635564    3671.1592         1411 
  292000   0.15978288   -7.6299305    3668.6639         1380 
  293000   0.15953913   -7.6319914    3668.8902         1435 
  294000   0.15952362   -7.6321448    3670.4112         1398 
  295000   0.15826633   -7.6296438     3667.423         1376 
  296000   0.16039289   -7.6286297    3666.6662         1410 
  297000   0.15908839   -7.6340753    3672.8343         1381 
  298000   0.16223435   -7.6309782    3669.7366         1387 
  299000   0.16022455   -7.6280345    3667.6058         1392 
  300000   0.15691496   -7.6322014      3666.48         1448 
  301000   0.16033868   -7.6354345    3670.9022         1414 
  302000   0.16073927   -7.6295998    3667.4359         1455 
  303000   0.16042656   -7.6254196    3664.1818         1419 
  304000   0.16000322   -7.6292811    3667.6434         1434 
  305000    0.1644279   -7.6347172    3669.9795         1415 
  306000   0.15934297   -7.6304623    3671.8095         1440 
  307000   0.15866105   -7.6296848     3666.925         1414 
  308000    0.1576082   -7.6289442    3670.6441         1401 
  309000   0.16212327   -7.6334143    3667.7656         1477 
  310000   0.16061133   -7.6272816    3666.8117         1471 
  311000   0.15993265   -7.6362461    3670.6352         1473 
  312000    0.1585571    -7.628157      3665.59         1423 
  313000   0.15890853   -7.6246685    3665.4317         1481 
  314000   0.15981078   -7.6268765    3666.5311         1496 
  315000   0.16176574   -7.6395213    3666.8801         1503 
  316000   0.15959836   -7.6332933    3666.9252         1506 
  317000   0.16014435   -7.6401138    3670.8796         1499 
  318000    0.1574203   -7.6279719    3664.5582         1592 
  319000   0.16257997   -7.6367506    3670.5634         1552 
  320000    0.1620992   -7.6367721    3669.8873         1526 
  321000   0.15944473    -7.628548     3665.621         1521 
  322000   0.15886127   -7.6365326    3667.8677         1540 
  323000   0.15980551   -7.6388686    3670.0347         1598 
  324000   0.15961693   -7.6352711    3666.1884         1564 
  325000   0.15854135   -7.6376597    3666.6238         1575 
  326000   0.15911374   -7.6374766    3667.5738         1610 
  327000    0.1608106   -7.6389588    3669.7283         1589 
  328000   0.16012925   -7.6345695    3661.6969         1597 
  329000   0.16167125   -7.6392706    3666.1884         1637 
  330000   0.16064594   -7.6403202    3671.0657         1608 
  331000   0.16243711   -7.6318576    3662.7826         1609 
  332000   0.15949843    -7.638852    3667.4511         1626 
  333000   0.15772087    -7.641847    3668.6894         1653 
  334000   0.16502037   -7.6292871    3662.5506         1682 
  335000   0.15912064   -7.6434144    3669.5313         1662 
  336000   0.15999925    -7.636347    3663.2669         1675 
  337000    0.1586644   -7.6350265    3663.8811         1668 
  338000   0.16282944    -7.636932    3662.5863         1675 
  339000   0.15916657   -7.6426998    3664.3694         1713 
  340000    0.1605256   -7.6386032    3665.9096         1714 
  341000   0.16422365   -7.6362959      3660.64         1628 
  342000   0.15761485   -7.6371748    3665.9463         1659 
  343000   0.16017535   -7.6380859     3665.216         1760 
  344000   0.16154332   -7.6424689     3664.015         1724 
  345000   0.16076248   -7.6444656    3667.4265         1726 
  346000   0.16376512   -7.6453317    3664.4297         1790 
  347000   0.15528172   -7.6367515    3660.4191         1770 
  348000   0.15723687   -7.6436697    3666.2423         1789 
  349000   0.15690479   -7.6437015    3664.2199         1777 
  350000   0.15888703   -7.6395693    3662.6732         1758 
  351000   0.16039892   -7.6461733    3665.0615         1783 
  352000   0.16115283   -7.6436062    3665.7373         1791 
  353000   0.15871232   -7.6425801    3664.8921         1787 
  354000   0.15750356   -7.6423114     3663.047         1799 
  355000   0.16030048   -7.6404597    3663.7827         1791 
  356000    0.1577522   -7.6519343    3668.0355         1786 
  357000   0.15603156   -7.6480707    3660.3072         1792 
  358000   0.15726869   -7.6395473    3667.4938         1781 
  359000   0.16019966   -7.6401779    3661.7324         1775 
  360000   0.16083267   -7.6402272    3665.4388         1777 
  361000    0.1610368    -7.649272    3669.5479         1787 
  362000   0.15922151   -7.6409895    3662.8523         1769 
  363000   0.16265711   -7.6508454    3666.1669         1783 
  364000    0.1615849   -7.6419982     3667.257         1798 
  365000   0.15818768   -7.6476513    3664.9475         1800 
  366000   0.16024001   -7.6439788    3663.8001         1824 
  367000   0.15844901   -7.6429357    3662.4954         1786 
  368000   0.15808361   -7.6410366    3664.2253         1810 
  369000   0.16324119   -7.6447459    3664.6282         1828 
  370000   0.15766665   -7.6409983    3665.3071         1770 
  371000   0.15734968   -7.6447613    3663.1955         1785 
  372000   0.15740347   -7.6398451    3665.8461         1803 
  373000    0.1609525   -7.6418821    3666.9774         1789 
  374000   0.16063058   -7.6409709    3663.9726         1786 
  375000   0.15702227   -7.6516405    3669.5728         1737 
  376000   0.16048415    -7.639298    3663.1512         1778 
  377000    0.1624823   -7.6404909    3661.8203         1776 
  378000   0.16425211   -7.6442373    3666.1345         1760 
  379000   0.15826724   -7.6409224     3662.689         1793 
  380000   0.16215931   -7.6395417    3660.2009         1744 
  381000   0.16087079   -7.6473871     3667.038         1813 
  382000   0.15948584   -7.6371897    3662.7398         1724 
  383000   0.16133268   -7.6474055    3663.6251         1795 
  384000   0.15825984   -7.6460331    3668.2165         1750 
  385000   0.15880084   -7.6432751    3665.3148         1781 
  386000   0.16087386   -7.6422507    3662.8318         1768 
  387000   0.15955965   -7.6479555    3663.1629         1787 
  388000   0.15924435   -7.6482376    3665.6256         1787 
  389000   0.16121953   -7.6405073    3659.9676         1786 
  390000   0.16022754   -7.6456031    3664.5683         1761 
  391000   0.15789196   -7.6524625    3667.7965         1810 
  392000   0.16282815   -7.6460841    3662.7754         1803 
  393000    0.1625096   -7.6415007    3659.3442         1777 
  394000   0.15991482   -7.6502409    3663.9014         1819 
  395000     0.158369   -7.6489785    3663.6118         1818 
  396000   0.15862354   -7.6449858    3662.3219         1785 
  397000   0.15915764   -7.6492427    3665.2808         1845 
  398000   0.15765181   -7.6447744    3663.9561         1790 
  399000   0.15926965   -7.6439421     3661.551         1792 
  400000   0.15676401   -7.6469323    3665.7661         1781 
  401000   0.16229451   -7.6433144    3664.9318         1773 
  402000   0.16106022   -7.6418709    3663.4288         1756 
  403000   0.15835103   -7.6545862    3667.7263         1751 
  404000    0.1602808   -7.6408644    3661.3343         1808 
  405000   0.16026549    -7.643665    3662.7677         1811 
  406000    0.1599661   -7.6497844    3663.0727         1783 
  407000   0.16149952    -7.637576    3661.0981         1815 
  408000   0.16160479   -7.6451942    3667.7516         1819 
  409000    0.1595178   -7.6406962     3665.779         1779 
  410000   0.16134235   -7.6451573    3662.3608         1823 
  411000   0.16210146   -7.6429425    3659.7409         1805 
  412000   0.16015875   -7.6404707    3660.0843         1783 
  413000   0.16230481    -7.646894    3662.5799         1776 
  414000    0.1598705   -7.6469643    3666.4474         1764 
  415000    0.1607789   -7.6443714    3662.5484         1823 
  416000   0.16384916   -7.6470828    3663.2112         1792 
  417000   0.15868475   -7.6456771    3666.2966         1800 
  418000    0.1626096   -7.6385204    3660.9989         1767 
  419000   0.15809547   -7.6436321    3662.8032         1799 
  420000   0.16301547   -7.6461519    3666.3969         1808 
  421000   0.16010981    -7.643428    3664.7906         1806 
  422000   0.15945103   -7.6435425    3665.4703         1780 
  423000   0.16044755   -7.6475348     3663.858         1786 
  424000   0.15935821   -7.6405295     3662.704         1790 
  425000   0.15712374   -7.6393156    3660.5832         1778 
  426000   0.15936843   -7.6473634    3664.7153         1745 
  427000   0.15987227   -7.6388235    3662.6899         1786 
  428000    0.1590077   -7.6451118    3663.4596         1786 
  429000   0.15945617   -7.6424343    3662.5732         1787 
  430000   0.16219377   -7.6438432    3661.8843         1733 
  431000   0.15954232   -7.6464072    3664.4529         1790 
  432000   0.15932328   -7.6381176    3660.1955         1785 
  433000   0.16104407   -7.6470847    3666.3661         1790 
  434000     0.156436    -7.642707    3661.8954         1778 
  435000   0.15729233   -7.6505872    3667.3806         1817 
  436000   0.16389751   -7.6408578    3665.2716         1778 
  437000   0.16033081   -7.6526278    3668.9467         1764 
  438000   0.15807369     -7.63606      3662.42         1785 
  439000   0.16071795   -7.6417039    3664.3822         1783 
  440000   0.16063106   -7.6471439    3664.5569         1807 
  441000   0.16172774   -7.6381944    3661.8643         1773 
  442000   0.15937719   -7.6470681    3664.8746         1808 
  443000   0.15961615   -7.6540749    3665.7035         1771 
  444000   0.16242289   -7.6403744    3663.6655         1813 
  445000    0.1603264   -7.6382805    3663.0566         1798 
  446000   0.15947711   -7.6495033    3668.8505         1771 
  447000   0.15898764   -7.6450605    3666.1317         1778 
  448000   0.15788576   -7.6423409    3662.8037         1792 
  449000    0.1579813   -7.6515647    3665.7959         1783 
  450000   0.15924532   -7.6354512    3658.6964         1745 
  451000   0.15905012   -7.6466439    3665.9437         1826 
  452000   0.16185966   -7.6504979    3663.1687         1788 
  453000   0.15827811   -7.6421358    3660.1614         1813 
  454000   0.15637899   -7.6454171    3662.9728         1774 
  455000   0.15909047   -7.6497007    3665.9666         1813 
  456000   0.16015944     -7.64066    3662.6875         1779 
  457000   0.15898055   -7.6457208    3665.0232         1767 
  458000     0.164679   -7.6414328    3662.0652         1757 
  459000   0.15902119   -7.6465127     3667.226         1782 
  460000   0.15952133   -7.6419068    3663.2458         1797 
  461000   0.15991655    -7.646404    3664.5512         1823 
  462000   0.16104698   -7.6475175    3667.4402         1778 
  463000   0.16246225   -7.6460142    3660.2969         1821 
  464000   0.16255033    -7.651843    3668.6521         1749 
  465000   0.15837232   -7.6406664    3662.7262         1808 
  466000   0.15888091   -7.6375781    3664.2364         1796 
  467000   0.15962085   -7.6504503    3667.8023         1804 
  468000   0.16201169   -7.6410801    3663.2086         1785 
  469000   0.15952064   -7.6509783    3669.3924         1768 
  470000   0.15582953   -7.6501462    3666.8477         1792 
  471000   0.15922231   -7.6452257    3663.4236         1798 
  472000   0.15834783   -7.6405674    3662.5699         1767 
  473000   0.15907006   -7.6425806    3663.7408         1786 
  474000   0.15892757   -7.6462161    3664.7603         1819 
  475000   0.15875974   -7.6416396    3661.6446         1789 
  476000   0.16027398   -7.6396001    3664.4054         1792 
  477000    0.1569442   -7.6462898    3662.7973         1765 
  478000    0.1587538   -7.6367394     3663.348         1785 
  479000   0.15872154   -7.6452469    3664.2153         1786 
  480000   0.15734575   -7.6443898    3660.7146         1795 
  481000    0.1588924   -7.6484028    3664.7592         1801 
  482000   0.16099703   -7.6434526    3663.2367         1774 
  483000    0.1603261   -7.6409288    3661.1842         1799 
  484000   0.15821159   -7.6497346    3666.8978         1805 
  485000   0.16146118   -7.6419721    3665.9377         1793 
  486000   0.15707615   -7.6459012    3662.4683         1798 
  487000   0.16158017   -7.6517529    3665.3103         1835 
  488000   0.16217087   -7.6420641     3661.185         1803 
  489000    0.1629356   -7.6419987     3663.613         1817 
  490000   0.15777371   -7.6502843    3669.2651         1771 
  491000   0.16441428   -7.6449293    3661.4492         1789 
  492000   0.16180209   -7.6384913    3662.9175         1810 
  493000   0.16062806   -7.6449209    3664.1835         1794 
  494000   0.16235962   -7.6436515    3663.7088         1804 
  495000   0.15538763   -7.6448083    3663.5685         1815 
  496000   0.16024753    -7.644432    3665.6593         1818 
  497000   0.16557354   -7.6508185    3664.5249         1800 
  498000    0.1589893   -7.6458578    3663.0371         1801 
  499000   0.16197469   -7.6432228    3662.1695         1809 
  500000   0.16714367   -7.6486079    3665.6934         1792 
  501000   0.15884786    -7.646177    3664.3464         1789 
  502000   0.16124498   -7.6502889    3665.2118         1738 
  503000   0.15969381    -7.641843    3663.6875         1789 
  504000   0.15862222    -7.640216     3663.058         1801 
  505000   0.15983002    -7.645739    3665.8397         1846 
  506000   0.15915215   -7.6524635    3667.8539         1787 
  507000   0.15821689   -7.6461008    3665.0583         1814 
  508000   0.16293556   -7.6452381    3662.4401         1799 
  509000   0.16222956   -7.6363473    3663.0795         1798 
  510000   0.15816769   -7.6478045    3661.8441         1830 
  511000   0.15703822   -7.6482983    3665.5886         1785 
  512000   0.16140754   -7.6392467    3661.2937         1786 
  513000    0.1616261   -7.6449529    3664.7885         1840 
  514000   0.16063529   -7.6447683    3661.0825         1798 
  515000    0.1580308   -7.6415373    3662.5449         1828 
  516000   0.16072747   -7.6417133    3665.7043         1819 
  517000   0.16081955   -7.6430504    3664.3703         1808 
  518000   0.16053589   -7.6372382    3662.0483         1810 
  519000   0.16293752   -7.6483254    3663.9669         1822 
  520000    0.1622541   -7.6517409    3670.6288         1820 
  521000   0.16080895   -7.6383822    3663.5228         1780 
  522000   0.15713287   -7.6411558    3662.9275         1778 
  523000   0.16041779   -7.6454979     3666.669         1834 
  524000   0.16069969   -7.6446092    3660.3447         1815 
  525000   0.16126198   -7.6512575    3664.2303         1806 
  526000   0.15674035   -7.6483648    3667.4358         1807 
  527000   0.16011243   -7.6413254    3661.7072         1825 
  528000    0.1588603   -7.6463248    3664.5491         1816 
  529000   0.16215376   -7.6494354    3664.4575         1763 
  530000   0.16108367   -7.6439611    3662.2675         1803 
  531000    0.1613037    -7.633692    3659.2959         1841 
  532000   0.15998468   -7.6467364    3664.5016         1779 
  533000   0.16247203   -7.6479112    3666.9504         1810 
  534000   0.16003132   -7.6405648    3661.7955         1789 
  535000   0.16150753   -7.6450749    3663.0717         1774 
  536000   0.15678625    -7.640122    3663.3145         1800 
  537000   0.15758255   -7.6436079    3660.6441         1808 
  538000   0.16075073   -7.6449994    3666.8133         1759 
  539000   0.15945374   -7.6399745     3662.336         1843 
  540000   0.16061549   -7.6484481    3668.5076         1818 
  541000   0.16352003   -7.6513828    3664.0166         1810 
  542000   0.16098575   -7.6489756    3665.0043         1784 
  543000   0.15832782   -7.6428707    3661.0297         1782 
  544000   0.15852744   -7.6478801    3662.1393         1804 
  545000   0.16057762   -7.6413082    3661.7967         1801 
  546000   0.15838838   -7.6497111    3667.4355         1777 
  547000   0.15918066   -7.6375801    3663.3191         1788 
  548000   0.15732244   -7.6484119     3666.781         1778 
  549000   0.16013161   -7.6457259    3662.9942         1804 
  550000   0.16292967   -7.6507266    3665.5206         1761 
  551000   0.15517721   -7.6439706    3667.2117         1788 
  552000   0.16123867   -7.6426557    3664.9828         1753 
  553000   0.15991733   -7.6396207    3663.9948         1768 
  554000   0.15857809   -7.6500161    3667.1582         1752 
  555000   0.16033407   -7.6457686    3663.2778         1763 
  556000   0.16215567   -7.6431271    3660.7504         1804 
  557000   0.16224147   -7.6489672    3668.2817         1776 
  558000   0.15722297   -7.6447195    3663.7737         1762 
  559000   0.15889921   -7.6370696    3661.7194         1819 
  560000   0.16032155   -7.6526427     3667.224         1796 
  561000   0.15820631   -7.6414321     3662.635         1822 
  562000   0.15980597   -7.6452392    3665.6165         1788 
  563000   0.15997517   -7.6459459    3662.9316         1781 
  564000   0.15799359    -7.641776    3662.5728         1829 
  565000   0.16025289   -7.6475493    3663.8559         1812 
  566000   0.16035166   -7.6419689    3661.7983         1739 
  567000   0.15691938   -7.6457044    3663.3274         1817 
  568000   0.15909762   -7.6488018    3669.1916         1783 
  569000   0.15951114   -7.6505329    3664.7986         1744 
  570000   0.15583121   -7.6387665    3660.5521         1798 
  571000   0.15623836   -7.6443351    3663.2356         1802 
  572000   0.15944495   -7.6486885    3663.9682         1836 
  573000   0.16028671   -7.6422688     3659.906         1815 
  574000   0.16335954   -7.6455399    3664.0817         1804 
  575000   0.15991729   -7.6502614    3668.6221         1770 
  576000   0.16289199   -7.6405878    3662.3613         1832 
  577000   0.15945131   -7.6439281    3664.5024         1789 
  578000    0.1568916   -7.6427557     3664.112         1839 
  579000   0.15956437   -7.6460465    3661.6716         1763 
  580000   0.16084871   -7.6505562    3664.2421         1808 
  581000   0.15842596   -7.6468611    3663.3422         1825 
  582000   0.15685454   -7.6408438    3664.6221         1723 
  583000   0.15923659   -7.6397575    3659.9235         1797 
  584000   0.15677565   -7.6453996    3665.6727         1763 
  585000   0.15615838    -7.642846     3665.675         1808 
  586000   0.16159288   -7.6327477     3658.496         1818 
  587000   0.16017102   -7.6483142     3664.512         1828 
  588000   0.15889785   -7.6438738    3664.1476         1842 
  589000   0.16011966   -7.6390795    3663.6479         1804 
  590000   0.15986898   -7.6452891    3665.5003         1791 
  591000   0.15929637    -7.647185    3665.9809         1796 
  592000   0.15888011   -7.6401409    3660.4426         1744 
  593000   0.16019973   -7.6467754    3663.4938         1812 
  594000   0.15948086   -7.6494589    3665.0739         1795 
  595000   0.16117741   -7.6439173    3662.6103         1785 
  596000   0.16464331   -7.6466588     3662.053         1785 
  597000   0.16078504   -7.6484223    3666.2302         1794 
  598000   0.16005973   -7.6398922    3660.6792         1812 
  599000   0.15827198   -7.6470059    3665.0235         1773 
  600000   0.16110416   -7.6483509    3665.9238         1818 
  601000   0.16347213   -7.6450134     3663.658         1800 
  602000   0.16096004   -7.6420988    3660.5509         1776 
  603000   0.16027247   -7.6534904    3667.7031         1832 
  604000   0.16379808   -7.6435657    3666.6602         1791 
  605000   0.15960452   -7.6453676    3662.8962         1836 
  606000   0.15974425    -7.643604    3661.9114         1772 
  607000   0.16226933   -7.6434017    3666.8177         1796 
  608000   0.16113709   -7.6439846    3663.1613         1818 
  609000   0.15803451   -7.6441123    3663.3893         1799 
  610000   0.16103572   -7.6516158     3668.822         1801 
  611000    0.1592758    -7.640869    3661.7682         1793 
  612000   0.15823821   -7.6460928    3665.8989         1787 
  613000   0.16160382   -7.6521795    3667.2369         1764 
  614000   0.15787629   -7.6398839    3662.5128         1835 
  615000   0.16206246   -7.6413116    3661.9876         1808 
  616000   0.15923278   -7.6444294    3666.1364         1838 
  617000   0.15922873   -7.6404969    3663.2268         1772 
  618000   0.15739986   -7.6381905     3663.169         1797 
  619000   0.15744562   -7.6480178    3666.0734         1842 
  620000   0.16064816   -7.6397867    3659.3916         1807 
  621000   0.16067983   -7.6515737    3665.5092         1780 
  622000   0.16241286   -7.6492207    3660.2626         1800 
  623000   0.16070892   -7.6464203    3664.6369         1819 
  624000   0.16165463   -7.6473277    3664.9251         1831 
  625000    0.1615549   -7.6450362    3662.9972         1786 
  626000   0.16434608   -7.6483602     3664.684         1814 
  627000   0.15890318   -7.6519569    3669.1552         1802 
  628000   0.16084314   -7.6442601      3663.19         1823 
  629000   0.16001435   -7.6470029    3663.4298         1782 
  630000   0.16014697    -7.648939    3666.5306         1773 
  631000   0.15659037   -7.6445056     3661.065         1819 
  632000     0.160742   -7.6443402    3663.7778         1786 
  633000   0.15677908   -7.6462592    3664.8132         1797 
  634000    0.1601359   -7.6482738    3665.7942         1822 
  635000   0.16088086   -7.6449514    3662.2459         1789 
  636000   0.16302499   -7.6491057    3668.0043         1803 
  637000   0.16026851   -7.6461976    3663.6811         1813 
  638000   0.15834069   -7.6454048     3663.468         1766 
  639000   0.15968477   -7.6469602    3668.0156         1783 
  640000    0.1615607   -7.6467634    3662.8825         1806 
  641000   0.15934026   -7.6334296    3661.2677         1777 
  642000   0.16108089   -7.6470908    3663.5443         1814 
  643000   0.16203971   -7.6466301    3661.7951         1846 
  644000   0.15984571   -7.6440383    3660.8211         1775 
  645000   0.16152558   -7.6460514    3667.1728         1790 
  646000   0.15815323   -7.6421535    3668.0956         1757 
  647000   0.15594054    -7.642693     3662.633         1782 
  648000   0.16186166   -7.6504077    3666.2488         1796 
  649000   0.15973125   -7.6431012    3666.0845         1805 
  650000   0.15561582   -7.6408535    3663.0068         1813 
  651000   0.15981249    -7.648556    3665.2022         1823 
  652000    0.1581302   -7.6441879    3664.0745         1843 
  653000   0.15819186   -7.6408542    3665.3567         1828 
  654000   0.15920783   -7.6491242    3665.7025         1788 
  655000   0.15949317   -7.6430055    3661.3343         1809 
  656000   0.16049599    -7.645411     3663.916         1820 
  657000   0.16011677   -7.6427686    3661.6207         1838 
  658000   0.15966469   -7.6416528    3662.5818         1763 
  659000   0.15965718   -7.6538546    3665.1007         1825 
  660000   0.16001061   -7.6415294    3661.0643         1833 
  661000   0.15717237   -7.6488116    3663.4584         1822 
  662000   0.15857955   -7.6466818    3664.0919         1811 
  663000   0.15984894   -7.6525892    3666.3765         1805 
  664000    0.1591229     -7.64582    3663.6642         1770 
  665000   0.16180716   -7.6469622     3661.635         1815 
  666000   0.16085519   -7.6509451     3666.064         1851 
  667000   0.16313934   -7.6486115    3665.8023         1827 
  668000     0.164807   -7.6442875    3660.8081         1818 
  669000   0.15979834    -7.648551    3663.8857         1842 
  670000   0.15978577   -7.6544383     3670.823         1819 
  671000   0.16028403   -7.6463038    3663.7237         1789 
  672000   0.16025357   -7.6425535    3666.1034         1795 
  673000   0.15910415   -7.6464991    3665.5444         1790 
  674000    0.1631916   -7.6431115    3660.4998         1821 
  675000   0.15911522   -7.6468128    3663.4713         1827 
  676000   0.16136719    -7.650296    3665.2834         1797 
  677000   0.16211192   -7.6433419     3664.308         1829 
  678000   0.15999834   -7.6456974      3663.12         1823 
  679000   0.16310795   -7.6451472    3666.9149         1799 
  680000   0.16061882   -7.6431826    3665.1736         1762 
  681000   0.15937693   -7.6402109    3659.8926         1818 
  682000   0.16134189   -7.6447298    3665.1015         1867 
  683000   0.16263138   -7.6476493    3665.0205         1782 
  684000   0.16117881   -7.6501617    3666.9762         1852 
  685000   0.16189296   -7.6441732    3665.8534         1759 
  686000   0.15886743   -7.6457053    3663.0318         1804 
  687000   0.16238201   -7.6467914     3667.465         1842 
  688000   0.15989219   -7.6384308    3662.5614         1789 
  689000   0.16237536   -7.6470291     3664.698         1838 
  690000   0.15993441   -7.6480049    3665.3376         1776 
  691000   0.16184787   -7.6466863    3662.2435         1817 
  692000   0.15729911   -7.6407703    3659.8718         1809 
  693000   0.15911969   -7.6435496    3661.9747         1818 
  694000   0.16342463   -7.6480298    3666.7792         1806 
  695000   0.15800122   -7.6434515    3663.5812         1759 
  696000   0.15925646   -7.6514418    3664.4019         1866 
  697000   0.16412989   -7.6465686    3662.5685         1818 
  698000   0.16048535   -7.6472203     3664.793         1787 
  699000   0.15859973     -7.64682    3663.2863         1818 
  700000   0.15928537   -7.6354786    3660.2874         1833 
  701000   0.15618191   -7.6370326    3660.9053         1832 
  702000   0.16291441   -7.6478848     3664.116         1804 
  703000   0.15929164    -7.643787    3661.6045         1806 
  704000    0.1592672   -7.6503655    3668.1901         1811 
  705000   0.15919801   -7.6463107    3666.2433         1821 
  706000   0.15881554    -7.644266    3662.2759         1811 
  707000   0.15582175   -7.6428698    3666.1305         1826 
  708000   0.15710982   -7.6419364    3666.7053         1777 
  709000   0.15989387   -7.6427352    3662.0046         1830 
  710000    0.1628764   -7.6411129    3660.7654         1805 
  711000   0.16229124   -7.6449693    3665.0572         1842 
  712000   0.16137705   -7.6490618    3661.7408         1840 
  713000   0.15794745    -7.644604    3659.9547         1798 
  714000   0.15994183   -7.6523372    3668.5618         1835 
  715000   0.15903268     -7.64379    3660.0802         1803 
  716000   0.15857086   -7.6449934    3665.8913         1808 
  717000   0.16113061   -7.6463363    3666.4225         1800 
  718000   0.15929314   -7.6438854    3661.3865         1800 
  719000   0.15797149   -7.6486645    3662.8183         1799 
  720000   0.16003337   -7.6465526    3665.9967         1833 
  721000    0.1618962   -7.6376539    3658.9163         1816 
  722000   0.16241223   -7.6460022    3663.6755         1834 
  723000   0.15857021   -7.6470256    3668.9167         1813 
  724000   0.16311653   -7.6476029    3664.6367         1800 
  725000   0.15984384   -7.6425033    3659.9642         1799 
  726000   0.15930038    -7.646568    3665.6844         1822 
  727000   0.15874866   -7.6384782    3659.5522         1833 
  728000   0.16383239   -7.6458399    3664.1926         1834 
  729000   0.16011841   -7.6469288    3666.2924         1850 
  730000   0.16060445   -7.6398372    3662.0941         1803 
  731000   0.15949467   -7.6470719    3664.0213         1789 
  732000   0.15811607   -7.6514928    3666.8446         1810 
  733000   0.15747495   -7.6450803     3661.003         1806 
  734000   0.15821525   -7.6449234     3663.576         1793 
  735000   0.15851618   -7.6480448    3668.2202         1827 
  736000   0.15894028   -7.6473979    3662.2281         1842 
  737000   0.16216313    -7.652084    3666.3083         1854 
  738000   0.15739789   -7.6408842    3660.3435         1817 
  739000   0.15963986   -7.6403695    3662.5357         1781 
  740000   0.16044597   -7.6492029    3662.6906         1827 
  741000   0.16097659   -7.6481162    3664.9742         1834 
  742000   0.16197801    -7.640839    3658.2507         1834 
  743000   0.15526852   -7.6431152    3664.4692         1756 
  744000   0.15955847   -7.6471997    3664.9104         1868 
  745000    0.1594966   -7.6467298    3662.4354         1804 
  746000   0.15974022   -7.6463648    3664.8781         1823 
  747000   0.16069433     -7.64018    3662.1871         1840 
  748000   0.16214632   -7.6470785    3665.3605         1796 
  749000   0.16273305   -7.6442613    3663.0731         1829 
  750000   0.16319156   -7.6534044    3667.5148         1822 
  751000    0.1637004   -7.6462497    3664.1674         1828 
  752000   0.15802647   -7.6443853     3661.379         1848 
  753000   0.15922873   -7.6502673    3663.5876         1794 
  754000   0.15811299   -7.6494234    3662.9642         1804 
  755000   0.15976566   -7.6443974    3662.4154         1827 
  756000   0.15838269   -7.6473229    3665.0262         1794 
  757000   0.15907311   -7.6467967    3663.6783         1840 
  758000   0.16251185   -7.6398336    3659.5207         1789 
  759000   0.16324259   -7.6466834    3665.7021         1824 
  760000   0.16168893   -7.6497146    3666.0044         1829 
  761000   0.15707713   -7.6499517    3665.0585         1799 
  762000   0.15882898   -7.6451832    3660.6426         1777 
  763000   0.16110199   -7.6471773    3666.3039         1859 
  764000   0.15929447   -7.6506676     3665.823         1781 
  765000   0.15805711   -7.6425767    3662.1543         1808 
  766000   0.15825214   -7.6430082    3663.3096         1800 
  767000   0.16098099   -7.6490799    3664.2396         1779 
  768000   0.15778406   -7.6425521    3662.6254         1825 
  769000   0.15588953   -7.6474764    3660.4754         1848 
  770000   0.16022699   -7.6450608    3663.2461         1850 
  771000   0.16080813    -7.652625    3668.4526         1780 
  772000   0.15914497   -7.6439499    3663.0037         1790 
  773000   0.15705811   -7.6491362    3665.8739         1843 
  774000   0.16312329   -7.6407865    3659.2777         1799 
  775000   0.16033019   -7.6470779    3663.4295         1805 
  776000   0.15936088   -7.6531022    3666.5805         1829 
  777000   0.15719973    -7.639333    3661.5868         1825 
  778000   0.16323672   -7.6408215    3662.9447         1840 
  779000   0.15648645   -7.6520126    3666.1582         1804 
  780000   0.15972083   -7.6464824    3659.8854         1824 
  781000   0.16129995   -7.6463054    3663.0297         1826 
  782000   0.15743495     -7.64533    3664.3009         1843 
  783000   0.15973219   -7.6509669    3664.4609         1800 
  784000   0.16137993   -7.6427103    3664.0418         1787 
  785000   0.16137754   -7.6457535    3660.8662         1776 
  786000   0.15901207   -7.6459987    3664.4796         1828 
  787000   0.15694895   -7.6448731    3659.5091         1834 
  788000    0.1611504   -7.6409841    3660.3032         1843 
  789000   0.15931812   -7.6475386    3666.7741         1846 
  790000   0.16170356   -7.6459386    3664.1329         1827 
  791000   0.15686821   -7.6451477    3658.9469         1807 
  792000   0.15914179   -7.6552236    3665.1559         1803 
  793000   0.16003003    -7.649141    3663.3038         1824 
  794000   0.16330807       -7.644    3663.6511         1829 
  795000   0.15985863   -7.6439283    3660.3384         1848 
  796000   0.15760542   -7.6448114    3666.9114         1781 
  797000   0.16149173    -7.642337    3659.7618         1802 
  798000   0.15785977   -7.6528872    3667.3665         1807 
  799000   0.16099236   -7.6443382     3661.129         1786 
  800000   0.15701745   -7.6514852    3666.8187         1778 
  801000     0.159758    -7.644368    3664.0519         1856 
  802000   0.16220538   -7.6456168    3662.2203         1852 
  803000   0.15778873   -7.6529118     3667.135         1804 
  804000   0.15993167   -7.6465351    3662.0967         1776 
  805000   0.15799798   -7.6473381    3665.4847         1808 
  806000   0.16227834   -7.6537815    3663.9962         1831 
  807000   0.16104379   -7.6417923    3660.0687         1835 
  808000   0.16233279   -7.6419788     3663.418         1844 
  809000   0.16141963   -7.6440776    3664.4313         1827 
  810000   0.15695621   -7.6445169    3666.0011         1843 
  811000   0.16044919   -7.6440762    3663.8295         1828 
  812000   0.16035314    -7.647269    3663.3389         1793 
  813000   0.15922662   -7.6465707    3663.5346         1812 
  814000   0.16108489   -7.6421074    3660.0259         1846 
  815000   0.15955625   -7.6446887    3663.4091         1830 
  816000   0.15952019   -7.6366198    3663.8886         1793 
  817000   0.16369241   -7.6480905    3667.3658         1821 
  818000   0.15869258   -7.6428143    3664.3711         1857 
  819000   0.16286926   -7.6452719    3660.5675         1820 
  820000   0.16319866   -7.6454087    3661.5179         1814 
  821000   0.15990944    -7.655122    3670.3212         1776 
  822000   0.15851681   -7.6444232    3662.9195         1824 
  823000   0.15952147   -7.6479611    3660.8109         1792 
  824000    0.1561003   -7.6499429    3665.5563         1847 
  825000   0.15811244   -7.6385846    3660.3232         1822 
  826000   0.16330977   -7.6511179    3664.8289         1805 
  827000    0.1627599   -7.6488653     3666.825         1776 
  828000   0.15928369   -7.6441603    3661.6097         1779 
  829000   0.15992239   -7.6489452    3665.9678         1795 
  830000   0.15980772   -7.6500814    3668.2599         1791 
  831000    0.1603675   -7.6384952    3663.7934         1832 
  832000   0.16130565   -7.6463699    3659.5714         1821 
  833000   0.15901703   -7.6472318    3664.2987         1799 
  834000   0.16217567   -7.6437889    3659.6548         1788 
  835000    0.1596926   -7.6485527    3664.5002         1831 
  836000   0.16266954    -7.647626    3660.7803         1803 
  837000   0.15850711   -7.6488604    3663.1953         1806 
  838000   0.16175376    -7.647849    3661.7969         1837 
  839000   0.15714296   -7.6443333    3662.9088         1843 
  840000    0.1594104   -7.6495362    3667.0517         1802 
  841000   0.15886369    -7.641565    3662.1054         1799 
  842000   0.15851714   -7.6481242    3670.1116         1788 
  843000   0.15768032   -7.6487215    3666.2983         1831 
  844000   0.16278509   -7.6452245    3662.5064         1796 
  845000   0.15933278   -7.6476758    3663.5062         1794 
  846000   0.15986769    -7.649365    3665.9985         1806 
  847000   0.16102725   -7.6495533    3664.2965         1789 
  848000   0.16068957    -7.639972    3660.3875         1787 
  849000   0.16285332   -7.6485658      3664.49         1820 
  850000    0.1593135   -7.6470128    3662.7521         1846 
  851000   0.15966109   -7.6473135    3661.9292         1838 
  852000   0.15998377   -7.6498729    3667.5735         1856 
  853000   0.16246098   -7.6455807    3663.9694         1913 
  854000   0.16071726    -7.650435    3661.5992         1916 
  855000   0.16255818    -7.648646     3665.212         1925 
  856000   0.16382605   -7.6456119    3659.7936         1888 
  857000   0.16032866    -7.646204    3661.5438         1906 
  858000   0.16003463   -7.6562638    3664.8118         1887 
  859000   0.16100345    -7.652543    3666.9211         1867 
  860000   0.15960611   -7.6472052    3661.7779         1882 
  861000   0.15874687   -7.6483945    3663.0107         1831 
  862000   0.15866893   -7.6491804    3662.7136         1886 
  863000    0.1597743    -7.647781    3659.0812         1910 
  864000   0.16002569   -7.6537336    3662.1209         1908 
  865000   0.15923163   -7.6531493    3663.7355         1839 
  866000   0.15874698   -7.6499898    3658.4202         1837 
  867000   0.15705663   -7.6508636    3662.3426         1867 
  868000   0.15899436    -7.655399     3665.985         1897 
  869000   0.15916807   -7.6457977    3659.5579         1884 
  870000   0.15980972   -7.6519931    3660.3797         1857 
  871000   0.15965736   -7.6532006    3664.1085         1903 
  872000    0.1639341   -7.6452845    3657.2353         1885 
  873000   0.15843529   -7.6541181    3666.1071         1909 
  874000   0.15836795     -7.64748    3660.3559         1870 
  875000   0.16072398   -7.6476329    3661.2451         1879 
  876000   0.15856033   -7.6528096     3663.198         1894 
  877000   0.15809749   -7.6450736    3660.9135         1922 
  878000   0.16097995    -7.648731    3665.0989         1866 
  879000   0.16072586   -7.6589521    3667.3379         1893 
  880000   0.15871421    -7.650546    3660.4443         1903 
  881000   0.16091616   -7.6510089    3661.1724         1882 
  882000   0.15780941   -7.6527633    3662.3302         1873 
  883000   0.15876994   -7.6518016    3662.6804         1879 
  884000   0.15825529   -7.6560774    3664.1809         1912 
  885000    0.1599502    -7.651582    3663.0506         1898 
  886000   0.15904383   -7.6515347    3660.9763         1931 
  887000   0.15654975   -7.6539126    3667.1702         1817 
  888000   0.16158005   -7.6457487    3658.8628         1825 
  889000   0.15705352   -7.6541952    3664.7806         1895 
  890000   0.16050867   -7.6547103    3667.0414         1861 
  891000   0.16221613   -7.6475985    3659.0008         1834 
  892000   0.15820976    -7.649806    3663.5053         1863 
  893000   0.16137417   -7.6491212     3661.594         1863 
  894000   0.16374084   -7.6496502    3660.8011         1862 
  895000    0.1609598   -7.6478611    3665.4556         1843 
  896000   0.16418072    -7.651157    3661.2032         1831 
  897000   0.15898487   -7.6495593    3659.8393         1871 
  898000   0.16102193   -7.6461271    3663.8499         1866 
  899000   0.15920906   -7.6551742    3666.4285         1865 
  900000   0.15735068   -7.6470714    3662.2705         1881 
  901000   0.16069072   -7.6566542    3666.2777         1887 
  902000   0.15902193     -7.65128    3666.7015         1846 
  903000   0.16588305    -7.646625    3660.6523         1882 
  904000   0.16184685   -7.6523205    3660.4311         1828 
  905000   0.15894555   -7.6533197    3665.1905         1871 
  906000   0.15714869   -7.6473049    3662.0365         1851 
  907000   0.15801141   -7.6480783    3663.0033         1784 
  908000   0.16125917   -7.6562869    3663.7497         1842 
  909000   0.15952227   -7.6477447    3659.9877         1883 
  910000   0.15999543   -7.6466287    3664.5229         1865 
  911000   0.15871669   -7.6553167    3664.5824         1832 
  912000   0.15951363   -7.6488893    3660.8181         1823 
  913000   0.15929188   -7.6522931     3664.033         1858 
  914000   0.16168014   -7.6590019    3668.5467         1888 
  915000   0.15724504   -7.6452451    3662.1911         1875 
  916000   0.16015476   -7.6486406    3659.5172         1856 
  917000   0.16076507   -7.6575784    3662.2878         1812 
  918000   0.16102014    -7.650229    3663.3105         1866 
  919000   0.16085599   -7.6437875    3660.9722         1802 
  920000    0.1616645   -7.6598536    3664.1993         1856 
  921000   0.15894687   -7.6478486    3666.0745         1857 
  922000    0.1594236   -7.6491924    3661.7383         1856 
  923000   0.16080954    -7.644227    3658.7987         1836 
  924000   0.15830493   -7.6480505    3663.8166         1850 
  925000   0.16072695    -7.658592    3665.4736         1849 
  926000   0.15659559   -7.6524153    3661.3599         1830 
  927000   0.15894559    -7.654023    3661.9026         1829 
  928000   0.16109437   -7.6499215    3661.8021         1866 
  929000   0.16066542   -7.6527002     3663.272         1866 
  930000   0.15740849   -7.6406199     3656.402         1817 
  931000     0.155667   -7.6499996    3664.3116         1870 
  932000   0.15663977   -7.6515939    3661.6403         1845 
  933000   0.16196959   -7.6523674    3659.8864         1874 
  934000   0.15896434    -7.652905    3665.8678         1824 
  935000   0.15796731   -7.6501312    3661.9346         1835 
  936000   0.16064001   -7.6427344    3658.4777         1864 
  937000   0.15615799   -7.6521113    3665.8163         1841 
  938000    0.1599851   -7.6475301    3661.9306         1857 
  939000   0.15969451   -7.6428075    3660.9782         1870 
  940000   0.15904128   -7.6532089    3663.4151         1840 
  941000    0.1604672    -7.651525    3664.7164         1858 
  942000   0.15942296   -7.6441743    3660.0071         1903 
  943000   0.16235217   -7.6553322    3662.3014         1836 
  944000   0.15874134   -7.6477389    3665.1207         1841 
  945000   0.16065859   -7.6501492    3662.0862         1858 
  946000   0.16073446   -7.6516997    3659.5706         1862 
  947000   0.16096259   -7.6613633    3666.3343         1904 
  948000    0.1625957   -7.6446016    3660.0454         1846 
  949000   0.15930306    -7.648462    3660.7202         1871 
  950000   0.16282322    -7.653607    3665.8238         1836 
  951000   0.16044653   -7.6482862    3660.2623         1868 
  952000   0.16007805   -7.6549409    3662.8472         1877 
  953000   0.15949212    -7.646652    3658.4393         1880 
  954000   0.16313535   -7.6534751    3660.9257         1857 
  955000   0.15781377   -7.6467576    3662.8293         1907 
  956000   0.15994508   -7.6488772    3662.1684         1895 
  957000   0.16129019    -7.651385    3662.9867         1849 
  958000   0.16117136   -7.6547137    3663.9544         1855 
  959000   0.15752604   -7.6458186    3660.6394         1879 
  960000   0.16037969   -7.6489651    3667.9432         1879 
  961000   0.16024978   -7.6574149    3666.5587         1883 
  962000   0.15872687   -7.6457147    3659.7828         1875 
  963000    0.1613651   -7.6537531    3663.0031         1842 
  964000   0.16141954   -7.6516835    3660.6071         1861 
  965000   0.16156146   -7.6497842    3663.7175         1858 
  966000   0.16012728    -7.648019    3662.0214         1850 
  967000   0.15954208   -7.6488614    3663.2575         1879 
  968000   0.15856447   -7.6552877    3664.3903         1852 
  969000   0.15664771   -7.6473433    3661.9776         1853 
  970000   0.15858373   -7.6476302    3662.2165         1797 
  971000   0.15929553   -7.6579038    3665.4796         1866 
  972000   0.16058857   -7.6545795    3664.2883         1869 
  973000   0.16224515    -7.653213    3662.4804         1823 
  974000   0.16474151    -7.651277    3660.5097         1848 
  975000   0.16235839   -7.6535015    3661.0893         1869 
  976000   0.15852203   -7.6529327    3663.8511         1856 
  977000   0.15953827   -7.6481312    3660.2441         1879 
  978000   0.15922525   -7.6539385    3661.8789         1836 
  979000   0.15766117   -7.6522938    3664.7952         1874 
  980000   0.15928981   -7.6437297    3656.9282         1816 
  981000   0.15951889   -7.6427159    3659.2792         1882 
  982000   0.15764067   -7.6461219    3663.9873         1878 
  983000   0.15756685   -7.6417255    3659.6471         1864 
  984000   0.15838234   -7.6574583    3664.7566         1894 
  985000      0.15812   -7.6516474    3664.8381         1879 
  986000   0.16140028     -7.64271    3659.8865         1859 
  987000   0.16142049   -7.6508976    3662.9435         1870 
  988000   0.16068458   -7.6464847    3659.8149         1862 
  989000   0.16339549   -7.6525062    3664.4278         1869 
  990000    0.1590219   -7.6521261     3662.164         1878 
  991000   0.15860622   -7.6496735    3663.6892         1872 
  992000   0.16118453   -7.6565176    3664.4924         1858 
  993000   0.15922531   -7.6503109    3660.2156         1860 
  994000   0.15874322   -7.6533639    3662.9974         1870 
  995000   0.15690031   -7.6528469    3661.4207         1851 
  996000   0.15961741   -7.6497333    3660.4751         1870 
  997000   0.16027669   -7.6558963    3666.4606         1875 
  998000   0.16100955   -7.6478433    3663.9545         1863 
  999000   0.15779164   -7.6472865    3660.6301         1899 
 1000000   0.16321628   -7.6455583    3661.5153         1849 
 1001000   0.15870133   -7.6463064    3660.2609         1905 
 1002000   0.16068737   -7.6449517    3660.1172         1888 
 1003000   0.15948313   -7.6531694     3662.834         1860 
 1004000   0.15940077   -7.6510255    3667.2952         1877 
Loop time of 2127.29 on 48 procs for 1000000 steps with 4000 atoms

Performance: 81230.216 tau/day, 470.082 timesteps/s
99.4% CPU use with 48 MPI tasks x no OpenMP threads

MPI task timing breakdown:
Section |  min time  |  avg time  |  max time  |%varavg| %total
---------------------------------------------------------------
Pair    | 135.07     | 152.78     | 173.1      |  68.8 |  7.18
Neigh   | 4.8587     | 5.139      | 5.6852     |   6.7 |  0.24
Comm    | 89.691     | 109.56     | 128.84     |  81.2 |  5.15
Output  | 2.8285     | 2.8293     | 2.8473     |   0.2 |  0.13
Modify  | 1813.9     | 1822.6     | 1833.2     |  11.3 | 85.68
Other   |            | 34.39      |            |       |  1.62

Nlocal:        83.3333 ave          90 max          78 min
Histogram: 3 4 4 8 6 15 3 3 1 1
Nghost:        1740.08 ave        1763 max        1721 min
Histogram: 4 4 5 4 12 8 4 3 2 2
Neighs:        10566.8 ave       11318 max        9784 min
Histogram: 3 2 3 6 8 8 9 3 4 2
FullNghs:      21133.7 ave       22788 max       19606 min
Histogram: 1 6 3 7 8 9 7 5 1 1

Total # of neighbors = 1014417
Ave neighs/atom = 253.60425
Neighbor list builds = 20387
Dangerous builds = 0

#clear
#
#next RN
#
#jump SELF
Total wall time: 0:35:28
