
units lj                  # Use reduced LJ style units
atom_style atomic         # Uncharged point particles
atom_modify map hash      # Needed for indexing of clusters etc
                          # Used to be able to find where atoms are in relation to each other.

# Define a lattice with which to populate the simulation cell. With units
# set to 'lj' the second argument to the lattice command is the reduced
# density rho* and the spacings are multiples of that required to acheive
# that density. Also define a simulation cell called 'box' in lattice units
# and fill it with atoms. Here we're creating a box which is ten lattice
# constants in each direction.
lattice fcc 1.0 spacing 1 1 1                 # All equal sizes - gives the right reduced density.
Lattice spacing in x,y,z = 1.5874011 1.5874011 1.5874011

region box block 0 10 0 10 0 10 units lattice # Defines a region, "box", in lattice units
create_box 1 box                              # Creates a simulation box as specified above,
Created orthogonal box = (0.0000000 0.0000000 0.0000000) to (15.874011 15.874011 15.874011)
  2 by 3 by 3 MPI processor grid
                                              # with one type of atom
create_atoms 1 box                            # Creates particles on lattice points
Created 4000 atoms
  using lattice units in orthogonal box = (0.0000000 0.0000000 0.0000000) to (15.874011 15.874011 15.874011)
  create_atoms CPU = 0.002 seconds


# Set the mass of the first (and only) atom type.
mass 1 1.0

# Lennard-Jones interactions between particles, 3.5 sigma cut-off. Apply
# long range tail corrections to energy and pressure and set all coefficients
# to unity since we work in reduced units here. Note that this doesn't shift
# the potential such that it goes to zero at the cutoff. That would require
# pair_modify('shift', 'yes').
pair_style lj/cut  3.5      # non-GPU version
pair_modify tail  yes
pair_coeff 1  1  1.0  1.0   # Intearaction between 1 and 1 set with epsilon = 1 and sigma = 1

write_data data.*
System init for write_data ...
Neighbor list info ...
  update every 1 steps, delay 10 steps, check yes
  max neighbors/atom: 2000, page size: 100000
  master list distance cutoff = 3.8
  ghost atom cutoff = 3.8
  binsize = 1.9, bins = 9 9 9
  1 neighbor lists, perpetual/occasional/extra = 1 0 0
  (1) pair lj/cut, perpetual
      attributes: half, newton on
      pair build: half/bin/atomonly/newton
      stencil: half/bin/3d
      bin: standard

#############################
#   M E L T   S Y S T E M   #
#############################

velocity all create 2.4 8172548 mom yes dist gaussian # Assign velocities
                                                    # Temperature 2.4, random number seed, zero linear momentum
						                                                        # Gaussian distribution

timestep 0.002   # simulation timestep
thermo 100       # output thermodynamic data every 100 steps

# Define a fix  in this case with index 1 applied to all
# particles in the simulation. This fix is for simulations
# in the anisotropic NPT ensemble. Note that we use the MTK
# correction.
fix 1 all npt temp 2.4 2.4 0.1 iso 5.68 5.68 0.5 mtk yes tchain 5 pchain 5 # Use NPT ensemble
                                                                         # Set temperature and pressure and damping
                                                                         # Numbers of thermostats in chain and in barostat
run 1000         # run for 10000 steps
Per MPI rank memory allocation (min/avg/max) = 3.680 | 3.683 | 3.691 Mbytes
Step Temp E_pair E_mol TotEng Press Volume 
       0          2.4   -8.3859253            0   -4.7868253   -2.2405722         4000 
     100    1.2521358   -6.5115055            0   -4.6337712    5.4508644    4089.6042 
     200    1.4689284   -6.2983762            0   -4.0955344    6.0837578    4137.2801 
     300    1.5740251   -6.0110759            0   -3.6506285    5.8428293    4272.3887 
     400    1.7007621   -5.7248177            0   -3.1743123    5.9311621    4395.3486 
     500    1.8066394   -5.4467078            0   -2.7374262    5.7861894     4545.589 
     600    1.8844107   -5.1406616            0   -2.3147521    5.8323888    4700.1474 
     700    2.0254849   -4.9242047            0    -1.886737    5.8268404    4833.6959 
     800    2.1385093   -4.7031284            0   -1.4961664    5.8326966    4964.1584 
     900    2.2562357   -4.5439597            0   -1.1604522    5.8538779    5071.7859 
    1000    2.3669211   -4.4724005            0  -0.92290647    5.7399528    5154.5285 
Loop time of 0.556441 on 18 procs for 1000 steps with 4000 atoms

Performance: 310545.143 tau/day, 1797.136 timesteps/s
99.7% CPU use with 18 MPI tasks x no OpenMP threads

MPI task timing breakdown:
Section |  min time  |  avg time  |  max time  |%varavg| %total
---------------------------------------------------------------
Pair    | 0.32081    | 0.34363    | 0.36578    |   2.3 | 61.76
Neigh   | 0.061699   | 0.06478    | 0.067532   |   0.7 | 11.64
Comm    | 0.098      | 0.11997    | 0.14205    |   3.8 | 21.56
Output  | 0.00022196 | 0.0002295  | 0.0002869  |   0.0 |  0.04
Modify  | 0.021835   | 0.024908   | 0.028811   |   1.4 |  4.48
Other   |            | 0.002916   |            |       |  0.52

Nlocal:        222.222 ave         234 max         214 min
Histogram: 2 3 0 3 1 4 2 2 0 1
Nghost:        2030.39 ave        2051 max        2008 min
Histogram: 1 1 1 2 3 4 3 1 1 1
Neighs:        19703.8 ave       21135 max       18594 min
Histogram: 1 3 3 1 1 4 2 2 0 1

Total # of neighbors = 354669
Ave neighs/atom = 88.667250
Neighbor list builds = 86
Dangerous builds = 10

# Equilibrate just above the melting temperature to avoid step fn in T

fix 1 all npt temp 1.25 1.25 0.1 iso 5.68 5.68 0.5 mtk yes tchain 5 pchain 5
run 1000
Per MPI rank memory allocation (min/avg/max) = 3.680 | 3.684 | 3.691 Mbytes
Step Temp E_pair E_mol TotEng Press Volume 
    1000    2.3669211   -4.4724005            0  -0.92290647    5.7399528    5154.5285 
    1100    1.9578949   -4.6918684            0   -1.7557603    5.6487477    4991.6913 
    1200    1.7396677   -4.9813711            0   -2.3725219    5.5906411    4811.1244 
    1300    1.5731527   -5.2038437            0   -2.8447047    5.7283734     4660.157 
    1400    1.4617969   -5.4064956            0   -3.2143485    5.7429155    4548.2287 
    1500    1.3856267   -5.5768053            0   -3.4988849    5.5616911    4480.7352 
    1600    1.2965183   -5.6686791            0   -3.7243878    5.5183337    4437.4897 
    1700    1.2706454   -5.7482266            0   -3.8427351     5.587581    4391.7293 
    1800    1.2485176   -5.8146125            0   -3.9423043    5.4355018     4375.335 
    1900    1.2452702    -5.820016            0   -3.9525776    5.6724499    4352.6927 
    2000     1.271515   -5.8429821            0   -3.9361864    5.6243904    4346.3347 
Loop time of 0.54023 on 18 procs for 1000 steps with 4000 atoms

Performance: 319863.823 tau/day, 1851.064 timesteps/s
99.8% CPU use with 18 MPI tasks x no OpenMP threads

MPI task timing breakdown:
Section |  min time  |  avg time  |  max time  |%varavg| %total
---------------------------------------------------------------
Pair    | 0.33004    | 0.34339    | 0.35616    |   1.2 | 63.56
Neigh   | 0.055272   | 0.056852   | 0.058899   |   0.4 | 10.52
Comm    | 0.099714   | 0.11115    | 0.12426    |   2.0 | 20.58
Output  | 0.00022021 | 0.00022776 | 0.00028317 |   0.0 |  0.04
Modify  | 0.022715   | 0.025354   | 0.030524   |   1.6 |  4.69
Other   |            | 0.003253   |            |       |  0.60

Nlocal:        222.222 ave         228 max         215 min
Histogram: 1 0 1 3 2 3 5 0 0 3
Nghost:        2236.78 ave        2249 max        2225 min
Histogram: 2 1 1 2 2 5 1 1 2 1
Neighs:        23340.2 ave       24347 max       22415 min
Histogram: 1 1 3 2 3 2 3 1 0 2

Total # of neighbors = 420123
Ave neighs/atom = 105.03075
Neighbor list builds = 75
Dangerous builds = 7


# Small amount of linear quench

fix 1 all npt temp 1.25 ${temp} 0.1 iso 5.68 5.68 0.5 mtk yes tchain 5 pchain 5
fix 1 all npt temp 1.25 1 0.1 iso 5.68 5.68 0.5 mtk yes tchain 5 pchain 5
run 2000
Per MPI rank memory allocation (min/avg/max) = 3.680 | 3.684 | 3.691 Mbytes
Step Temp E_pair E_mol TotEng Press Volume 
    2000     1.271515   -5.8429821            0   -3.9361864    5.6243904    4346.3347 
    2100    1.2261373   -5.8455892            0    -4.006843    5.6309698    4345.7684 
    2200    1.2617573   -5.8501017            0   -3.9579389    5.7142011    4338.1306 
    2300    1.2276953   -5.8681301            0   -4.0270475      5.58973    4338.5584 
    2400    1.1993065    -5.902998            0    -4.104488    5.3801482    4339.6426 
    2500    1.1972585   -5.9443621            0   -4.1489232    5.3259131    4324.4054 
    2600    1.1816131   -5.9672247            0   -4.1952482    5.3249574    4316.0747 
    2700    1.1534542   -5.9553832            0   -4.2256345    5.5516856    4298.2242 
    2800    1.1518918    -5.996827            0   -4.2694213    5.5618314     4280.154 
    2900     1.152686   -5.9886961            0   -4.2600994    5.7468173    4268.7896 
    3000    1.1268936   -6.0039097            0   -4.3139919    5.9113645    4248.6497 
    3100    1.1265732    -6.048858            0   -4.3594206    5.7867552     4239.178 
    3200    1.0985164   -6.0883879            0   -4.4410252    5.4874031    4245.7667 
    3300    1.0840492   -6.1081996            0   -4.4825323    5.6306765    4224.9228 
    3400    1.0950016   -6.1380086            0   -4.4959168    5.5202419    4222.7491 
    3500    1.0625107   -6.1543366            0    -4.560969    5.7029337    4201.4314 
    3600     1.057169   -6.1305056            0   -4.5451485    6.0454192    4183.0763 
    3700    1.0531585   -6.1697807            0   -4.5904379    5.9945742    4173.4784 
    3800    1.0083046   -6.1789535            0   -4.6668747    5.6171078    4194.3124 
    3900     1.001063   -6.2122893            0   -4.7110702    5.4226163    4194.8293 
    4000    0.9985554   -6.2346609            0   -4.7372023    5.5316609    4178.2846 
Loop time of 1.11687 on 18 procs for 2000 steps with 4000 atoms

Performance: 309436.027 tau/day, 1790.718 timesteps/s
99.7% CPU use with 18 MPI tasks x no OpenMP threads

MPI task timing breakdown:
Section |  min time  |  avg time  |  max time  |%varavg| %total
---------------------------------------------------------------
Pair    | 0.70833    | 0.73575    | 0.77219    |   2.2 | 65.88
Neigh   | 0.09797    | 0.10055    | 0.10636    |   0.6 |  9.00
Comm    | 0.18865    | 0.22202    | 0.24635    |   3.6 | 19.88
Output  | 0.00044156 | 0.00045664 | 0.00058633 |   0.0 |  0.04
Modify  | 0.044757   | 0.050805   | 0.062168   |   2.5 |  4.55
Other   |            | 0.007285   |            |       |  0.65

Nlocal:        222.222 ave         229 max         217 min
Histogram: 3 1 0 2 3 7 0 0 1 1
Nghost:        2298.83 ave        2323 max        2278 min
Histogram: 1 1 4 3 2 1 1 2 2 1
Neighs:        24346.3 ave       25531 max       23220 min
Histogram: 3 2 1 3 1 3 0 0 0 5

Total # of neighbors = 438233
Ave neighs/atom = 109.55825
Neighbor list builds = 128
Dangerous builds = 0

#############################
# F R E E Z E  S Y S T E M  #
#############################

# Define solid atoms. This closely follows ten Wolde  Ruiz-Montero and Frenkel  Faraday Discuss  1996  104  93-110
# Compute components of the per-atom q6 vector
compute q6 all orientorder/atom degrees 1 6 components 6 nnn NULL cutoff 1.3 # compute the Q6 parameter.
                                                                             # Use all neighbours within 1.3 unit cell.

# get number of connections
compute coord_number all coord/atom orientorder q6 0.5

# An atom is solid if it has 8 or more connections (of a possible 14)
variable is_solid atom c_coord_number>=8
group solid dynamic all var is_solid    # Must be dynamic to update
dynamic group solid defined

# do clustering
compute cluster solid cluster/atom 1.3 # Create a cluster where all atoms within are solid and max 1.3 units from another member

# define chunks one chunk per cluster
compute clus_chunks solid chunk/atom c_cluster nchunk every compress yes  # Says which atoms are in which chunk

# count the size of each chunk
compute size_chunks solid property/chunk clus_chunks count


# Find the maximum entry in the vector of chunk sizes
variable max_n equal max(c_size_chunks)


# Thermo style which includes this variable
thermo_style custom step temp pe vol v_max_n

thermo ${N}  # Print the thermo information every 100 steps
thermo 100  

# Reset the npt fix at a lower temperature (below freezing)
fix 1  all npt temp  ${temp} ${temp}  0.1  iso  5.68  5.68  0.5  mtk yes tchain  5  pchain  5
fix 1  all npt temp  1 ${temp}  0.1  iso  5.68  5.68  0.5  mtk yes tchain  5  pchain  5
fix 1  all npt temp  1 1  0.1  iso  5.68  5.68  0.5  mtk yes tchain  5  pchain  5

dump dmp2 all dcd ${N} traj_${rand}.dcd
dump dmp2 all dcd 100 traj_${rand}.dcd
dump dmp2 all dcd 100 traj_462431.dcd


# fix rnuntil all halt ${N} v_max_n >= 3980 error soft message no   # Stop when solidified


run 100000 # 5000000  # Run for this many steps
Neighbor list info ...
  update every 1 steps, delay 10 steps, check yes
  max neighbors/atom: 2000, page size: 100000
  master list distance cutoff = 3.8
  ghost atom cutoff = 3.8
  binsize = 1.9, bins = 9 9 9
  4 neighbor lists, perpetual/occasional/extra = 1 3 0
  (1) pair lj/cut, perpetual
      attributes: half, newton on
      pair build: half/bin/atomonly/newton
      stencil: half/bin/3d
      bin: standard
  (2) compute orientorder/atom, occasional
      attributes: full, newton on
      pair build: full/bin/atomonly
      stencil: full/bin/3d
      bin: standard
  (3) compute coord/atom, occasional
      attributes: full, newton on
      pair build: full/bin/atomonly
      stencil: full/bin/3d
      bin: standard
  (4) compute cluster/atom, occasional
      attributes: full, newton on
      pair build: full/bin/atomonly
      stencil: full/bin/3d
      bin: standard
Per MPI rank memory allocation (min/avg/max) = 9.499 | 9.501 | 9.505 Mbytes
Step Temp PotEng Volume v_max_n 
    4000    0.9985554   -6.2346609    4178.2846            5 
    4100    1.0046416   -6.2787884     4160.937            5 
    4200   0.99858941   -6.2584741     4160.148            5 
    4300    1.0089333   -6.2692279    4171.1608            4 
    4400   0.99997702   -6.2324546    4163.0478            5 
    4500    1.0002366   -6.2780563    4151.1482            9 
    4600    1.0004338   -6.2625226     4154.319            4 
    4700   0.98804413   -6.2869238    4150.4827            6 
    4800   0.98789996   -6.2823488    4158.3786            5 
    4900    1.0085914   -6.2777696    4145.5783            9 
    5000    1.0007022   -6.2894852    4137.8964            7 
    5100    1.0054721   -6.3220882    4144.4961            5 
    5200    1.0127164   -6.2739999    4157.2411            5 
    5300   0.99620015   -6.2521937    4160.0136           11 
    5400    1.0050449   -6.2849986    4166.7303            5 
    5500   0.97506761   -6.2768356    4160.2647            4 
    5600   0.97076766   -6.2802443     4148.827            4 
    5700    1.0025727   -6.2845083    4153.9681            3 
    5800    1.0189367   -6.2921899    4153.4302            4 
    5900    1.0036346   -6.3043324    4145.2514            5 
    6000    1.0004516   -6.2772569    4148.9449            3 
    6100   0.99477547   -6.2533411    4154.3122            7 
    6200   0.99446503   -6.2589682    4153.2318            5 
    6300   0.98920522   -6.2806044    4136.0994           11 
    6400    1.0085253     -6.26955    4127.2849            9 
    6500    1.0040048   -6.2426343    4134.1371           12 
    6600    1.0375586   -6.3052471    4137.8312            6 
    6700   0.99672434   -6.2671222    4149.2937            3 
    6800    1.0015453   -6.2784312    4142.3098            4 
    6900    1.0029519   -6.2629109    4139.9341            6 
    7000    0.9898745    -6.296758    4141.2514           10 
    7100   0.98126811   -6.2786808    4145.7819            6 
    7200    0.9970086   -6.2637414    4152.7196           13 
    7300    1.0086566   -6.2489391    4159.9443            5 
    7400    1.0156216   -6.2714823    4160.4632            7 
    7500   0.99510981   -6.2848086    4157.2422            5 
    7600   0.98939348   -6.2807612    4151.8863            5 
    7700   0.98559125   -6.2816394    4135.6411            4 
    7800    1.0122629   -6.3149538    4145.2988            3 
    7900    1.0205831   -6.2821056    4149.7552            4 
    8000   0.99005549   -6.2827201    4151.0485            5 
    8100    1.0036315   -6.2776122    4156.3758            6 
    8200    1.0054203   -6.2538443    4155.1882            9 
    8300     1.010643   -6.3017022    4128.4285            6 
    8400    1.0075936   -6.2899452    4143.3114            9 
    8500     1.002447   -6.2500298    4159.0214           26 
    8600   0.99992911   -6.2387418    4156.6693           10 
    8700   0.99921053   -6.2870132    4148.6375            8 
    8800   0.97891147   -6.2653781    4148.9607            9 
    8900    1.0066045   -6.2624641    4146.1875            4 
    9000    1.0134923   -6.2218744    4148.8129            5 
    9100    1.0201058   -6.2383153    4153.1312            7 
    9200    1.0053279   -6.2587171    4142.0427            4 
    9300    0.9886471     -6.25412    4157.2762            7 
    9400   0.99027751   -6.2432074    4164.7018            9 
    9500     1.001327   -6.2346254    4166.0443            6 
    9600   0.98162211    -6.254863    4155.1078            6 
    9700    1.0021827   -6.2469488    4175.0133            7 
    9800    1.0008237    -6.231958    4182.9809            9 
    9900    1.0023066   -6.2534871    4177.4101            6 
   10000   0.99946197   -6.2769276    4164.7727            4 
   10100     1.007303   -6.2503401    4165.4098            5 
   10200    0.9941683   -6.2485398    4163.0309            5 
   10300   0.99316552      -6.2754    4147.7893            5 
   10400    1.0200922   -6.2991578    4149.0009            5 
   10500    0.9981331   -6.2327644    4162.5569            6 
   10600     0.987471   -6.2691855      4158.75            9 
   10700    1.0058888   -6.2813477    4147.0685            3 
   10800   0.99161769    -6.280806    4153.9242            5 
   10900   0.99358772   -6.2818117     4166.745            4 
   11000    1.0088831   -6.3030274    4161.3325            5 
   11100   0.98503859    -6.305903    4155.3669            4 
   11200    1.0077316   -6.2816477     4164.314            3 
   11300    1.0038534   -6.2876641    4162.1266            3 
   11400   0.98525388   -6.3023154    4135.1951            3 
   11500    1.0087103    -6.295019    4146.1813            9 
   11600   0.99122793   -6.2625969    4153.1924           11 
   11700    1.0112863   -6.2468908    4159.9062            7 
   11800   0.99479217   -6.2445199     4157.742            4 
   11900   0.98295206    -6.285438    4151.1714            4 
   12000    1.0023123     -6.28584    4147.6264            4 
   12100    1.0391598   -6.2865966    4152.2353            4 
   12200    1.0083248   -6.2855392     4148.087            9 
   12300   0.98018158   -6.2672289    4144.7347           10 
   12400   0.99925002    -6.299428    4151.3586            7 
   12500   0.99461705   -6.2466455    4169.2173            7 
   12600    1.0124533   -6.2691455    4163.6069            6 
   12700    1.0018294   -6.2838581    4147.6706            4 
   12800    1.0122604   -6.2951035    4141.0096            5 
   12900    1.0096889   -6.2761769     4143.807            9 
   13000   0.98735662   -6.2939949    4142.4037            9 
   13100   0.99262047   -6.2766608    4148.6284           15 
   13200    0.9980661    -6.246705      4165.49           11 
   13300   0.99836826   -6.2533603    4166.8442           12 
   13400   0.99444139   -6.2888697     4149.135            7 
   13500   0.97560756   -6.2519558     4149.103            3 
   13600    1.0086187   -6.2642718    4148.8304            6 
   13700     1.021209   -6.2550759    4159.3701            9 
   13800    1.0089046   -6.2488056    4166.1809            8 
   13900   0.99729525   -6.2690258    4161.4434           14 
   14000    1.0053742   -6.2771148    4152.5813            6 
   14100   0.99978827   -6.2480651    4146.2991            6 
   14200    1.0037679   -6.2239067    4166.2033            4 
   14300   0.99254868   -6.2540792    4164.1139            6 
   14400   0.99503592   -6.2528739    4160.4537            7 
   14500   0.99070037   -6.2451285     4162.806            8 
   14600    1.0009787   -6.2717689     4155.692            5 
   14700    1.0221457   -6.2648412    4161.3158            6 
   14800   0.99749643   -6.2730828     4170.318            9 
   14900   0.97877179   -6.2993999    4168.3557           10 
   15000    1.0041377    -6.319752    4157.9263            7 
   15100   0.99852183   -6.2921544    4152.7585            6 
   15200    1.0092186   -6.3061043    4150.3447            5 
   15300   0.98835684   -6.2935117    4144.5783            5 
   15400      1.00359   -6.2759558     4168.382           14 
   15500   0.98348212   -6.2982061    4177.1075            9 
   15600   0.99804305   -6.2614088     4166.063           11 
   15700    0.9930506   -6.2504066    4167.9821            3 
   15800    0.9898549    -6.225038    4166.2074           15 
   15900   0.98406864   -6.2643847    4156.2001            6 
   16000   0.99737742   -6.2822238    4151.0658            4 
   16100    1.0404237   -6.2924884    4151.1772            5 
   16200    1.0109171   -6.2894501    4150.0007            4 
   16300   0.98128586   -6.2533439    4146.9841            5 
   16400   0.99842055   -6.2720134    4158.8469            6 
   16500     1.019588   -6.2782108    4169.6886            5 
   16600   0.98218186   -6.2612327    4155.5944           10 
   16700    1.0157296   -6.2832824    4146.3441            9 
   16800   0.98227967   -6.2704003    4140.9472            4 
   16900    1.0055229   -6.2631147    4160.7552           13 
   17000    1.0130713   -6.2485776    4149.5905            4 
   17100    1.0154209    -6.256081    4142.5866            8 
   17200   0.99061502   -6.2329483    4137.3302            5 
   17300    1.0335565   -6.2606205    4148.9734            4 
   17400    0.9919753   -6.2459202    4151.7948            3 
   17500   0.99538753   -6.2635312    4147.4489            4 
   17600    1.0040456    -6.254807    4143.4362            5 
   17700    1.0126307   -6.2555276    4142.6886            2 
   17800   0.97902526   -6.2215567    4128.1339            6 
   17900    1.0175597   -6.2434444    4126.6782            6 
   18000   0.99790488   -6.2708305    4140.7406            4 
   18100   0.99087893   -6.2625651    4145.5923            5 
   18200    1.0021408   -6.2834869     4158.616            4 
   18300   0.98807076   -6.2821893    4149.3066           10 
   18400    1.0105975   -6.3151807    4152.5349            6 
   18500    1.0021417    -6.287968    4146.6351            4 
   18600    0.9961466    -6.295083    4143.0022            4 
   18700   0.97927869   -6.3142598    4142.1345            5 
   18800    1.0054456   -6.3029175    4149.3892            5 
   18900     1.007334   -6.2965335    4157.1584            3 
   19000    1.0168095   -6.2749146    4153.4223            5 
   19100   0.97302958    -6.265505    4148.9456            7 
   19200   0.99015679   -6.2847702     4164.119            4 
   19300   0.99657934     -6.25724     4174.057            3 
   19400   0.99779095    -6.290012      4168.53            6 
   19500   0.98493812   -6.2560819    4161.2048            6 
   19600   0.99770919   -6.2606827    4164.4429            4 
   19700   0.97329875   -6.2782304    4140.1046            4 
   19800   0.99471153   -6.2796511    4148.4124            5 
   19900     1.007494   -6.2581599    4155.6741            6 
   20000   0.99917334   -6.2660388     4139.768            3 
   20100   0.98266525   -6.2566641    4143.0025           18 
   20200    1.0235166     -6.26753    4142.8327            4 
   20300    1.0026727   -6.2641262    4139.8451            9 
   20400   0.98569688   -6.2972828    4138.1382            7 
   20500   0.99589408   -6.2697093      4140.59            4 
   20600    1.0033169   -6.2731058    4150.6684           11 
   20700   0.99215366   -6.2761828    4150.3255            4 
   20800   0.98691025    -6.276587    4162.3622            8 
   20900    1.0010383   -6.2682678    4157.2665           10 
   21000   0.99539405   -6.3085102    4147.8608            6 
   21100    1.0017945   -6.2832547    4154.6619            7 
   21200    1.0195712   -6.2859563    4153.7981            4 
   21300   0.99506121   -6.2518647    4148.8418            6 
   21400    1.0034507   -6.2346989    4163.1403            9 
   21500   0.97330174   -6.2281626    4169.0519            4 
   21600    0.9913351   -6.2098826    4173.7512            3 
   21700    1.0059042   -6.2390249    4164.6372            6 
   21800    1.0124944   -6.2704385    4158.6558            9 
   21900   0.97462809   -6.2792958    4162.0377            5 
   22000   0.97922929   -6.2413701    4174.4608            6 
   22100   0.99405015    -6.259611     4165.275            7 
   22200   0.99086366   -6.2689767     4159.588            5 
   22300    1.0248588   -6.2642129    4158.5128            6 
   22400    1.0065145   -6.2702902    4152.8405           12 
   22500   0.99647076   -6.2745607    4150.9722            6 
   22600    1.0139859   -6.2825179    4157.7163            9 
   22700   0.98693818   -6.2527226      4161.24            4 
   22800   0.99773545   -6.3004173    4141.2275            4 
   22900   0.98781825   -6.2816495    4139.9873            5 
   23000   0.99394184   -6.2511454    4151.5308            4 
   23100   0.98591357     -6.24259    4155.8809            4 
   23200    1.0254498    -6.253148    4153.6532            6 
   23300    1.0194576   -6.2389697    4151.8899            8 
   23400    0.9946905   -6.2516698    4142.0446            6 
   23500    0.9948635   -6.2649712    4139.3156            5 
   23600    1.0392324   -6.2784974    4142.6409            5 
   23700   0.99649556   -6.2408578    4150.5255            8 
   23800    1.0024651   -6.2317865    4152.1103            7 
   23900    0.9991045   -6.2712363    4152.9462            4 
   24000    1.0055911   -6.2614056    4146.5872            4 
   24100    1.0003711   -6.2444348    4147.8664            7 
   24200   0.99457052   -6.2697166    4142.4367            4 
   24300    1.0186086   -6.2625862    4144.7517            9 
   24400    1.0046017   -6.2582189    4153.9316            3 
   24500   0.99600214   -6.2738444    4152.4446           10 
   24600    1.0004714   -6.2757312    4155.2954            7 
   24700    1.0043833   -6.2587046     4152.824           15 
   24800   0.99287383   -6.2777865    4146.2583            7 
   24900    1.0023883   -6.3127577    4140.1031            5 
   25000   0.97387827   -6.2816655    4143.8857            5 
   25100    1.0093577   -6.2761223    4153.8804            4 
   25200   0.99985042   -6.3130117    4149.1427            5 
   25300   0.99173631   -6.2616816    4145.5399            4 
   25400    1.0165824    -6.273854    4146.5878            4 
   25500   0.98762904   -6.2756231    4139.3337            7 
   25600   0.99560921   -6.2755239    4140.1042            3 
   25700    1.0001178   -6.2504048     4140.322            7 
   25800    1.0105135   -6.2555634    4142.6319           11 
   25900    1.0091797   -6.2888403    4143.0051            5 
   26000   0.99706857   -6.3071666    4138.8711            8 
   26100    1.0024109   -6.2494102    4151.9525            7 
   26200   0.99840535   -6.2428992    4149.7036            4 
   26300    1.0008644   -6.2477246    4150.5191            5 
   26400    1.0162257   -6.2737728    4156.5825            9 
   26500   0.99491463   -6.2828861    4149.8992           14 
   26600     1.006451   -6.2620411    4160.9423           20 
   26700    1.0034651   -6.2593337      4158.59            7 
   26800   0.98939625   -6.2612649    4157.9374           19 
   26900   0.99643732   -6.2734668    4154.4862            7 
   27000    1.0037471   -6.2560787      4153.42            4 
   27100   0.98827353   -6.2523044    4159.2053            7 
   27200   0.98755179   -6.2921002    4152.8459            6 
   27300    1.0070657   -6.2673969    4151.1274            4 
   27400    1.0008123   -6.2475993    4148.3047            5 
   27500   0.98585534   -6.2806319    4140.4139            5 
   27600    1.0039119   -6.2710293    4146.1269            6 
   27700     1.008408   -6.2763421    4160.6954            5 
   27800   0.99349315   -6.2683108    4162.9113            6 
   27900   0.99179929   -6.2810964    4155.9573            4 
   28000     1.014514   -6.2707313    4154.4482            5 
   28100    1.0489643   -6.2621527    4150.1073            6 
   28200    1.0018372    -6.253695    4149.9015           10 
   28300   0.99003935   -6.2739556    4150.9959           12 
   28400     1.025801   -6.2711367     4157.842            5 
   28500   0.98347068   -6.2573696    4162.8846            4 
   28600   0.97304733   -6.2696565    4167.0736            8 
   28700   0.99591605   -6.2793875    4172.8586            4 
   28800    1.0057108   -6.2519669    4173.8426            6 
   28900    0.9862055   -6.2551731     4157.364            4 
   29000    1.0065883   -6.2715397    4152.9781            6 
   29100    1.0063578     -6.29124    4146.3293            7 
   29200     1.004443   -6.3046208    4145.0561            3 
   29300   0.98765705   -6.2909315    4147.1275            4 
   29400    1.0027698   -6.2829596    4159.8828            5 
   29500    1.0145346   -6.2543022     4164.783            3 
   29600   0.98561266   -6.2625725    4149.2556            4 
   29700    1.0044105   -6.2928124    4151.8993            8 
   29800   0.98440699   -6.2895359    4147.1226           10 
   29900    1.0065672   -6.2836499    4144.1174           11 
   30000    1.0106835   -6.2631714    4149.6003           16 
   30100    1.0132308   -6.2899378    4151.6117           11 
   30200   0.98496015   -6.2970047    4148.5623           13 
   30300   0.99060022    -6.282505    4152.4733            7 
   30400    1.0109984   -6.2740726    4156.8777            7 
   30500   0.99565798   -6.2753829    4173.3222            4 
   30600   0.96593308   -6.2163239    4175.5687            6 
   30700    1.0102566   -6.2712522    4178.6609            4 
   30800    0.9810544   -6.2787354    4163.6473            7 
   30900    1.0106563   -6.2894672    4163.7078           14 
   31000   0.98173252    -6.287979    4164.0378           11 
   31100   0.99473908   -6.2678812    4157.2018            7 
   31200    1.0224899   -6.2658571    4164.8633            5 
   31300    0.9877305   -6.2374714     4165.869            4 
   31400   0.99849205   -6.2467542    4151.2859            5 
   31500    1.0113779   -6.2759889    4139.6774            3 
   31600    1.0030855    -6.276424    4142.3445            4 
   31700     1.028041    -6.282241    4156.6485            4 
   31800    1.0122991   -6.3049552    4138.4207            4 
   31900    0.9788074   -6.2829355    4141.3658            8 
   32000   0.99582933   -6.2731758    4159.2039           14 
   32100   0.97175569   -6.2584143      4158.04            8 
   32200    0.9957312    -6.290362    4158.1344            5 
   32300    1.0001707    -6.261839     4163.396            8 
   32400    1.0272204   -6.2978909    4160.3893            5 
   32500     1.000236   -6.3086923    4161.9379            6 
   32600   0.96697774   -6.2911415    4158.5708            8 
   32700   0.98903534   -6.2940929    4155.0135            6 
   32800    1.0205799   -6.3052561    4146.3692            7 
   32900    1.0069894   -6.3181103    4137.0456            6 
   33000   0.97574289   -6.2963926    4140.3978           13 
   33100   0.99299208   -6.2718155    4159.8627            9 
   33200   0.98390817   -6.2402386    4150.2991            5 
   33300    1.0153844   -6.2767611    4147.0879            4 
   33400    1.0576092    -6.266782    4138.0788            9 
   33500    1.0137232   -6.2559936    4150.2051            7 
   33600   0.98118564   -6.2668353    4149.1447            8 
   33700   0.98273166   -6.3032692    4153.8661           14 
   33800    1.0020786   -6.2919742    4155.2693            9 
   33900    1.0223247   -6.2701129     4152.734            6 
   34000   0.98490506    -6.257678    4139.7905            5 
   34100      1.02243   -6.2997077    4153.5033            5 
   34200   0.98680226   -6.2659012    4151.5269            9 
   34300    1.0040401     -6.29418    4150.4327            9 
   34400   0.97292885    -6.284785    4138.1478            5 
   34500     1.026463   -6.3105016    4139.7059            4 
   34600    1.0057851   -6.2983902    4141.4182            7 
   34700    1.0229303   -6.2755679    4141.2859            8 
   34800    1.0101246   -6.2849623    4138.9637            8 
   34900      1.00834   -6.3189436    4138.4038           12 
   35000    1.0064172   -6.2819562    4143.1291           10 
   35100   0.99725978   -6.2839367    4152.7637            9 
   35200    1.0142414   -6.3056092    4157.5025           10 
   35300    0.9986838   -6.2799146    4143.3104            8 
   35400   0.98530311   -6.3072635    4134.5409            8 
   35500    1.0032716   -6.2759666    4148.5275            9 
   35600    1.0163917   -6.2986372    4152.1119            7 
   35700   0.99136436   -6.3101639    4155.2281            9 
   35800    1.0065573   -6.2942639    4152.7488           13 
   35900   0.98842876   -6.2980677    4159.6277            9 
   36000   0.99863578   -6.2664746    4164.4565            9 
   36100   0.99633851   -6.3122483    4162.4309           14 
   36200   0.98401513   -6.2961014    4156.8919           10 
   36300   0.99272418   -6.3158523      4154.34            4 
   36400   0.98431004   -6.2670746    4171.2857            5 
   36500    0.9959058    -6.256092    4166.1074            7 
   36600     1.004278   -6.2598589    4156.3568           13 
   36700    1.0194067   -6.2534516    4158.1697            3 
   36800   0.99235351   -6.2469453    4154.3218           11 
   36900    1.0128067   -6.2676976    4146.4582           11 
   37000    1.0118855   -6.2525513    4149.2255           11 
   37100     1.022126   -6.2492845    4153.7987            8 
   37200   0.98094442   -6.2310025    4152.9622            5 
   37300   0.99006266   -6.2120199    4165.1966            8 
   37400    1.0106596   -6.2380195    4163.9336            8 
   37500    0.9916917   -6.2263519    4142.1091            6 
   37600   0.98728443   -6.2758627    4137.3186           13 
   37700    1.0178125   -6.2757876    4140.6263            6 
   37800    1.0310377   -6.3066901    4136.6208            8 
   37900   0.99055454   -6.2690862    4143.7838            5 
   38000    1.0015374   -6.2681286    4156.5743            6 
   38100    0.9868396   -6.2797421    4162.8259           11 
   38200    0.9732406   -6.2692254    4153.5457            7 
   38300    1.0031633   -6.2651957    4163.8035           12 
   38400   0.99468107   -6.2388232    4151.1261            7 
   38500   0.99226892   -6.2767585    4149.8418            4 
   38600    1.0093629   -6.2704017    4154.8683            4 
   38700    1.0068448   -6.2432861     4174.619            6 
   38800   0.99034753   -6.2577733    4162.6902            3 
   38900   0.99329047   -6.2543546    4162.4793           12 
   39000    1.0155588   -6.2460839    4155.4252            3 
   39100   0.99031911   -6.2479354    4148.5634            4 
   39200   0.98697424   -6.2710093    4146.8457            4 
   39300    1.0072934   -6.3006103    4141.8629            4 
   39400    1.0173114   -6.2782702    4159.8647            6 
   39500   0.99141182   -6.2608391    4162.3083           13 
   39600    1.0030919   -6.2520195     4167.458           10 
   39700   0.98203635   -6.2215086    4173.5077            6 
   39800    1.0133503   -6.2397449    4165.6251            5 
   39900    0.9932657   -6.2547143    4149.4991            4 
   40000    1.0154342   -6.2518434    4149.6503            7 
   40100   0.99777183   -6.2591864    4153.4002            5 
   40200    1.0002979   -6.2898256    4140.3514            7 
   40300    0.9906557   -6.2706583    4143.7196           22 
   40400    1.0067511   -6.2824409    4153.7735            4 
   40500   0.99167446   -6.2629985     4150.517            9 
   40600    1.0070434   -6.2936259    4148.9702            5 
   40700   0.98296213   -6.2757747    4147.2986           14 
   40800    1.0128943   -6.2753487    4158.9794           11 
   40900   0.99131769   -6.2773356    4158.4629            8 
   41000   0.98083585   -6.2898546    4159.7368            6 
   41100    1.0081868   -6.2831598    4163.3129            6 
   41200   0.98882262   -6.3001409    4157.6802            5 
   41300   0.98539343   -6.3157638     4158.537            5 
   41400    1.0129555   -6.2973557    4153.2121            8 
   41500   0.98940964   -6.2754929    4153.4017            5 
   41600     1.005068   -6.2377105    4158.7592            6 
   41700    0.9847664   -6.2492645    4163.7143            3 
   41800   0.98566587   -6.2477536    4160.5677            7 
   41900    0.9992263   -6.2938878    4154.9615            9 
   42000    1.0016808   -6.2700363    4162.2129            6 
   42100    1.0045913   -6.2539076     4159.903            8 
   42200   0.98996579   -6.2584196     4157.712            5 
   42300   0.97620948    -6.253317    4161.3774            3 
   42400    1.0031153   -6.2688058    4155.6311            6 
   42500    1.0069122    -6.268739    4147.4762            6 
   42600     1.001463   -6.2694773    4150.5842            4 
   42700    0.9936136   -6.2925436    4147.1977            4 
   42800     1.009309   -6.2787086    4150.1171           10 
   42900     1.000222   -6.2588033    4153.3725            4 
   43000   0.98714473   -6.2467406    4146.8828            5 
   43100    1.0292978   -6.2774362    4147.8853            4 
   43200     1.012685   -6.3006135    4130.5047            6 
   43300   0.99373307   -6.2521989    4139.2807            9 
   43400    1.0107968   -6.2658876     4147.978            5 
   43500    1.0204197   -6.2369466    4147.7974            6 
   43600   0.98417414   -6.2474438    4159.3918            5 
   43700    1.0065478   -6.3119902    4137.7383            8 
   43800   0.99586293   -6.2717242     4142.712            4 
   43900    1.0094576   -6.2735331    4135.8903            3 
   44000   0.99847919   -6.2892471    4128.9492            6 
   44100   0.99100007   -6.2451146    4141.6004            5 
   44200    1.0171574   -6.2539674    4148.0754            8 
   44300    0.9948072   -6.2376242    4146.4673            7 
   44400    1.0037209   -6.2849895    4139.1921            9 
   44500   0.97992094   -6.2646443    4138.9194            6 
   44600    1.0171552   -6.2735744     4146.448            3 
   44700   0.99192828   -6.2704361    4147.7971            6 
   44800   0.96458998   -6.2774719    4147.2104            6 
   44900   0.98975781   -6.2824347    4145.8303            6 
   45000    1.0194387   -6.2788507    4145.9169            8 
   45100    1.0099718   -6.2546547    4137.0219            6 
   45200   0.99975919   -6.2608448      4135.97            5 
   45300    1.0019316   -6.2803914    4151.0905            8 
   45400   0.99242319   -6.2585343    4165.5614           11 
   45500    1.0036657   -6.2608145    4157.0314            6 
   45600   0.98805257    -6.285519     4146.339            8 
   45700    1.0108839   -6.2676677    4151.8894            4 
   45800    1.0014819   -6.2825226    4148.8126            5 
   45900    1.0066818   -6.2869638    4141.0952            9 
   46000   0.97743251   -6.3059377    4145.0619            8 
   46100   0.99745928   -6.2879411    4162.3359            5 
   46200    0.9993906   -6.2621103    4169.6496            7 
   46300    1.0126474   -6.2649787    4162.5112           10 
   46400    1.0053684   -6.3002905    4151.3683            7 
   46500   0.98800822   -6.3121089    4145.6572           14 
   46600     1.000257   -6.2799858    4145.3786            4 
   46700    1.0323565   -6.2846581    4160.0953            4 
   46800    0.9855547   -6.2659934    4161.0064           14 
   46900    1.0113089   -6.2674378    4151.9419            9 
   47000    1.0099413   -6.3060203    4124.9873            6 
   47100     1.009707   -6.2670358    4136.4189            7 
   47200     1.020093   -6.2644394    4141.1421           14 
   47300   0.99981421   -6.2951001    4147.3321           12 
   47400   0.99737698   -6.2957195    4154.5698            6 
   47500    1.0172644   -6.2807183     4160.817           13 
   47600    1.0028732   -6.3053233    4139.7025            7 
   47700   0.99730692   -6.3083438     4142.167            5 
   47800    1.0125845   -6.2916135    4147.3959           11 
   47900   0.97428321   -6.2759184    4138.5583            5 
   48000    1.0056109   -6.2733277    4146.9486            5 
   48100   0.99898246   -6.2793812    4151.7934            7 
   48200    1.0061345   -6.3052152    4147.2242            6 
   48300   0.98825776   -6.3122627    4146.0526            9 
   48400   0.99539144   -6.2900958    4152.5922            5 
   48500   0.99811644   -6.2954231    4150.4632            5 
   48600    1.0120172   -6.2837869    4149.4444            9 
   48700    0.9972311   -6.2510496     4158.161            7 
   48800   0.99021832   -6.2460362    4149.4243            5 
   48900    1.0035329   -6.2906941    4132.5878            8 
   49000    1.0019933   -6.2745663    4129.0495            9 
   49100    1.0096209   -6.2600711     4140.174            3 
   49200     1.015529   -6.2488876    4151.1943            5 
   49300   0.99699059   -6.2502207     4143.447            6 
   49400   0.99364906   -6.2902869    4125.8772            4 
   49500   0.99767805   -6.2844394    4130.1321            4 
   49600   0.98912899   -6.2692273    4153.6842            8 
   49700    1.0047452   -6.2755239    4152.2199            6 
   49800      1.00622   -6.2897105    4142.4432            6 
   49900   0.99072074   -6.2791127    4135.2608            5 
   50000   0.99833389   -6.2478462    4145.2099            3 
   50100    1.0326797   -6.2554656    4154.0532            7 
   50200    1.0052783   -6.2663562    4148.6794            4 
   50300   0.97957675   -6.2567286    4137.0203            7 
   50400    1.0176962   -6.2564992    4143.0567            5 
   50500    1.0114006   -6.2883057    4138.1067           10 
   50600    1.0137817   -6.2969054    4147.1708            6 
   50700   0.99415719    -6.288388    4146.3119            7 
   50800    1.0234949   -6.2718386    4144.6392            7 
   50900    1.0275179   -6.2389174    4157.9742            9 
   51000    1.0130745   -6.2679651    4151.2839           10 
   51100    1.0164722   -6.2861925    4156.6063            5 
   51200   0.99826693   -6.2738754    4159.3247            4 
   51300   0.97976429   -6.2841817     4151.619            4 
   51400   0.99826664   -6.2691437    4150.0441            8 
   51500    1.0094312   -6.2794301    4153.9598            4 
   51600    0.9977321   -6.2375519    4160.5682            4 
   51700    1.0113445   -6.2795512    4156.1642           11 
   51800    1.0035341   -6.2933436    4156.5771            7 
   51900   0.98282051   -6.2630852    4159.6844            3 
   52000   0.98687587   -6.3027408    4164.4534            5 
   52100   0.99128062   -6.2695977    4171.8882            3 
   52200   0.97329744   -6.2789493    4161.2595            4 
   52300   0.97775243   -6.2751742    4160.3749            3 
   52400    1.0009876   -6.2585783    4154.6642            5 
   52500   0.99436287   -6.2898603    4152.6213            9 
   52600   0.99528724   -6.2840768    4151.7235            5 
   52700    1.0088996   -6.2520113    4151.1493            6 
   52800   0.98952106   -6.2599446     4141.501            4 
   52900    1.0102144   -6.2908722    4135.8728            4 
   53000    1.0302852   -6.3085543    4140.1056            2 
   53100    1.0203838   -6.2650608    4158.5838            6 
   53200    1.0040947   -6.2652138    4155.2198            7 
   53300   0.99243326   -6.2861303    4148.3489            4 
   53400    1.0063594   -6.2993525    4151.5488            7 
   53500   0.98167443   -6.2771164    4158.0922            5 
   53600   0.99754811   -6.2833842    4173.9569            9 
   53700    1.0045808   -6.2663437    4174.3656            8 
   53800    1.0149032   -6.2874782    4159.0169            4 
   53900    1.0123404   -6.2702144    4154.2541            4 
   54000   0.99225189   -6.2904275    4149.8887            6 
   54100   0.99805933   -6.2908811    4157.1161            8 
   54200   0.98319803    -6.267683    4163.1083            7 
   54300    1.0092495   -6.2798424     4161.229            3 
   54400   0.98179054   -6.2831515    4135.9784            5 
   54500   0.99950966   -6.2922486     4148.594            4 
   54600    1.0006215   -6.2681035    4161.1021            4 
   54700   0.99922157    -6.267188    4167.9765            7 
   54800    1.0057462   -6.2659829    4176.8177            7 
   54900   0.98698843   -6.2752979    4157.7568            4 
   55000   0.98606901   -6.2885021    4151.2393            3 
   55100   0.97163415   -6.2921607    4155.3267            4 
   55200   0.99115854   -6.2756928     4171.782            7 
   55300    1.0129634   -6.2671651    4164.7622            6 
   55400   0.98709683   -6.2519591    4157.3168            5 
   55500   0.99919959   -6.2475435    4151.1327            8 
   55600   0.99085175   -6.2362829    4143.1124            7 
   55700    1.0369143   -6.2572004    4153.1768           10 
   55800     1.008516   -6.2820033    4135.7902            7 
   55900   0.99444608    -6.259821    4135.0256            6 
   56000    1.0138538   -6.2487912    4150.0741            8 
   56100    1.0145144    -6.281774    4157.2418            5 
   56200   0.96812963   -6.2708873    4149.5723            8 
   56300   0.98914631   -6.2579776    4162.1685            5 
   56400   0.99060071   -6.2554984    4154.2927            5 
   56500    1.0171118   -6.2907926    4141.6124            7 
   56600    1.0086049   -6.2952419    4142.9475            6 
   56700   0.99922057   -6.2426618    4160.4647            4 
   56800    1.0081583   -6.2772983    4171.0662            5 
   56900   0.98287854    -6.268237    4172.2686            4 
   57000    1.0146495   -6.2881628    4161.8724            5 
   57100   0.99088516   -6.2926667     4148.433           13 
   57200    1.0135667   -6.2813545    4155.7507            6 
   57300   0.99582599   -6.2548364    4164.9504            4 
   57400    1.0163557   -6.2594479    4165.1703            3 
   57500   0.98760457   -6.2450073    4145.8408            6 
   57600    0.9962594   -6.2804082    4143.0106            3 
   57700    1.0115161     -6.25711    4148.6125            7 
   57800    1.0316661   -6.2912867    4138.9534            6 
   57900    1.0224274   -6.2721812     4135.986            5 
   58000    1.0012811   -6.2619178    4139.4524            9 
   58100    1.0075048   -6.2995631    4125.1006           13 
   58200   0.98356683   -6.3119911    4124.5471            4 
   58300    1.0057574    -6.294532    4143.5216           12 
   58400   0.99555978   -6.2966315     4142.033            9 
   58500   0.97480635   -6.3129017    4127.9944            7 
   58600   0.97861833   -6.2804214     4129.913            6 
   58700    1.0027031   -6.2674449    4143.4764            5 
   58800    1.0291364   -6.2781388     4144.552            5 
   58900    1.0031577    -6.274463    4150.5561           10 
   59000   0.99379027   -6.2911819    4152.4262           12 
   59100   0.98555351   -6.3160839    4132.2386           10 
   59200    1.0118075   -6.2951388    4134.2998            9 
   59300    1.0041481   -6.2566204     4140.544            4 
   59400   0.98585661   -6.2455559     4149.878            5 
   59500   0.99972292   -6.2937295    4136.1271            8 
   59600    1.0042394   -6.2860768    4142.9059           10 
   59700    1.0013111   -6.2566363    4147.4973           13 
   59800    1.0381784   -6.2877192     4147.086            8 
   59900   0.98899503   -6.2562431     4152.811            6 
   60000   0.99067927   -6.2491364    4155.1227            7 
   60100   0.99186562   -6.2913233    4149.3258           15 
   60200    1.0014785   -6.2866077    4152.4659            6 
   60300    1.0013563   -6.2526331    4156.9452            4 
   60400   0.98572037   -6.2836591    4143.6263            6 
   60500   0.99835079   -6.2641539    4151.2922            4 
   60600    1.0192456   -6.2724449    4144.0718            6 
   60700   0.99192647   -6.2552515    4147.7063            9 
   60800    1.0008052   -6.2799101    4144.3617            6 
   60900   0.98368533   -6.2705919    4134.1865            8 
   61000    1.0107226   -6.2748652    4145.7798            3 
   61100     0.990063   -6.2771628    4142.6642            2 
   61200    0.9881026   -6.2655601    4153.3838            8 
   61300    1.0086475   -6.2516615    4152.4027            7 
   61400    1.0224226   -6.2589773    4142.4189            9 
   61500    1.0182767   -6.2872277    4132.0685            9 
   61600    1.0023147   -6.2861941    4135.5144            5 
   61700   0.99706189   -6.2525202    4154.0448            6 
   61800   0.99338171   -6.2880532     4147.344           11 
   61900   0.98507567   -6.2702058    4150.7276            9 
   62000   0.99230966   -6.2690487    4155.6087           13 
   62100    1.0179291   -6.2670305     4163.152           15 
   62200   0.99541201   -6.2836715    4156.2187           10 
   62300   0.99350017   -6.2571388    4156.6666            5 
   62400   0.99970297   -6.2507145    4158.9535            5 
   62500   0.99574644   -6.2896477    4139.0481            5 
   62600    1.0020518   -6.2612722    4150.7901            4 
   62700    1.0003808   -6.2858952    4160.4433            8 
   62800   0.99205345   -6.2508734    4161.8175           11 
   62900   0.99426048   -6.2603704    4169.3273            4 
   63000   0.98787043   -6.2947331    4153.7289           11 
   63100    1.0099719   -6.2839438    4149.4611            8 
   63200    1.0040929   -6.2633279    4152.1603            7 
   63300    1.0163981   -6.2474137     4153.133           10 
   63400     0.992981   -6.2503316    4153.3845           10 
   63500   0.99547774   -6.2971087    4144.4151            8 
   63600    1.0099816   -6.2720187    4143.1645            8 
   63700   0.99443974   -6.2883857     4151.644            9 
   63800    1.0047212   -6.2571641    4168.2061            8 
   63900    1.0006217    -6.282017    4158.5637            7 
   64000   0.98777827   -6.2959177    4157.8189            7 
   64100   0.99654405   -6.2749595    4155.3729            4 
   64200      1.00771   -6.2858177    4149.4859           15 
   64300   0.99284082   -6.2794634    4144.1487            6 
   64400   0.99672334   -6.2717083     4131.579            8 
   64500    1.0052129   -6.2461083    4145.1664            3 
   64600    1.0238532   -6.2411345    4148.8532            7 
   64700    1.0020135   -6.2523374    4144.3803            4 
   64800    0.9984632   -6.2796415    4144.1243            4 
   64900    1.0210883   -6.2618185    4159.6772            7 
   65000    1.0141585    -6.258925    4164.0661            3 
   65100   0.99055529   -6.2538927    4156.2319            9 
   65200   0.98667287   -6.2567351    4148.7767           13 
   65300   0.99160403   -6.2946506    4138.3965            4 
   65400     1.020488   -6.2798751    4146.5542            9 
   65500   0.99123513   -6.2492816    4151.2027           16 
   65600    1.0107476   -6.2345918    4167.9359            9 
   65700   0.99969697   -6.2660681    4157.6604            8 
   65800   0.98594774   -6.2559501    4161.9936            9 
   65900    1.0074477   -6.2903906    4170.1434            8 
   66000   0.99356326    -6.283621     4158.832            5 
   66100     1.027983    -6.302591    4155.4104            9 
   66200   0.99111681   -6.2859548    4145.2791            7 
   66300    1.0000658    -6.274172     4149.102            8 
   66400   0.99969403   -6.2640536    4163.8242            7 
   66500    0.9827567   -6.2809915    4163.3823            3 
   66600   0.98571641   -6.2879831     4149.693            3 
   66700   0.98511635   -6.2933137    4150.8366            5 
   66800    1.0020191   -6.2849122     4164.425            2 
   66900   0.97800051   -6.2739239    4165.3287            5 
   67000   0.97176634   -6.3009383    4141.1375            3 
   67100   0.98131457   -6.2660666     4139.051            3 
   67200     1.013424   -6.2652798    4148.3278            6 
   67300    0.9832207   -6.2519487    4140.6741           10 
   67400    1.0045882   -6.2566966    4148.2654            7 
   67500    1.0280524   -6.2451349    4166.5236           12 
   67600    1.0064393   -6.2481593    4164.7875            9 
   67700   0.99540146   -6.2759753    4146.3294            7 
   67800   0.98829255   -6.2856778    4147.7649            5 
   67900   0.99965239   -6.2913778    4160.8235            9 
   68000    1.0100729   -6.2543457    4175.3128           10 
   68100    1.0055081   -6.2600839    4161.2533           10 
   68200   0.98687887   -6.2668233    4150.3492           11 
   68300   0.98374697   -6.2713155    4154.1002            9 
   68400   0.98759582   -6.2593899    4156.2771            3 
   68500    1.0110405   -6.3148458    4149.3914            6 
   68600    1.0121268   -6.3063315      4134.77            7 
   68700     1.000256   -6.2999189    4130.7784            7 
   68800   0.99585272   -6.2547352    4151.3678            6 
   68900   0.97858115   -6.2690655    4151.3931            4 
   69000    1.0042078   -6.2948906    4144.1326            5 
   69100   0.99110293   -6.2887484    4145.9295           12 
   69200   0.98404006   -6.2241279    4164.7845            5 
   69300   0.99953748   -6.2512187    4166.0027            6 
   69400    1.0031325   -6.2782201    4154.5162            4 
   69500   0.99543354   -6.2937409    4142.3006            7 
   69600   0.98457181   -6.3027676     4133.894           18 
   69700    1.0053418   -6.2719601    4149.1755           11 
   69800    1.0019769   -6.2814517    4151.4962            9 
   69900    1.0058289   -6.2357104      4151.37            5 
   70000    1.0047024   -6.2579581    4144.8382            6 
   70100   0.98614915   -6.2754505    4150.5452            5 
   70200    1.0038396   -6.2657864    4158.9841            6 
   70300    1.0017361   -6.2325965    4156.2523            5 
   70400    0.9889028   -6.2539774    4148.1547            5 
   70500    1.0064644   -6.2516588    4145.5745           18 
   70600    1.0403438    -6.246553    4143.6648            8 
   70700    1.0198478   -6.2633588    4135.3692            8 
   70800   0.99081378   -6.2506937    4148.7678           13 
   70900    1.0093784   -6.2689308    4158.2336            5 
   71000   0.99628352   -6.2954229    4144.7928           10 
   71100    1.0121347    -6.292469    4131.2584           10 
   71200    1.0030578   -6.2556882    4139.4065            3 
   71300    1.0028982   -6.2444843    4153.2046           15 
   71400   0.98774984   -6.2789537     4145.014            7 
   71500    1.0084065   -6.2798513    4159.7757            7 
   71600     1.007735   -6.2722149    4161.9648            4 
   71700    0.9813592   -6.2742467      4146.65            8 
   71800   0.99457857   -6.2666624    4146.8065            7 
   71900    1.0218795   -6.2735969    4152.7781            5 
   72000   0.99181477   -6.2477305    4144.6778            4 
   72100    1.0165566    -6.282773    4143.4571            5 
   72200   0.97083212   -6.2558257    4144.5745            7 
   72300    1.0008941   -6.2798561    4160.3265           11 
   72400    1.0092904   -6.2637332     4167.228            6 
   72500    1.0007749    -6.298522    4155.0084            8 
   72600   0.98786123   -6.2775329    4154.6052            6 
   72700    1.0060595   -6.2555863    4155.3274            4 
   72800    1.0170908   -6.3277839    4145.0736            9 
   72900   0.99359326   -6.2919492    4157.2667            3 
   73000     1.001741   -6.2621505     4159.393            3 
   73100   0.99502091   -6.2933489    4152.1539            7 
   73200    1.0078044   -6.2872882    4147.8403            6 
   73300    1.0152838   -6.2612223    4165.3577            5 
   73400   0.99054189   -6.2694188    4162.5671            8 
   73500   0.99668812   -6.2808879    4162.2049           11 
   73600    1.0050689   -6.2416652    4166.1682            6 
   73700   0.99884484   -6.2721514    4153.2102            9 
   73800    1.0062141   -6.3035139    4146.6401           17 
   73900   0.99925854   -6.2919466    4154.1806            9 
   74000    1.0006263   -6.2713135    4167.8504           12 
   74100    1.0085533   -6.2728543    4167.2915            8 
   74200   0.99166014   -6.2992231    4153.0496            4 
   74300    1.0146288   -6.2825476     4143.604            7 
   74400    1.0010244    -6.252028    4149.3841           20 
   74500   0.99416141   -6.2232992    4154.1341           10 
   74600    1.0069248   -6.2895632    4134.8252            4 
   74700    1.0158814    -6.265638    4138.9658            4 
   74800   0.99116233   -6.2626069    4147.9233            8 
   74900   0.99751135   -6.2489298    4158.9827            7 
   75000   0.99212884    -6.217326    4163.8997           10 
   75100   0.99695983   -6.2734017    4146.7062            6 
   75200    1.0125494   -6.2696567    4144.0291           11 
   75300   0.99398465   -6.2835952     4147.454            6 
   75400    1.0025534   -6.2755359     4146.345           10 
   75500    1.0126727   -6.2679031     4154.639            6 
   75600   0.99736254   -6.3041099    4152.4968           11 
   75700    1.0080674   -6.3067992    4142.4578           16 
   75800    1.0045181   -6.3294389    4134.0531           20 
   75900   0.99544145   -6.3055888    4146.8904            7 
   76000   0.98716558   -6.2783148    4154.8971           11 
   76100   0.99385295   -6.2744326    4152.3638           15 
   76200   0.99184226   -6.3216413    4151.9114           15 
   76300    0.9820429   -6.2911499    4160.5798            6 
   76400   0.97418081   -6.2563849    4162.7712            9 
   76500   0.99816128   -6.2773649    4156.5946            5 
   76600    1.0026685   -6.2723292    4158.2884            8 
   76700    1.0173988   -6.2867675    4152.1611            4 
   76800   0.99278711   -6.2782683    4148.8852            7 
   76900   0.97911521   -6.2948966    4144.3331           12 
   77000    0.9899525   -6.3078511    4142.4154           12 
   77100    1.0092031   -6.2800566    4153.1475            6 
   77200   0.99189895   -6.2667392    4142.4128            8 
   77300   0.99421046   -6.2939073    4139.5126            5 
   77400    1.0053243     -6.26908    4157.6964            4 
   77500    1.0011846   -6.2614861    4149.0848            5 
   77600    1.0038448   -6.2810602    4143.4018            7 
   77700     1.006924   -6.3055568    4148.7711            6 
   77800   0.98908301    -6.292841    4144.4198            3 
   77900   0.99868079   -6.2717351    4149.2724            7 
   78000     1.008946    -6.252207    4151.1193            4 
   78100    0.9865526   -6.2677189    4152.0823           11 
   78200    1.0046758    -6.277361    4142.1097           10 
   78300    1.0110014   -6.2653149    4140.2263            5 
   78400    1.0024363   -6.2517743    4147.9755           10 
   78500   0.98921126   -6.2418531    4126.7545            8 
   78600     1.040598   -6.2769293    4140.8938            8 
   78700   0.98582663    -6.232249    4140.1077            4 
   78800     1.016411   -6.2608066    4146.2363            9 
   78900    1.0297745   -6.2417506    4160.2009            7 
   79000    1.0160743   -6.2609868     4147.612            4 
   79100   0.98864137   -6.2657408    4146.4123            7 
   79200    1.0210839   -6.2702929    4156.7871            6 
   79300    1.0026317   -6.2498177     4162.376            7 
   79400   0.97682163   -6.2602639    4152.2813            4 
   79500   0.98875156    -6.266789    4158.1219            7 
   79600   0.98121114   -6.2525293    4158.7073            6 
   79700   0.98498844   -6.2716706    4161.0952            3 
   79800   0.99288186   -6.2728305     4170.061            3 
   79900    1.0197521   -6.2568705    4168.6547            8 
   80000    1.0104441   -6.2953166    4167.0304            4 
   80100    0.9908226   -6.2637202    4162.3786            5 
   80200   0.99656469   -6.2391523    4173.0696            2 
   80300    1.0111278   -6.2802778    4154.5205            7 
   80400   0.99341853   -6.2677373    4154.4576            8 
   80500    1.0192926   -6.2699658    4156.3709            6 
   80600    1.0018849   -6.2709599    4152.4875            8 
   80700   0.99846175   -6.2767233    4141.2995           10 
   80800   0.98413831   -6.2668552    4144.5772            9 
   80900    1.0023301   -6.2380444    4147.5387            5 
   81000    1.0163882   -6.2711617    4147.8105            5 
   81100   0.97885883   -6.2482979    4144.5924            6 
   81200    1.0033268   -6.2933937    4153.0443            7 
   81300    1.0110055   -6.2755987    4142.5097           11 
   81400    1.0250755   -6.2402509    4151.6663            7 
   81500    1.0192719   -6.2317363    4135.0009            8 
   81600    0.9910954   -6.2496348     4139.261            6 
   81700     1.031367   -6.2673147    4143.3584            4 
   81800   0.99125731   -6.2695089    4142.6894            6 
   81900    1.0188179   -6.2932136    4154.0961            9 
   82000    1.0149429   -6.2478866    4165.2792            5 
   82100   0.99930026   -6.2504497    4163.3983            7 
   82200    1.0024341   -6.2617906    4146.9783            8 
   82300    1.0034383   -6.2777794    4142.9941            7 
   82400    1.0007921   -6.2742147    4150.1452            9 
   82500   0.97839002   -6.2769511    4145.3321            8 
   82600    1.0135124   -6.2782459    4155.0463            5 
   82700   0.99929581   -6.2592885    4158.4901            8 
   82800   0.99607674   -6.2542231    4154.2897            5 
   82900    1.0153913   -6.2752988    4140.5783            4 
   83000    1.0040949   -6.2941123    4143.1154            4 
   83100   0.98705211   -6.2773424    4147.5206            4 
   83200   0.99885566    -6.264272    4148.5505            7 
   83300    1.0217495   -6.2659448    4161.9902            7 
   83400   0.99005038    -6.265732    4142.8518            4 
   83500   0.99393838   -6.2616392    4150.5343            4 
   83600   0.99726175   -6.2442718    4156.9499            4 
   83700    0.9979436   -6.2767775    4153.9097            4 
   83800   0.96837702    -6.272394    4150.4474            4 
   83900   0.98216241   -6.2516469    4155.9525            4 
   84000    1.0056654   -6.2422242    4155.6294            8 
   84100   0.99751685   -6.2561665    4160.9634           11 
   84200    1.0061345   -6.2589002    4157.0275           12 
   84300   0.99210317   -6.2868526    4151.0724            9 
   84400   0.99340404   -6.2525771    4152.0496            7 
   84500   0.99878564   -6.2305067    4166.6762            3 
   84600   0.99372094   -6.2733855    4153.2402            7 
   84700    1.0153336    -6.314517    4147.5825           12 
   84800   0.97407844   -6.3062082    4152.0562           10 
   84900    0.9834012   -6.2764017    4164.9638            7 
   85000    1.0009128   -6.2827857    4161.6521            3 
   85100   0.99027865   -6.2810622    4161.9682            7 
   85200    1.0001679   -6.2573952     4158.618            6 
   85300   0.99955032   -6.2839159    4146.7094           14 
   85400   0.99173302   -6.2820821    4146.7517            5 
   85500   0.98426548   -6.2433053    4170.1691            3 
   85600   0.99113788   -6.2594695    4170.3719           10 
   85700   0.97953514   -6.2902313    4158.5304            5 
   85800    1.0033455   -6.2665662    4162.1592           13 
   85900    0.9944012   -6.2618101    4161.0705           14 
   86000   0.98495803   -6.2946798    4144.8293            6 
   86100   0.98647195   -6.3029746    4148.3085            5 
   86200   0.99917465   -6.2771168    4160.1607            4 
   86300    1.0058781   -6.2329651    4154.4672            4 
   86400    1.0087662   -6.2457861    4149.2545            6 
   86500     1.006396   -6.2829934    4154.6983            4 
   86600    1.0040091    -6.259336    4153.5968            5 
   86700    1.0028339   -6.2358367    4144.9324            5 
   86800    0.9971848   -6.2738588    4138.7995            5 
   86900   0.98936871   -6.2757721     4143.832            2 
   87000   0.99962053    -6.262602    4144.1778            6 
   87100    1.0123702   -6.2693883    4153.0487            6 
   87200   0.99426011   -6.2595558    4161.4828            5 
   87300   0.98153515   -6.2715336    4167.3395            4 
   87400    1.0186815   -6.2867692     4159.153            6 
   87500   0.97168608   -6.2591073    4153.0199            6 
   87600   0.99064482   -6.2413429    4160.2413            8 
   87700    0.9951091   -6.2339689    4156.0008            7 
   87800   0.97875687   -6.2628487    4156.9803            4 
   87900    1.0243502   -6.3162518    4157.9908            8 
   88000   0.99458774   -6.2850557    4149.5614            6 
   88100    1.0009774   -6.2778224    4149.8869           10 
   88200    1.0228065   -6.2654741    4159.3106            4 
   88300    1.0013202    -6.274509    4142.2521            7 
   88400   0.99739061   -6.2748338    4147.1123           13 
   88500   0.99435501   -6.2481092    4156.2106            8 
   88600    1.0305233   -6.2515996     4169.249            8 
   88700    1.0022958   -6.2602978    4160.2755            4 
   88800    1.0033341   -6.2982957    4161.1831            7 
   88900    0.9893598   -6.2936428    4160.5249            6 
   89000    1.0002752   -6.2791083    4167.2866            3 
   89100   0.99277415    -6.269125    4167.9052            7 
   89200   0.98766458   -6.2540697    4163.4401            5 
   89300   0.98875839   -6.2328058    4151.4129            2 
   89400    1.0087722   -6.2890874    4154.7222            4 
   89500   0.98251257   -6.2742917    4165.2554            9 
   89600   0.99498814   -6.2628189    4161.3764            8 
   89700   0.95943431    -6.272989    4151.6927           13 
   89800    1.0063187   -6.2828761    4151.5392            9 
   89900   0.99436475   -6.2847158    4151.1063            4 
   90000   0.97879572   -6.2750182    4142.7508           16 
   90100    1.0075009    -6.273279    4143.9776            5 
   90200    1.0403469   -6.2688099    4137.3312           10 
   90300    1.0131864   -6.2645386    4137.0787            5 
   90400   0.99152235   -6.2676154    4142.3573           10 
   90500   0.99257925   -6.2548034    4157.6449            4 
   90600    1.0031007   -6.2678905    4160.4886            7 
   90700   0.99090986   -6.2618707    4144.7844            7 
   90800    1.0069941   -6.2428628    4151.8875            6 
   90900    1.0066848   -6.2521728    4150.5702            5 
   91000    1.0159358   -6.2811252    4138.4707            9 
   91100    1.0001003   -6.2286231    4138.9476            4 
   91200    1.0065089   -6.1929449    4157.6278            4 
   91300    1.0000096   -6.2233608    4164.3425            8 
   91400   0.99969454   -6.2465986    4157.5107            9 
   91500   0.99118958    -6.282142    4149.6378            3 
   91600   0.98889531   -6.2431727    4158.1293            4 
   91700    1.0179728   -6.2630139    4155.6002            5 
   91800    1.0044051   -6.2915099    4148.2909           10 
   91900    1.0082464   -6.2811298    4145.2962            8 
   92000     1.023568   -6.2605586    4164.9088            4 
   92100   0.99874951   -6.2737999    4157.6898           11 
   92200   0.97676529    -6.262015     4162.301           12 
   92300   0.98360504   -6.2432581    4177.7093            3 
   92400    1.0206918   -6.2765141    4162.1644            5 
   92500   0.98727514    -6.272777    4162.9703            3 
   92600    1.0043485   -6.2606882    4162.1106            8 
   92700   0.98976088   -6.2915322    4160.5101            9 
   92800   0.98344768   -6.2641687    4160.0554            5 
   92900   0.98853393   -6.2841944    4154.9801            5 
   93000    1.0097462   -6.3017148    4151.1444           10 
   93100   0.99365794   -6.2460161    4161.8543            3 
   93200    1.0074067   -6.2691131    4169.0529            2 
   93300    1.0150607   -6.3064933    4153.7401            7 
   93400   0.99412751   -6.2769526    4152.1144            9 
   93500    1.0091945   -6.2571764    4153.1493            6 
   93600    1.0031124   -6.2989739    4144.4899            9 
   93700   0.98477863   -6.2625115     4144.744           10 
   93800    1.0176942    -6.282469    4161.0585            4 
   93900   0.97919145   -6.2785058    4151.8487            4 
   94000    1.0052418   -6.2742972    4159.9912            6 
   94100    0.9986038    -6.264277    4161.9103            8 
   94200   0.98795393   -6.2869952    4141.7539            6 
   94300   0.98909692   -6.2658662    4148.6305            8 
   94400    1.0045783    -6.255749    4162.9952           11 
   94500   0.99280085   -6.2676853    4164.9065            5 
   94600   0.99250101   -6.3061217    4155.5567            7 
   94700    1.0087025   -6.3096436    4154.7686            5 
   94800   0.99561675    -6.238231    4164.2304            4 
   94900    1.0002507   -6.2671776    4158.8444            5 
   95000   0.99287402   -6.2596473     4139.876            3 
   95100    1.0193333   -6.2691758    4135.5537            6 
   95200    1.0254757   -6.2878508    4139.8644            6 
   95300    1.0051987   -6.2875972    4135.3875            8 
   95400   0.99494291   -6.2550511    4147.3779            9 
   95500    1.0172602   -6.2532785    4154.2726            6 
   95600   0.98542165   -6.2570688    4147.1179            3 
   95700   0.99777365    -6.237563    4148.0174            4 
   95800    1.0158086   -6.2440581    4160.0164            4 
   95900   0.99644061   -6.2532962    4137.6096            7 
   96000    1.0124837   -6.2770832    4150.8571            5 
   96100    1.0003446   -6.2398495    4169.3356            3 
   96200    1.0119042   -6.2868084    4163.9366            6 
   96300   0.99332585   -6.2889212    4156.5159            6 
   96400   0.99265846   -6.2724339    4160.0545            3 
   96500    1.0039897   -6.2756864    4162.1896            4 
   96600   0.99339862   -6.2878895    4149.3471            3 
   96700   0.98867763   -6.2881407    4151.1339            8 
   96800    1.0086062   -6.2748567    4153.5388           11 
   96900    0.9847833   -6.3012292    4166.7698            5 
   97000   0.96640552   -6.2991572    4156.9027            5 
   97100    1.0100744   -6.3169072    4162.0552            5 
   97200    1.0075521   -6.3082686    4157.4593            4 
   97300   0.99208917   -6.2523635    4169.5664            6 
   97400    1.0075535    -6.271714     4159.376            9 
   97500    1.0001018   -6.2919983    4150.2746            4 
   97600   0.98468081   -6.2585762    4150.6398            5 
   97700    1.0075898   -6.2573652    4152.2245            2 
   97800   0.98847762   -6.2734818    4150.6685            8 
   97900      1.01014   -6.2775257    4144.1691            7 
   98000    1.0060235   -6.2768036    4142.2602            8 
   98100    1.0064749   -6.2497353    4150.8037           12 
   98200    1.0016653   -6.2647444    4161.0073            3 
   98300   0.99094695   -6.2961353    4159.8874            8 
   98400   0.99412703   -6.2596858    4172.4457            5 
   98500    1.0113383   -6.2714296    4167.9699            7 
   98600    1.0026068   -6.2801843    4153.0005            5 
   98700    1.0005014   -6.2555048    4157.4281            7 
   98800   0.99022475   -6.2727567    4162.9788            7 
   98900   0.97524469   -6.2921503    4155.7773            4 
   99000   0.99528249   -6.2872884    4153.6391            6 
   99100    1.0162216   -6.2633737    4165.0057            3 
   99200    0.9981329    -6.278702    4158.3118           12 
   99300    1.0041327   -6.3264484    4142.2702           12 
   99400   0.99386463   -6.2764469    4148.3151           13 
   99500    1.0056536   -6.2765768    4153.8738           13 
   99600      0.98503   -6.2576071    4150.9478            7 
   99700    1.0046218   -6.2827009    4150.5897            8 
   99800    1.0122152   -6.2702643    4158.8948           10 
   99900   0.98196744    -6.262003    4147.4244            6 
  100000    1.0105664   -6.2596555    4153.9108            5 
  100100   0.99134536    -6.270103    4148.2996            7 
  100200    1.0014875   -6.3027926    4148.6332            4 
  100300    1.0084195    -6.276133    4167.9594            5 
  100400   0.99524945   -6.2867967    4160.3548            4 
  100500   0.99583271   -6.2929081    4141.6438            6 
  100600   0.99982947   -6.2832361    4143.0022            9 
  100700   0.99126326   -6.2399083    4157.7925           10 
  100800    1.0046475   -6.2572215    4160.9977           10 
  100900   0.97942443   -6.2488262    4159.6693            5 
  101000   0.99623943   -6.2375451    4169.9856            6 
  101100    1.0096559   -6.2802384     4171.635            6 
  101200   0.98549946   -6.2846132    4154.9637            8 
  101300    1.0038662   -6.2716208    4167.0251           10 
  101400   0.98437055   -6.2545383    4161.6798           11 
  101500   0.95612959   -6.2699459    4152.9163            5 
  101600   0.99683186   -6.3043123     4158.311            8 
  101700   0.98332995   -6.2536832    4155.4294            6 
  101800   0.99772738   -6.2657627    4155.5816            3 
  101900   0.99073275   -6.2328438    4155.4181            7 
  102000     1.004614   -6.2493196    4163.0916            4 
  102100   0.98646418   -6.2713658     4162.289            8 
  102200    1.0139256   -6.2391541    4161.7001            6 
  102300    1.0105185   -6.2431007    4165.3845            5 
  102400   0.99769942   -6.2614123     4153.723            4 
  102500    1.0043827   -6.3095661    4141.6858            6 
  102600   0.97639244   -6.2870308    4155.6089            9 
  102700    1.0054475   -6.2906569    4155.3441            3 
  102800   0.99256424   -6.3017973    4157.7201            4 
  102900   0.98599498   -6.3125599    4152.2064            5 
  103000   0.99260308   -6.2844378    4162.2641            7 
  103100     1.007994   -6.3204394    4152.4242            6 
  103200   0.99082821   -6.3159801    4159.2584            4 
  103300    1.0009744   -6.3174939    4166.3511            5 
  103400    1.0000125   -6.2991174    4162.6479            6 
  103500    0.9765381   -6.2873555    4155.2498           13 
  103600    1.0049927   -6.2648106    4158.4304           14 
  103700   0.98622509   -6.2801317    4153.9207           17 
  103800   0.99525572   -6.2921545    4154.6369            8 
  103900   0.99190699   -6.2675642    4157.5969           10 
  104000   0.99019233   -6.2483928    4168.7945            6 
Loop time of 284.67 on 18 procs for 100000 steps with 4000 atoms

Performance: 60701.892 tau/day, 351.284 timesteps/s
99.6% CPU use with 18 MPI tasks x no OpenMP threads

MPI task timing breakdown:
Section |  min time  |  avg time  |  max time  |%varavg| %total
---------------------------------------------------------------
Pair    | 36.798     | 38.471     | 40.299     |  17.2 | 13.51
Neigh   | 4.6187     | 4.7308     | 4.9671     |   3.5 |  1.66
Comm    | 12.299     | 14.293     | 16.966     |  41.6 |  5.02
Output  | 5.851      | 5.8525     | 5.8677     |   0.2 |  2.06
Modify  | 215.92     | 218.35     | 221.57     |  11.8 | 76.70
Other   |            | 2.972      |            |       |  1.04

Nlocal:        222.222 ave         230 max         212 min
Histogram: 1 0 0 5 1 2 3 3 2 1
Nghost:        2306.61 ave        2317 max        2294 min
Histogram: 2 0 1 3 1 1 5 1 2 2
Neighs:        24388.8 ave       26029 max       22914 min
Histogram: 2 1 2 1 3 5 2 0 0 2
FullNghs:      48774.9 ave       50327 max       47033 min
Histogram: 1 0 4 4 1 1 1 2 0 4

Total # of neighbors = 877949
Ave neighs/atom = 219.48725
Neighbor list builds = 5969
Dangerous builds = 0

#clear
#
#next RN
#
#jump SELF
Total wall time: 0:04:46
