
units lj                  # Use reduced LJ style units
atom_style atomic         # Uncharged point particles
atom_modify map hash      # Needed for indexing of clusters etc
                          # Used to be able to find where atoms are in relation to each other.

# Define a lattice with which to populate the simulation cell. With units
# set to 'lj' the second argument to the lattice command is the reduced
# density rho* and the spacings are multiples of that required to acheive
# that density. Also define a simulation cell called 'box' in lattice units
# and fill it with atoms. Here we're creating a box which is ten lattice
# constants in each direction.
lattice fcc 1.0 spacing 1 1 1                 # All equal sizes - gives the right reduced density.
Lattice spacing in x,y,z = 1.5874011 1.5874011 1.5874011

region box block 0 10 0 10 0 10 units lattice # Defines a region, "box", in lattice units
create_box 1 box                              # Creates a simulation box as specified above,
Created orthogonal box = (0.0000000 0.0000000 0.0000000) to (15.874011 15.874011 15.874011)
  2 by 2 by 7 MPI processor grid
                                              # with one type of atom
create_atoms 1 box                            # Creates particles on lattice points
Created 4000 atoms
  using lattice units in orthogonal box = (0.0000000 0.0000000 0.0000000) to (15.874011 15.874011 15.874011)
  create_atoms CPU = 0.004 seconds


# Set the mass of the first (and only) atom type.
mass 1 1.0

# Lennard-Jones interactions between particles, 3.5 sigma cut-off. Apply
# long range tail corrections to energy and pressure and set all coefficients
# to unity since we work in reduced units here. Note that this doesn't shift
# the potential such that it goes to zero at the cutoff. That would require
# pair_modify('shift', 'yes').
pair_style lj/cut  3.5      # non-GPU version
pair_modify tail  yes
pair_coeff 1  1  1.0  1.0   # Intearaction between 1 and 1 set with epsilon = 1 and sigma = 1

write_data data.*
System init for write_data ...
Neighbor list info ...
  update every 1 steps, delay 10 steps, check yes
  max neighbors/atom: 2000, page size: 100000
  master list distance cutoff = 3.8
  ghost atom cutoff = 3.8
  binsize = 1.9, bins = 9 9 9
  1 neighbor lists, perpetual/occasional/extra = 1 0 0
  (1) pair lj/cut, perpetual
      attributes: half, newton on
      pair build: half/bin/atomonly/newton
      stencil: half/bin/3d
      bin: standard

#############################
#   M E L T   S Y S T E M   #
#############################

velocity all create 2.4 9622624 mom yes dist gaussian # Assign velocities
                                                    # Temperature 2.4, random number seed, zero linear momentum
						                                                        # Gaussian distribution

timestep 0.002   # simulation timestep
thermo 100       # output thermodynamic data every 100 steps

# Define a fix  in this case with index 1 applied to all
# particles in the simulation. This fix is for simulations
# in the anisotropic NPT ensemble. Note that we use the MTK
# correction.
fix 1 all npt temp 2.4 2.4 0.1 iso 5.68 5.68 0.5 mtk yes tchain 5 pchain 5 # Use NPT ensemble
                                                                         # Set temperature and pressure and damping
                                                                         # Numbers of thermostats in chain and in barostat
run 1000         # run for 10000 steps
Per MPI rank memory allocation (min/avg/max) = 3.642 | 3.654 | 3.657 Mbytes
Step Temp E_pair E_mol TotEng Press Volume 
       0          2.4   -8.3859253            0   -4.7868253   -2.2405722         4000 
     100     1.256502   -6.5137603            0   -4.6294785    5.5061441    4089.3939 
     200    1.4710413   -6.2962202            0   -4.0902099    6.1259073    4136.4974 
     300    1.5753793   -6.0048156            0   -3.6423375    5.8881655    4269.3275 
     400     1.695533   -5.7167441            0   -3.1740804    5.9576171    4396.1624 
     500    1.7977703    -5.422775            0   -2.7267936    5.9233545    4540.2438 
     600    1.8751095    -5.133639            0   -2.3216778    5.8305819    4705.3349 
     700    2.0067687   -4.9044304            0   -1.8950299    5.8181833    4845.3775 
     800    2.1683387   -4.7479596            0   -1.4962646    5.6703181    4968.6147 
     900    2.2591539   -4.5766532            0   -1.1887696    5.5447205    5099.1514 
    1000    2.3772702    -4.449968            0  -0.88495416    5.8567059    5140.3387 
Loop time of 0.324827 on 28 procs for 1000 steps with 4000 atoms

Performance: 531975.598 tau/day, 3078.562 timesteps/s
99.5% CPU use with 28 MPI tasks x no OpenMP threads

MPI task timing breakdown:
Section |  min time  |  avg time  |  max time  |%varavg| %total
---------------------------------------------------------------
Pair    | 0.14709    | 0.16162    | 0.17811    |   2.0 | 49.76
Neigh   | 0.028946   | 0.030214   | 0.032234   |   0.5 |  9.30
Comm    | 0.088765   | 0.10584    | 0.122      |   2.5 | 32.58
Output  | 0.00021181 | 0.00021855 | 0.00027647 |   0.0 |  0.07
Modify  | 0.020684   | 0.024721   | 0.032929   |   2.3 |  7.61
Other   |            | 0.002209   |            |       |  0.68

Nlocal:        142.857 ave         155 max         133 min
Histogram: 2 2 0 6 5 9 1 1 1 1
Nghost:        1918.21 ave        1934 max        1902 min
Histogram: 1 1 4 4 5 4 1 4 1 3
Neighs:        12690.1 ave       13892 max       11313 min
Histogram: 1 1 2 4 5 5 3 3 2 2

Total # of neighbors = 355324
Ave neighs/atom = 88.831000
Neighbor list builds = 87
Dangerous builds = 18

# Equilibrate just above the melting temperature to avoid step fn in T

fix 1 all npt temp 1.25 1.25 0.1 iso 5.68 5.68 0.5 mtk yes tchain 5 pchain 5
run 1000
Per MPI rank memory allocation (min/avg/max) = 3.643 | 3.655 | 3.658 Mbytes
Step Temp E_pair E_mol TotEng Press Volume 
    1000    2.3772702    -4.449968            0  -0.88495416    5.8567059    5140.3387 
    1100    1.9123587   -4.6299409            0     -1.76212    5.7356352    5010.0317 
    1200     1.748463   -4.9742749            0   -2.3522361    5.6314428    4809.1156 
    1300    1.5839166   -5.2240149            0    -2.848734     5.537847    4676.3458 
    1400    1.4493602   -5.3637066            0   -3.1902097    5.9258711    4553.5937 
    1500    1.3475159   -5.4905275            0   -3.4697589    5.8595912    4492.3019 
    1600    1.3105851   -5.6398502            0   -3.6744639     5.695843    4436.2068 
    1700    1.2621862   -5.7135111            0   -3.8207051    5.6775847    4398.9832 
    1800    1.2554554   -5.7810045            0   -3.8982922     5.797944     4358.617 
    1900    1.2634776   -5.8544833            0   -3.9597407    5.6933777     4339.129 
    2000    1.2398732   -5.8281233            0   -3.9687785    5.8601907    4332.3676 
Loop time of 0.311821 on 28 procs for 1000 steps with 4000 atoms

Performance: 554164.452 tau/day, 3206.970 timesteps/s
99.8% CPU use with 28 MPI tasks x no OpenMP threads

MPI task timing breakdown:
Section |  min time  |  avg time  |  max time  |%varavg| %total
---------------------------------------------------------------
Pair    | 0.15165    | 0.16105    | 0.1696     |   1.1 | 51.65
Neigh   | 0.025616   | 0.026419   | 0.027153   |   0.2 |  8.47
Comm    | 0.089832   | 0.099007   | 0.11106    |   1.5 | 31.75
Output  | 0.00020645 | 0.00021134 | 0.00026279 |   0.0 |  0.07
Modify  | 0.020005   | 0.022591   | 0.025413   |   1.4 |  7.24
Other   |            | 0.002544   |            |       |  0.82

Nlocal:        142.857 ave         151 max         135 min
Histogram: 2 2 0 6 4 4 5 3 1 1
Nghost:        2132.14 ave        2154 max        2113 min
Histogram: 3 1 3 2 7 5 3 1 2 1
Neighs:        15062.4 ave       16238 max       13803 min
Histogram: 1 1 3 3 6 5 3 3 1 2

Total # of neighbors = 421746
Ave neighs/atom = 105.43650
Neighbor list builds = 76
Dangerous builds = 11


# Small amount of linear quench

fix 1 all npt temp 1.25 ${temp} 0.1 iso 5.68 5.68 0.5 mtk yes tchain 5 pchain 5
fix 1 all npt temp 1.25 2.04 0.1 iso 5.68 5.68 0.5 mtk yes tchain 5 pchain 5
run 2000
Per MPI rank memory allocation (min/avg/max) = 3.644 | 3.655 | 3.658 Mbytes
Step Temp E_pair E_mol TotEng Press Volume 
    2000    1.2398732   -5.8281233            0   -3.9687785    5.8601907    4332.3676 
    2100    1.2985143   -5.8544966            0   -3.9072121    5.6490615     4346.826 
    2200    1.3227538   -5.8354497            0    -3.851815    5.7649025    4343.2682 
    2300    1.3349315   -5.7816351            0   -3.7797385    5.6565784    4379.7356 
    2400    1.3540433   -5.7137492            0   -3.6831919     5.558778    4415.4646 
    2500    1.4020981   -5.6642039            0   -3.5615825    5.5501174    4443.6663 
    2600    1.4317153   -5.5765769            0   -3.4295409    5.7848669    4463.5282 
    2700    1.4795616   -5.5232042            0   -3.3044167    5.7237252    4495.8658 
    2800    1.4810901   -5.4260251            0   -3.2049453    5.6739175    4545.9971 
    2900    1.5874165   -5.4356208            0   -3.0550912    5.6259569    4556.1944 
    3000     1.621934   -5.3568433            0   -2.9245505    5.7258849    4586.4696 
    3100    1.6389456   -5.2971356            0   -2.8393317    5.6731374    4625.7179 
    3200    1.6804412    -5.234413            0   -2.7143813    5.6453272    4660.6317 
    3300    1.7163241    -5.155381            0   -2.5815384     5.903601    4683.3854 
    3400    1.7434344   -5.0906935            0   -2.4761957    5.7147089    4735.7927 
    3500    1.8195217   -5.0567506            0   -2.3281504    5.7593224    4752.0743 
    3600    1.8230891   -4.9807189            0   -2.2467689    5.6926064    4799.6152 
    3700    1.8634583   -4.9470593            0   -2.1525706      5.61355    4836.3603 
    3800    1.9374268   -4.8900523            0   -1.9846386    5.7734814    4851.1736 
    3900    1.9589164   -4.8488356            0   -1.9111957    5.6855545    4890.3623 
    4000    2.0348266   -4.7975504            0   -1.7460736    5.9057343    4898.2272 
Loop time of 0.626239 on 28 procs for 2000 steps with 4000 atoms

Performance: 551865.664 tau/day, 3193.667 timesteps/s
99.7% CPU use with 28 MPI tasks x no OpenMP threads

MPI task timing breakdown:
Section |  min time  |  avg time  |  max time  |%varavg| %total
---------------------------------------------------------------
Pair    | 0.2974     | 0.32043    | 0.33519    |   1.6 | 51.17
Neigh   | 0.051366   | 0.052788   | 0.054609   |   0.4 |  8.43
Comm    | 0.18208    | 0.2014     | 0.23381    |   2.6 | 32.16
Output  | 0.00041067 | 0.00042097 | 0.00052032 |   0.0 |  0.07
Modify  | 0.037498   | 0.046073   | 0.053492   |   2.4 |  7.36
Other   |            | 0.005127   |            |       |  0.82

Nlocal:        142.857 ave         154 max         135 min
Histogram: 3 3 5 2 4 5 2 2 1 1
Nghost:        1982.82 ave        2002 max        1962 min
Histogram: 1 4 1 2 4 3 5 4 2 2
Neighs:        13333.5 ave       15076 max       11938 min
Histogram: 1 2 3 6 7 5 1 0 1 2

Total # of neighbors = 373337
Ave neighs/atom = 93.334250
Neighbor list builds = 150
Dangerous builds = 1

#############################
# F R E E Z E  S Y S T E M  #
#############################

# Define solid atoms. This closely follows ten Wolde  Ruiz-Montero and Frenkel  Faraday Discuss  1996  104  93-110
# Compute components of the per-atom q6 vector
compute q6 all orientorder/atom degrees 1 6 components 6 nnn NULL cutoff 1.3 # compute the Q6 parameter.
                                                                             # Use all neighbours within 1.3 unit cell.

# get number of connections
compute coord_number all coord/atom orientorder q6 0.5

# An atom is solid if it has 8 or more connections (of a possible 14)
variable is_solid atom c_coord_number>=8
group solid dynamic all var is_solid    # Must be dynamic to update
dynamic group solid defined

# do clustering
compute cluster solid cluster/atom 1.3 # Create a cluster where all atoms within are solid and max 1.3 units from another member

# define chunks one chunk per cluster
compute clus_chunks solid chunk/atom c_cluster nchunk every compress yes  # Says which atoms are in which chunk

# count the size of each chunk
compute size_chunks solid property/chunk clus_chunks count


# Find the maximum entry in the vector of chunk sizes
variable max_n equal max(c_size_chunks)


# Thermo style which includes this variable
thermo_style custom step temp pe vol v_max_n

thermo ${N}  # Print the thermo information every 100 steps
thermo 100  

# Reset the npt fix at a lower temperature (below freezing)
fix 1  all npt temp  ${temp} ${temp}  0.1  iso  5.68  5.68  0.5  mtk yes tchain  5  pchain  5
fix 1  all npt temp  2.04 ${temp}  0.1  iso  5.68  5.68  0.5  mtk yes tchain  5  pchain  5
fix 1  all npt temp  2.04 2.04  0.1  iso  5.68  5.68  0.5  mtk yes tchain  5  pchain  5

dump dmp2 all dcd ${N} traj_${rand}.dcd
dump dmp2 all dcd 100 traj_${rand}.dcd
dump dmp2 all dcd 100 traj_462431.dcd


# fix rnuntil all halt ${N} v_max_n >= 3980 error soft message no   # Stop when solidified


run 100000 # 5000000  # Run for this many steps
Neighbor list info ...
  update every 1 steps, delay 10 steps, check yes
  max neighbors/atom: 2000, page size: 100000
  master list distance cutoff = 3.8
  ghost atom cutoff = 3.8
  binsize = 1.9, bins = 9 9 9
  4 neighbor lists, perpetual/occasional/extra = 1 3 0
  (1) pair lj/cut, perpetual
      attributes: half, newton on
      pair build: half/bin/atomonly/newton
      stencil: half/bin/3d
      bin: standard
  (2) compute orientorder/atom, occasional
      attributes: full, newton on
      pair build: full/bin/atomonly
      stencil: full/bin/3d
      bin: standard
  (3) compute coord/atom, occasional
      attributes: full, newton on
      pair build: full/bin/atomonly
      stencil: full/bin/3d
      bin: standard
  (4) compute cluster/atom, occasional
      attributes: full, newton on
      pair build: full/bin/atomonly
      stencil: full/bin/3d
      bin: standard
Per MPI rank memory allocation (min/avg/max) = 9.358 | 9.364 | 9.367 Mbytes
Step Temp PotEng Volume v_max_n 
    4000    2.0348266   -4.7975504    4898.2272            1 
    4100    2.0398291   -4.7726161    4970.3027            1 
    4200     2.052179   -4.7451607    4954.2838            1 
    4300    2.0290316   -4.7803993    4941.0189       -1e+20 
    4400    2.0095136   -4.8105379    4913.3053            1 
    4500    2.0690852   -4.7905814    4936.1607            1 
    4600    2.0559416   -4.7392229    4969.0087            1 
    4700    2.0390942   -4.7926771     4956.311            3 
    4800    2.0265614   -4.7300262     4922.438       -1e+20 
    4900      2.08617   -4.7544134    4963.5659            1 
    5000    2.0098443   -4.7067018    4977.2924            1 
    5100    2.0685269   -4.7434254    4956.2912            1 
    5200    1.9958814   -4.7644328    4963.0686            2 
    5300    2.0818941    -4.772693    4957.6546            1 
    5400    2.0766921   -4.7669653    4961.6626            1 
    5500    1.9885861   -4.7683854    4955.4254            1 
    5600     2.080223   -4.8391788    4898.5974            1 
    5700    2.0006687   -4.7551677    4923.3904            2 
    5800     2.020468   -4.7784746    4942.1679       -1e+20 
    5900    2.0840063   -4.7473668    4934.5285            1 
    6000    2.0093216   -4.7578368    4985.4706            2 
    6100    2.0463088   -4.7980426    4931.2499            1 
    6200    2.0511108   -4.7601433    4940.3553            1 
    6300    2.0556286   -4.8179131    4956.4628       -1e+20 
    6400    2.0506312   -4.7928281    4916.8319            3 
    6500    2.0215351   -4.8089251    4946.7556            1 
    6600    2.0230648   -4.7265396    4951.9931       -1e+20 
    6700    2.0613429   -4.7028946    4943.1615            1 
    6800    1.9824796   -4.7281795    4988.1411            1 
    6900    2.0793533   -4.7591475    4943.8915            1 
    7000    1.9916158   -4.7085088    4933.9264            1 
    7100    2.0178435   -4.7261924    4961.8057       -1e+20 
    7200    2.0321106   -4.7595519    4941.3554       -1e+20 
    7300    2.0430911   -4.7796518      4915.35            1 
    7400    2.0068228    -4.734734     4980.232            1 
    7500    2.0633272   -4.7213149    4946.6958            1 
    7600    2.0352673   -4.7548283    4959.0339            1 
    7700    2.0015604   -4.7723213    4953.2205            2 
    7800     2.058267   -4.7416822    4955.4251            1 
    7900    2.0587961   -4.7564653    4972.5059            1 
    8000    2.0747733   -4.8072445    4931.1807       -1e+20 
    8100    2.0246193   -4.7865266    4966.9486       -1e+20 
    8200    2.0744667   -4.7665536    4926.5498            1 
    8300    2.0332587   -4.7941534     4938.342            2 
    8400    2.0410135     -4.74433    4948.5741            1 
    8500     2.061731   -4.6944948    4975.6837       -1e+20 
    8600    2.0282428   -4.7257994     4960.708       -1e+20 
    8700    2.0132693   -4.7114719    4953.6602            2 
    8800     2.045596   -4.7467893    4960.2736            1 
    8900    2.0707521   -4.7397337    4961.8373            1 
    9000     2.023351   -4.7689043    4969.3794            1 
    9100    2.0516485   -4.7566685    4932.9186            2 
    9200     2.031177   -4.7980366    4949.6901            1 
    9300    2.0683665   -4.7832492    4949.0745            1 
    9400    2.0371927   -4.8032957    4922.9568            1 
    9500    2.0368559   -4.7725366    4949.6096            1 
    9600    2.0581422   -4.7353233    4973.4156            1 
    9700    2.0175003   -4.7054743    4984.6782            1 
    9800    2.0978968   -4.7235293    4974.7825            1 
    9900     2.014314   -4.7084287    4961.3753            1 
   10000    2.0158266   -4.7222519    4961.5932            1 
   10100    2.0604886    -4.736703    4942.8183            1 
   10200     2.034512   -4.7871992    4955.5276            1 
   10300    1.9891628   -4.7663509    4948.0726            1 
   10400    2.0630628   -4.7331664    4949.3548            1 
   10500    2.0348517   -4.7366736    4959.7692            1 
   10600    2.0378328   -4.7514525    4994.7917            1 
   10700      2.09733   -4.7695367    4920.6768            1 
   10800     2.015658   -4.7549628    4976.6585       -1e+20 
   10900    2.0584111   -4.7476327    4966.0091            1 
   11000    2.0445255   -4.7454128    4935.4914            1 
   11100    2.0163935    -4.758135    4942.9343            1 
   11200    2.0415855   -4.7033971    4957.3473       -1e+20 
   11300      2.02369   -4.7739634    4931.9557            1 
   11400    1.9945731   -4.7402477    4949.2753            2 
   11500    2.0530037   -4.7559261    4943.0303            1 
   11600    2.0465316   -4.7452295    4968.6761            2 
   11700    2.0651802   -4.7548353    4996.1001            1 
   11800    2.0459939   -4.7542515    4925.9428       -1e+20 
   11900    2.0115399   -4.7632092    4947.8898            2 
   12000    2.0342775   -4.7260465    4955.9691            2 
   12100    2.0645752   -4.7290373    4985.1039       -1e+20 
   12200    2.0158151    -4.742457    4980.5827            1 
   12300    2.0692959   -4.7537019    4940.7325            1 
   12400    2.0148142   -4.7505225     4954.573       -1e+20 
   12500    2.0465402   -4.7353569    4946.8368            2 
   12600    2.0712965   -4.7551403    4967.2641            1 
   12700    2.0399042   -4.7855419    4944.1439            3 
   12800    2.0606825   -4.7500701    4939.3879            1 
   12900    2.0645468   -4.7358745    4982.2373            1 
   13000    2.0512055    -4.769473    4953.3186            1 
   13100    2.0474662   -4.7586474    4954.5849       -1e+20 
   13200    2.0344828   -4.7676452    4941.9341            1 
   13300    2.0952565   -4.7926257    4943.2458            1 
   13400    1.9980493   -4.7180043     4997.849            1 
   13500    2.0842541   -4.6865905    4946.0579            1 
   13600    2.0507725   -4.7588856    4967.8229            1 
   13700    2.0236319   -4.7798267    4930.7935            1 
   13800    2.0325422   -4.7571281    4949.2638            1 
   13900    2.0532876   -4.7571636    4961.6011            1 
   14000    2.0425532   -4.7633576    4952.2524            1 
   14100     2.021696   -4.7598396    4952.1692            2 
   14200    2.0682037   -4.7569214    4924.2276            2 
   14300    1.9777851   -4.7343309    4969.5206            1 
   14400    2.0479485   -4.7161328     4978.281            1 
   14500    2.0549936   -4.7143404    4959.0609            1 
   14600    2.0309726   -4.7780923      4940.39            3 
   14700     2.005642   -4.8113309    4948.2814       -1e+20 
   14800    2.0415717    -4.719742    4947.7674            1 
   14900    2.0555085   -4.7101409     4964.502            1 
   15000    2.0139963   -4.7711316     4966.709            1 
   15100    2.0438471   -4.7363415    4924.3568            1 
   15200    1.9975419   -4.7748411    4932.5902            1 
   15300    2.0206238   -4.7550095    4932.4437            1 
   15400      2.06022    -4.726627    4971.8599            1 
   15500    2.0198665   -4.6846474    4971.0619            1 
   15600    2.0126803   -4.7190892    4960.7451            1 
   15700    2.0082868   -4.7684078    4919.4198       -1e+20 
   15800    2.0780046   -4.7848451    4946.0028            2 
   15900    2.0021601   -4.7003152    4973.5116            1 
   16000    2.0555097   -4.6754826    5000.9559            1 
   16100    2.0828989   -4.7320072     4958.219       -1e+20 
   16200    2.0052754   -4.7394667     4977.509            1 
   16300    2.0530346   -4.7108605    4944.5599            1 
   16400    1.9998965   -4.6945881    4960.9678            1 
   16500    2.0453789   -4.6973055    4965.1898            1 
   16600    2.0053535   -4.7116415    4953.2108            1 
   16700    2.0436669   -4.8073026    4930.9412            2 
   16800    2.0075888   -4.8011877    4909.5267            1 
   16900    2.0563471   -4.7819873    4949.6319            1 
   17000    2.0375028    -4.748663    4961.4166            2 
   17100    2.0814933   -4.7276579    4967.8615            1 
   17200    2.0343266   -4.7589304     4942.969            1 
   17300    2.0325102   -4.7711185    4943.3474            1 
   17400    2.0078732    -4.756353    4935.2096       -1e+20 
   17500    2.0326045     -4.72571    4960.8914            1 
   17600    1.9928243   -4.7393649    4925.6731            3 
   17700     2.041518    -4.808074    4970.4267            2 
   17800    2.0479294   -4.7477157    4943.4316            1 
   17900    2.0168711   -4.7296636    4932.8942            1 
   18000    2.0395636   -4.7644654    5005.8037            1 
   18100    2.0599606   -4.7740692     4924.444            1 
   18200     2.046429   -4.7645731    4938.7569            1 
   18300    2.0275726    -4.789478    4979.7596            1 
   18400    2.0708186   -4.7361931    4931.5473            1 
   18500    1.9990716   -4.7393882    4931.1851       -1e+20 
   18600    2.0445251   -4.7828516    4961.7561            1 
   18700    2.0591703   -4.7285002    4966.2701            2 
   18800    2.0246124   -4.7605981    4947.0011       -1e+20 
   18900     2.026251   -4.7622623    4930.7089            1 
   19000    2.0459106   -4.7042086    4975.3989            1 
   19100    2.0652858   -4.7359501    4954.2363            1 
   19200    2.0130174    -4.718585     4932.172            3 
   19300    2.0196341   -4.7619154    4931.6129            1 
   19400    2.0375642   -4.7245311    4968.0987            1 
   19500    2.0385668   -4.7190607    4955.4326            1 
   19600    1.9841023   -4.7385306    4937.1207            1 
   19700    2.0374915   -4.7450829    4954.1112            1 
   19800    2.0022258    -4.708256    4944.8914            1 
   19900    2.0767799   -4.7325023      4957.98            1 
   20000     2.014486   -4.7215473    4983.6786            1 
   20100    2.0647227   -4.7052743    4956.8284            1 
   20200    2.0288081   -4.7454178    4940.9673            1 
   20300    2.0272744   -4.7952016    4942.6244            1 
   20400    1.9880357   -4.8080261    4897.2072            1 
   20500    2.0123902   -4.7620362    4948.7528            1 
   20600    2.0451713   -4.7168781    4953.2448            1 
   20700    2.0128245   -4.7635139    4979.1044            2 
   20800    2.0519026   -4.7372579     4922.707            1 
   20900    1.9935105    -4.720802    4961.8004            1 
   21000    2.0682729    -4.749797     4967.239            2 
   21100    2.0350889   -4.7510483    4961.8545       -1e+20 
   21200     2.073082   -4.7385306     4976.118            1 
   21300    2.0310007   -4.7448631    4921.0884       -1e+20 
   21400    2.0102668   -4.7895084    4928.6965            1 
   21500    2.0503304   -4.7478501    4930.3347            1 
   21600    2.0427121   -4.7139632    4965.1564            1 
   21700    2.0185719   -4.7129389    4951.1239       -1e+20 
   21800    2.0437469   -4.7699231    4946.6133            3 
   21900    2.0411098   -4.6908285    4969.4246            2 
   22000    2.1086383   -4.7287402    4986.1721            1 
   22100    2.0610703   -4.7498647     4954.975            1 
   22200    1.9838931   -4.7429901    4949.1042            1 
   22300    2.0339727   -4.7091419    4954.5662            1 
   22400    2.0349129   -4.7392989    4953.8107            1 
   22500    2.0127456   -4.7420165    4961.5342            2 
   22600    2.0495238   -4.7197485    4960.2414       -1e+20 
   22700    2.0524117    -4.750238    4962.7256       -1e+20 
   22800    2.0543935   -4.7184487    4991.7537            1 
   22900    2.0448652   -4.7593886    4933.6779            1 
   23000    2.0277183   -4.7827948    4939.9961            1 
   23100    2.0215305   -4.7815742    4946.0053            4 
   23200    2.0905868   -4.7569551    4923.7021            1 
   23300    1.9820414   -4.7393071    4972.4949            1 
   23400    2.0352335   -4.7039233     4936.805            1 
   23500    2.0143492   -4.7402809    4962.1054            1 
   23600    2.0630289    -4.730081    4968.0532            1 
   23700    2.0485828   -4.6975858    4972.9919            1 
   23800    2.0537476    -4.753202    4996.6381       -1e+20 
   23900    2.0187297   -4.6811467    4964.6719            1 
   24000     2.061306     -4.76416    4941.3815            1 
   24100    2.0818515   -4.7398977    4971.7809       -1e+20 
   24200    2.0144213   -4.7589103    4965.3225            1 
   24300    2.0451044   -4.7140759    4952.4794            2 
   24400    2.0400271   -4.7291284    4968.7403            1 
   24500    2.0101313   -4.7520486    4914.2461            1 
   24600    2.0386481   -4.7436946    4952.1461            1 
   24700    2.0265784   -4.7337925    4988.2908            1 
   24800    2.0835284   -4.7040288    4984.0608            1 
   24900    2.0543846   -4.7358766    4957.7013            1 
   25000    2.0322566   -4.7731857    4942.3534       -1e+20 
   25100     2.011558   -4.7880781    4925.2248            1 
   25200    2.0500977   -4.7941656     4926.074            1 
   25300    1.9926692   -4.7040765    4987.5863            2 
   25400    2.0849268    -4.756095    4940.0434            2 
   25500    2.0289533   -4.7614696    4953.9368            1 
   25600     2.037817    -4.782234    4951.3145            1 
   25700    2.0297548   -4.7536419    4909.4781            1 
   25800    2.0023701   -4.7347646    4951.0563            1 
   25900    2.0591518   -4.7506175    4973.9414            1 
   26000    2.0036323   -4.7332342    4953.0673            1 
   26100    2.0810585    -4.748883    4933.7065       -1e+20 
   26200    2.0212616   -4.7771435    4966.4322            1 
   26300    1.9787209    -4.741146    4928.7671            1 
   26400    2.0428339   -4.7430393    4908.0921            1 
   26500    1.9973559   -4.7210227    4963.7268            1 
   26600     2.061612   -4.7536998      4951.77            1 
   26700    2.0441305   -4.7524421    4948.4748            2 
   26800    2.0759344   -4.7544757    4971.2082            1 
   26900    2.0640771   -4.7623656    4963.9504            1 
   27000    2.0359846    -4.801121    4953.8922            1 
   27100    2.0681641   -4.7152388    4952.1548       -1e+20 
   27200    2.0455175    -4.726951    4989.7119            1 
   27300    2.0486719   -4.7526895    4950.9683            2 
   27400    2.0393462   -4.7594513    4954.4778            1 
   27500    2.0889138   -4.7944485    4971.2701            1 
   27600    2.0018154   -4.7521761    4946.5307            1 
   27700    2.0659733    -4.756744    4942.6538            1 
   27800    2.0211791   -4.7797177    4923.6269            1 
   27900    2.0126955   -4.7967154    4942.3899       -1e+20 
   28000     2.071821   -4.7584642    4931.2596            1 
   28100    1.9841099   -4.7213059    4961.7666            1 
   28200     2.057587    -4.754315    4958.6228            1 
   28300    2.0635885   -4.7732815    4928.1263            2 
   28400    1.9519464   -4.7604811    4953.3799            1 
   28500    2.0193288   -4.7352847    4941.5493       -1e+20 
   28600    2.0728533   -4.7060002    4935.6932            1 
   28700    1.9921658   -4.7587228    4981.5224            1 
   28800    2.0356947   -4.7569646    4950.4405            1 
   28900    2.0379477   -4.7238732    4930.8761            1 
   29000    2.0260443   -4.7431472    4987.0535            1 
   29100     2.016802   -4.7726217    4921.3571            1 
   29200    2.0417065   -4.7672498    4940.1647            1 
   29300    2.0419798   -4.7479937    4981.3071            1 
   29400    2.0732838     -4.68598    4950.2791            1 
   29500    2.0061841   -4.7376785    4976.5537            2 
   29600    2.0378599   -4.7045437    4972.8433            1 
   29700    2.0419495   -4.7433805    4932.1266            1 
   29800      2.02019   -4.7822779    4958.9699            2 
   29900    2.0529913   -4.7500588    4945.8402            1 
   30000    2.0488996   -4.7513926    4959.4998            1 
   30100    2.0409825   -4.7002664    5005.6238            1 
   30200    2.0865654   -4.7069707    4953.5999            1 
   30300    2.0369737   -4.7627461    4934.1409            1 
   30400    2.0297594   -4.7980429     4971.687            1 
   30500    2.0493534   -4.7354168    4953.7137            1 
   30600    2.0745633    -4.735701    4953.0497       -1e+20 
   30700    2.0031439    -4.724531     4963.532            1 
   30800    2.0841632   -4.7289088    4938.1382            1 
   30900    2.0106291    -4.765428    4965.0255            3 
   31000    2.0533818   -4.7631672     4939.129            1 
   31100    2.0290874   -4.7558588    4944.7551            1 
   31200    2.0558432    -4.741139    4960.7629            1 
   31300    2.0473807   -4.7877167    4934.5871       -1e+20 
   31400    2.0159435   -4.7866328    4929.4429            2 
   31500    2.0484758   -4.7488049    4963.5088            1 
   31600    2.0651909   -4.8078868    4932.7132            1 
   31700    2.0235402   -4.7698128    4958.2492            2 
   31800    2.0640246   -4.7594402    4956.7939       -1e+20 
   31900    2.0072649   -4.7624392    4960.1747            1 
   32000    2.0499606   -4.7338258    4919.8092            1 
   32100     2.021488   -4.7906539    4938.3522            2 
   32200    2.0591114   -4.7647214    4942.9997       -1e+20 
   32300    2.0147672   -4.7730813    4935.3826            1 
   32400    2.0213877   -4.7260676    4950.1159            1 
   32500    2.0571437   -4.7522793    4981.0162       -1e+20 
   32600    2.0425117   -4.7320055    4959.4259            1 
   32700    2.0431703   -4.7727952    4921.2193            1 
   32800    2.0306924   -4.7075552    4942.3548            1 
   32900    2.0285228   -4.7149821    4992.2135            1 
   33000    2.0432676   -4.7573356    4929.1573            1 
   33100    2.0324541   -4.7757102    4926.5039            1 
   33200     2.035222   -4.7697907    4944.2102            1 
   33300    2.0040194   -4.7999479    4927.4031            1 
   33400    2.0735798   -4.8115528    4938.6226            1 
   33500    2.0643225   -4.7475084    4968.6206            1 
   33600    2.0300041   -4.7728887    4959.9392            1 
   33700    2.0377812   -4.7367734    4948.2794            1 
   33800    2.0408032   -4.6765365    4952.5319            2 
   33900    2.0116686   -4.7334537    4993.5339            1 
   34000    2.0814324   -4.7309322    4936.4609            1 
   34100    2.0644255   -4.7959983    4954.9511            2 
   34200    1.9967831   -4.7719003    4944.1902            1 
   34300    2.0495591    -4.752929    4916.4892            1 
   34400    2.0188771   -4.7630467    4961.2194            1 
   34500    2.0219748   -4.6883144    4971.3559            1 
   34600    2.0856888   -4.7326545    4978.4238       -1e+20 
   34700    2.0383269   -4.7741074    4972.4349            1 
   34800    2.0404677   -4.7660829    4931.2899            1 
   34900     2.084579   -4.7803415    4930.7006            1 
   35000    2.0180425   -4.7409386    4994.6545            1 
   35100    2.0575125   -4.7761934    4939.4929            1 
   35200    2.0499773   -4.7779924    4940.3362            1 
   35300    2.0036646   -4.7467466    4971.3579            1 
   35400    2.0818845   -4.7322856    4975.8441            1 
   35500    2.0547702   -4.7673848    4950.8107            1 
   35600    2.0179851   -4.7952461    4948.5783            1 
   35700    2.1072691   -4.8017092    4939.0585            1 
   35800    1.9904438   -4.7515566    4941.1682            1 
   35900    2.0545804   -4.7300909    4943.7883            1 
   36000    2.0420197   -4.7504835    4966.1582            1 
   36100    1.9832141   -4.7444594    4948.0257            2 
   36200    2.0482469   -4.7229964    4946.8545            1 
   36300    2.0359012   -4.7595175    4952.9557            1 
   36400    1.9726334   -4.7480171    4913.7764       -1e+20 
   36500    2.0141867   -4.7200278    4949.0961            1 
   36600     2.050845   -4.7100407    4953.7523            1 
   36700     2.029251   -4.7915699      4941.01            1 
   36800    2.0256672   -4.7706315    4950.4346            1 
   36900    2.0802877   -4.7830759    4943.6869            1 
   37000    2.0658934   -4.7267603    4974.1756            1 
   37100    2.0055149   -4.7138807    4968.6279            2 
   37200    2.0459801   -4.7352254    4958.5385       -1e+20 
   37300    2.0298171   -4.7727866    4951.8441            1 
   37400    2.0256204    -4.755389    4940.6181            1 
   37500     2.039781   -4.7597619    4960.1952            1 
   37600    2.0822029   -4.7702263    4959.3175       -1e+20 
   37700     2.011255   -4.7410248    4910.4426            2 
   37800    2.0385844   -4.8209514     4925.998            2 
   37900    2.0466308   -4.7692048    4942.4834            1 
   38000     2.030137   -4.7582259    4926.5335            2 
   38100    2.0265507   -4.7412191    4946.8205            1 
   38200    2.0376442   -4.7586779    4972.6535       -1e+20 
   38300    2.0391655   -4.7884737    4934.6871            1 
   38400    2.0147403   -4.7618698    4918.0978            1 
   38500    2.0270561   -4.7538729    4965.4917            1 
   38600    2.0576699   -4.7452738    4959.5089            1 
   38700    2.0668674   -4.7787518    4939.1367            1 
   38800    2.0283133   -4.8043758    4943.6633            1 
   38900    2.0189425    -4.809457    4912.0557            3 
   39000    2.0617884   -4.7868185    4918.5038       -1e+20 
   39100     2.009828   -4.7372583    4970.0739            1 
   39200    2.0740671   -4.7501807    4960.5139            1 
   39300    2.0130396   -4.7458509    4938.3345            1 
   39400    2.0606589   -4.7378069    4978.6366            1 
   39500    2.1196426   -4.7325571    4988.4436            1 
   39600    2.0097365   -4.6969511    4965.6115            1 
   39700    2.0119253    -4.735889    4951.5033            1 
   39800    2.0643797   -4.7895444    4938.3345            1 
   39900    2.0092524   -4.7661773     4981.227            1 
   40000    2.0897652   -4.8065049     4893.673            2 
   40100    2.0029877   -4.8001889    4945.5585            2 
   40200    2.0381404   -4.7651733    4958.0294            1 
   40300     2.090726   -4.7592299    4948.3483            2 
   40400    2.0177992    -4.776167    4963.2921            1 
   40500    2.0484834   -4.7946128    4949.9489            1 
   40600    2.0918454   -4.7396979    4949.5636            1 
   40700    2.0194876   -4.7577049    4953.1256            1 
   40800    2.0370896   -4.7840313    4959.5405            1 
   40900    2.0784369   -4.7349885     4930.203            2 
   41000    2.0379102   -4.8110701    4947.0408            1 
   41100    2.0094076   -4.7622502    4937.5138            2 
   41200    2.0779014   -4.7405219     4947.056            1 
   41300    2.0402015   -4.7586871    4965.4542            1 
   41400    2.0059483   -4.7764031    4933.1565            1 
   41500    2.0617225   -4.8014039     4930.145            1 
   41600    2.0418303   -4.7631867    4981.8668            1 
   41700    2.0687794   -4.7431854    4929.3451       -1e+20 
   41800    2.0146149   -4.7491327    4942.9088            2 
   41900      1.99985   -4.7476519    4980.6646            1 
   42000    2.0800446   -4.7277721    4944.7022            2 
   42100    1.9916169   -4.7245787    4951.2371            1 
   42200    2.0509396   -4.7798113    4940.0804            1 
   42300    2.0295968   -4.7747284    4896.2109            1 
   42400    2.0305666   -4.7715937    4958.9063            2 
   42500    2.0222615   -4.7809445    4945.4001            1 
   42600    2.1129482    -4.781691    4933.6918            1 
   42700    1.9888406   -4.7141643    4971.6043            2 
   42800    2.0819479   -4.7760959    4958.3309       -1e+20 
   42900     2.058152   -4.7947162    4938.2801            1 
   43000     1.999315   -4.7776734    4938.6407            1 
   43100    2.0726768   -4.7936966    4926.7018            1 
   43200    2.0748612   -4.7870841    4976.9836            1 
   43300    2.0769181   -4.7583541    4994.6721            1 
   43400    2.0417958   -4.7581924     4938.921       -1e+20 
   43500    2.0457123   -4.7956479    4951.7764            1 
   43600    2.0475699   -4.7304034    4956.3971       -1e+20 
   43700    2.0618818   -4.7583059    4952.2355            1 
   43800    1.9957065   -4.7608545    4951.7076            1 
   43900    2.0262665   -4.6920791    4944.4807            1 
   44000    2.0284676   -4.7234301    4958.6482            4 
   44100    2.0484545   -4.6996369    4975.2318       -1e+20 
   44200    2.0784197   -4.7840998    4945.0644            1 
   44300    2.0288579   -4.7264326    4950.3232            1 
   44400    2.0528663   -4.7617246    4986.7703            1 
   44500    2.0310767   -4.7089366     4928.262            1 
   44600    2.0562777   -4.7523547    4929.3319       -1e+20 
   44700    2.0011073   -4.7550626     5004.206       -1e+20 
   44800    2.0837017   -4.6955974    4940.4428            2 
   44900    2.0513888   -4.7630728     4968.296       -1e+20 
   45000    2.0040453   -4.7444505    4943.1998            1 
   45100    2.0513428   -4.7397849    4927.5412            1 
   45200    2.0131587   -4.7946449    4965.7688       -1e+20 
   45300    2.0840927   -4.7647437    4932.9617            1 
   45400    2.0280323   -4.7440541    4951.2817            1 
   45500    2.0383426   -4.7724814    4961.3864            1 
   45600     2.058434   -4.7362985    4947.9898            1 
   45700       2.0335    -4.733438    4956.8972            1 
   45800    1.9985455   -4.7486182    4930.7452            1 
   45900    2.0741892   -4.7648115    4943.1804            1 
   46000     1.994024   -4.7232144    4961.9659            1 
   46100    2.0525695   -4.7755812    4919.0861            1 
   46200    2.0194057    -4.754208    4955.3607            1 
   46300    2.0616227   -4.7737494    4957.5143       -1e+20 
   46400    2.0375645   -4.7486889    4925.7431            2 
   46500    2.0382847   -4.8169374    4954.4006       -1e+20 
   46600    2.0600101   -4.7405655    4949.2937       -1e+20 
   46700    2.0840967   -4.7314836    4976.0855            1 
   46800    2.0414835   -4.7441092    4968.2881       -1e+20 
   46900     2.066419   -4.7680338    4939.7199            1 
   47000    2.0007739   -4.7784013    4941.3206            1 
   47100    2.0435651   -4.7658033    4938.3577            1 
   47200    2.0740544   -4.7150724     4947.107       -1e+20 
   47300    2.0328448   -4.7773093    4972.2525            1 
   47400     2.050769   -4.7996517    4949.2636            2 
   47500    2.1046413   -4.7454103    4943.2177            1 
   47600    2.0249421   -4.7723517    4959.6358            2 
   47700    2.0171742   -4.7527681    4948.8002       -1e+20 
   47800    2.0800036   -4.7398814    4949.1413            1 
   47900    2.0165313   -4.7400999    4963.4825            2 
   48000    2.0273999   -4.7218304    4931.6622       -1e+20 
   48100    2.0254847   -4.8288555    4939.3886            1 
   48200    2.0364165   -4.8115948    4941.3506            1 
   48300    2.0623881   -4.7490549    4946.7779            1 
   48400    1.9899819    -4.722774    4933.8544            1 
   48500    2.0425012    -4.797849    4931.9384            1 
   48600    2.0284815   -4.7441306    4974.5561            1 
   48700    2.0580822   -4.7379163    4941.6531            1 
   48800    2.0566586    -4.777727    4945.1161            1 
   48900    2.0211579   -4.7634376    4976.7851            1 
   49000    2.1103636   -4.7557439    4960.6202            1 
   49100    2.0224708   -4.7230511    4953.7367       -1e+20 
   49200    2.0305959   -4.7965292     4932.597            1 
   49300    2.0383741   -4.7964838    4914.8327            2 
   49400    2.0470011   -4.7974896    4969.4036            1 
   49500    2.0549021    -4.730258    4964.4708            1 
   49600    2.0694383   -4.6997057    4970.8104            1 
   49700    2.0058142   -4.7243542    4976.7493            2 
   49800    2.0599491   -4.7012831    4941.6902            1 
   49900    2.0161311   -4.7663404    4939.5841            1 
   50000    2.0255213   -4.7811435    4954.7033            2 
   50100    2.0584535    -4.709801    4968.7059            1 
   50200    2.0376648   -4.7266438    4957.8404            1 
   50300    2.0181147   -4.7754734    4947.0915            1 
   50400    2.0683377   -4.7292621    4951.5473       -1e+20 
   50500    2.0497502   -4.7153046    4964.7933            1 
   50600    2.0238825   -4.7555522     4955.091            2 
   50700    2.0031025    -4.755889     4920.223       -1e+20 
   50800    2.0632604   -4.8042208    4920.7947            1 
   50900    2.0353073   -4.8121638    4955.6908            2 
   51000    2.0575325   -4.7185889    4957.8959            1 
   51100    2.0472078   -4.7587727    4956.1489            1 
   51200    1.9936901   -4.7705988    4938.2791            1 
   51300    2.0405522   -4.7451752    4940.5932       -1e+20 
   51400    2.0671696   -4.7680123    4944.3005            2 
   51500    2.0130164   -4.7567529    4971.6781            1 
   51600    2.0409775   -4.6935727    4950.5885       -1e+20 
   51700    2.0423033   -4.7288254    4969.0145            2 
   51800    2.0355255   -4.7442591    4976.2288            2 
   51900    2.0575997   -4.7300771    4946.1971            1 
   52000    2.0303122   -4.7601281    4923.1833            1 
   52100    1.9915219   -4.8269212    4919.8998            1 
   52200    2.0170893   -4.7484179    4925.9135            1 
   52300    2.0410628    -4.723992    4980.6988            2 
   52400    2.0351339   -4.7256296    4953.6927            1 
   52500    2.0888659   -4.8021597    4955.3827            1 
   52600     2.003823   -4.7693329    4966.9364       -1e+20 
   52700     2.103778   -4.7819482    4935.9692       -1e+20 
   52800    2.0499105   -4.7778898    4967.8092       -1e+20 
   52900    1.9972377   -4.7830913    4927.5998       -1e+20 
   53000    2.0386025   -4.7724533    4922.1443            1 
   53100    2.0437798   -4.7355374    4950.1041            1 
   53200    2.0466822   -4.7443057    4976.9744            1 
   53300    2.0665781   -4.7501177    4923.4661            2 
   53400    2.0354097   -4.7957953    4971.9193            1 
   53500    2.0479461   -4.7932328    4954.2722            1 
   53600    2.0058782   -4.6884005    4911.2345       -1e+20 
   53700    2.0425495   -4.7545106     4950.999            1 
   53800    1.9960551   -4.7848118    4949.3277            2 
   53900     2.075163   -4.7979139    4933.4414       -1e+20 
   54000    2.0714023   -4.7528467     4958.271            1 
   54100    2.0214396   -4.7287055    4981.3403            1 
   54200    2.0214362    -4.699566    4969.4731            1 
   54300    2.0756209   -4.7248072    4957.7422            1 
   54400    2.0560967   -4.7755093     4954.669       -1e+20 
   54500    2.0198501    -4.780491    4942.8996            1 
   54600    2.0641542   -4.7298604    4946.0183       -1e+20 
   54700    2.0350461    -4.736328    4981.7408            1 
   54800    2.0434802   -4.7604668    4964.5357            1 
   54900     2.067597   -4.7656958    4921.6481       -1e+20 
   55000    2.0792255   -4.7315353    4986.0026            1 
   55100    2.0222412   -4.7226693    4972.1361            1 
   55200    2.0223555   -4.7048208    4970.8291            1 
   55300    2.0659664   -4.7159411     4971.382            1 
   55400    2.0248073   -4.7564181     4954.186            1 
   55500    2.0471111   -4.7359152    4978.0109       -1e+20 
   55600    2.1200425    -4.705667    4969.1837            2 
   55700    2.0103894   -4.6992096    4981.6585       -1e+20 
   55800    2.0175254   -4.7541099    4950.9485            1 
   55900     2.049571   -4.7531432    4911.6107       -1e+20 
   56000    1.9759163   -4.7469243    4934.7788       -1e+20 
   56100     2.046691   -4.7484589    4949.7292       -1e+20 
   56200    2.0682619   -4.7368737    4950.1274            1 
   56300    2.0121137   -4.7363659    4992.4607            1 
   56400    2.0218302   -4.6759181    4938.0724            1 
   56500     2.100888   -4.7627813    4981.2865            1 
   56600    2.0422605   -4.7750078     4947.436            2 
   56700    2.0368558   -4.8022342    4925.0686            1 
   56800    2.0332759   -4.8070036    4905.7582            1 
   56900    2.0641914   -4.8042004    4949.7527            1 
   57000    2.0447162   -4.7635455    4964.0107            1 
   57100    2.0407645   -4.6790423    4952.8465            1 
   57200    2.0369753   -4.6908276    5001.3624            1 
   57300    2.0504262   -4.7627191    4930.3621            1 
   57400    2.0323302   -4.7822905     4939.661            1 
   57500     2.046779   -4.7396425     4973.182            1 
   57600    2.0636627    -4.739865    4972.4805            1 
   57700    2.0160923    -4.738932    4943.4143       -1e+20 
   57800     2.014812   -4.7332598     4952.018            1 
   57900    2.0455284   -4.7060639     4967.038            1 
   58000    1.9703958   -4.7103833    4963.9861            1 
   58100    2.0824347    -4.751379    4954.6933            1 
   58200    2.0587265    -4.775173    4937.6161            1 
   58300    2.0227692   -4.7911506    4951.5974       -1e+20 
   58400    2.0748092   -4.7530892    4926.4226            1 
   58500    2.0022202   -4.7578247    4916.5705            1 
   58600      2.03278   -4.7708739     4958.111            1 
   58700    2.0987125    -4.733341    4945.1648            1 
   58800    2.0106449   -4.7250666    4970.0645            1 
   58900    2.0430645   -4.7182084    4969.8385            2 
   59000    2.0189263   -4.7407124     4930.203            1 
   59100    1.9938404   -4.7831046    4926.0518            1 
   59200    2.0390514   -4.7955715    4928.2902            1 
   59300    2.0370491   -4.7413452    4964.0581       -1e+20 
   59400    2.0523529   -4.7924941    4951.6865            1 
   59500    2.0439414   -4.7607104    4937.5472            1 
   59600    2.0454463   -4.7344289    4961.8588       -1e+20 
   59700    2.0704788   -4.7446099    4993.9398            2 
   59800    2.0488024   -4.7377112    4914.7137            1 
   59900    2.0076004   -4.7206727    4951.4416       -1e+20 
   60000    2.0365798   -4.7293554    4999.2256            3 
   60100    2.0361893   -4.7228916    4946.3807       -1e+20 
   60200    2.0146274   -4.7419524    4934.9902       -1e+20 
   60300    2.0431268   -4.7446263    4945.1797            1 
   60400    2.0408674   -4.7571101    4965.5475            2 
   60500    2.0567355   -4.7387259    4969.6004            3 
   60600     2.041513   -4.7366242    4957.8209            1 
   60700    2.0159365   -4.7579342    4956.1879       -1e+20 
   60800    2.0997494   -4.7186219    4928.0433            1 
   60900    2.0299831   -4.7442177     4994.449            1 
   61000    2.0697732   -4.7730241    4969.3202            3 
   61100    2.0528721   -4.7654679    4922.9803       -1e+20 
   61200    2.0358312   -4.8012751    4942.5252            4 
   61300    2.0344414   -4.7917427    4926.5478       -1e+20 
   61400    2.0707827   -4.8043908     4923.782            1 
   61500    2.0148531   -4.7530022    4978.0164            1 
   61600    2.0478536   -4.7133539    4975.8388            3 
   61700    2.0574849   -4.6999999    4965.8165       -1e+20 
   61800    2.0171084   -4.7412396     4963.088            1 
   61900    2.0655116   -4.7776079     4942.539       -1e+20 
   62000     2.013184   -4.7893397    4923.0096            1 
   62100     2.035756   -4.7507503    4948.4906       -1e+20 
   62200     2.034664   -4.6838479    4972.7798            1 
   62300    2.0874643   -4.7090461    5005.3004       -1e+20 
   62400    2.0592738   -4.7377783    4961.9806            1 
   62500    2.0433705    -4.770414    4937.8925       -1e+20 
   62600     1.995498   -4.8072144    4923.2401            1 
   62700    2.0255115    -4.755897    4910.5737            1 
   62800    2.0204797   -4.7320298    4966.5629            1 
   62900    2.0243277   -4.7356555    4970.8489            1 
   63000      2.11368   -4.7370631    4944.6119            1 
   63100    2.0137108   -4.7433882    4986.0947            1 
   63200    2.0531127   -4.7470977    4990.5451            1 
   63300    2.0806021   -4.6565464    4980.8061            1 
   63400    2.0367221   -4.7111475    4988.1664            1 
   63500    2.0324947   -4.7591082    4951.7593       -1e+20 
   63600    2.0641844   -4.7354915    4962.1085            1 
   63700    2.0366487   -4.7373478     4954.206            1 
   63800    2.0390157   -4.7480226     4938.806            1 
   63900    2.0257896    -4.749052    4965.8253            1 
   64000    2.0762685   -4.7779347    4946.0595            1 
   64100    2.0541067   -4.7669884    4935.2379            1 
   64200    1.9939652    -4.781769     4942.418            1 
   64300    2.0736502   -4.7620986    4932.3264            1 
   64400    2.0327407   -4.7159841    4972.2254            1 
   64500    2.0510989   -4.7687306    4987.1771            2 
   64600    2.0200468   -4.7514837    4922.1118            1 
   64700    2.0485785   -4.8065258     4922.712            1 
   64800    1.9899224   -4.7684132    4966.3754            1 
   64900    2.0667691   -4.7301868    4940.1067            1 
   65000    2.0148508   -4.7562245    4949.4572       -1e+20 
   65100    2.0433271   -4.7686613    4927.0068            2 
   65200    2.0286086   -4.7940951    4922.0521            1 
   65300    2.0223359   -4.7745117    4975.9959            1 
   65400    2.0650087   -4.7251796    4951.9062            1 
   65500    2.0207286   -4.7209465    4982.2875            1 
   65600    2.0936602    -4.726435    4985.6941            1 
   65700    2.0354161   -4.7188612    4944.6221            1 
   65800    1.9980632   -4.7477523    4948.8739            2 
   65900    2.0735708   -4.7608624    4964.4238            1 
   66000    2.0555489   -4.7534393    4973.1291            1 
   66100    2.0569324   -4.7448172    4976.8291            1 
   66200    2.0641657    -4.734114    4966.5313            1 
   66300    2.0130164    -4.727516    4934.6826            1 
   66400    2.0653393   -4.7917625    4933.0925            1 
   66500    1.9996098   -4.7713578    4968.3911            1 
   66600    2.0633294      -4.7201    4944.9368            1 
   66700    2.0407599   -4.7283048    4956.3199            1 
   66800    2.0056097   -4.7131381    4979.8182       -1e+20 
   66900    2.0845762   -4.7400878    4939.6796            1 
   67000    2.0087565   -4.7454046    4958.2368            1 
   67100     2.063384   -4.7587723    4974.4435            1 
   67200     2.056431   -4.7084935    4959.8201       -1e+20 
   67300    2.0414013   -4.7645967    4960.9417            1 
   67400    2.0408176   -4.7080332    4982.1006            1 
   67500    2.0518432   -4.6785518    4964.7947            2 
   67600    2.0404448   -4.7206808     4964.767       -1e+20 
   67700    2.0001655   -4.7209817    4983.9339            2 
   67800    2.0858384   -4.7990897    4923.5142            1 
   67900     2.032067   -4.8089501    4919.1885            1 
   68000    2.0717133    -4.763586    4960.8344            1 
   68100    2.0638983   -4.7292128    4960.9472       -1e+20 
   68200    2.0522935   -4.7892288    4954.6331            1 
   68300    2.0016816   -4.7474014    4948.5623            1 
   68400    2.1070864   -4.7552549    4936.9703            2 
   68500    1.9958277   -4.7054293    4978.3083       -1e+20 
   68600    2.0538035   -4.7157975    4951.4012            1 
   68700    1.9955636   -4.7160045    4944.2883            1 
   68800      2.09595   -4.7785451    4949.0597            1 
   68900    2.0202413   -4.7787904    4948.1825            3 
   69000    2.0578275   -4.7561884    4952.9634            1 
   69100    2.0365777   -4.6883166    4972.2403            1 
   69200    2.0529908   -4.7224572     4992.945       -1e+20 
   69300    2.0458422   -4.7207771    4926.0074            1 
   69400    1.9881083   -4.7806438    4957.9136            2 
   69500    2.0673675   -4.7523845     4900.927            1 
   69600    2.0335519   -4.7828218    4951.8105            1 
   69700    2.0324848   -4.7746387    4946.0731            1 
   69800    2.0689172     -4.76608    4932.5831            1 
   69900    2.0312315    -4.770388     4970.219            1 
   70000    2.0265304   -4.7279268    4973.0148            1 
   70100    2.0495977   -4.7232113    4942.8967            1 
   70200    2.0266695   -4.7944821    4925.8373       -1e+20 
   70300    2.0449699   -4.8028031    4958.4173            1 
   70400     2.110393   -4.7729264    4955.6766            2 
   70500    2.0378651   -4.7817666    4930.2338            1 
   70600    2.0292525   -4.7987305    4949.6986            1 
   70700    2.0452974   -4.7495565    4966.3043            2 
   70800    2.0454972   -4.7572772    4932.2739            1 
   70900    2.0313058   -4.7672556    4945.9505            2 
   71000    2.0441627   -4.7207923    4976.4894       -1e+20 
   71100    2.0331481   -4.7712225    4934.4394       -1e+20 
   71200    2.0278354   -4.8004315    4939.2344            1 
   71300    2.0170487   -4.7560515    4919.3964            1 
   71400    2.0366982   -4.7405204    4977.2798            1 
   71500    2.0094397   -4.7405783    4958.4265            2 
   71600    2.0610879   -4.7655861    4919.2823       -1e+20 
   71700    2.0375465     -4.71067    4985.6807            1 
   71800    2.0720657   -4.6732684    4986.0215            3 
   71900    2.0457866   -4.7232982    4946.2543            1 
   72000    1.9733218   -4.7409184    4964.1267       -1e+20 
   72100    2.0583969   -4.7343391     4969.365            3 
   72200     2.038755   -4.6998088    4959.7161            1 
   72300    2.0478582   -4.7520255    4966.4296            1 
   72400    2.0356975   -4.7531069    4948.7272            1 
   72500    2.0058535   -4.7680726    4913.1015            1 
   72600    2.0247257   -4.7902324    4944.0803       -1e+20 
   72700    2.0390011    -4.762875    4943.5245            1 
   72800    2.0427588    -4.729566    4953.9191            1 
   72900    2.0167084   -4.7146405    4986.4728            1 
   73000    2.0032708   -4.7257352    4935.7214            1 
   73100    2.0600591   -4.7809009    4943.8791            1 
   73200    1.9937808   -4.7270401    4962.8863            1 
   73300    2.0786366   -4.7051154    4898.8968            1 
   73400    1.9953571   -4.7629605    4971.4365            1 
   73500    2.0271548   -4.7552291    4961.2087            1 
   73600     2.069817   -4.7319609    4933.5114            1 
   73700    2.0154991   -4.7006583    5000.7758            1 
   73800    2.0694924   -4.6892705    4975.5507            1 
   73900    2.0569478   -4.7282015    4951.5405            2 
   74000    2.0199961   -4.7992954    4956.1331            1 
   74100    2.0836854   -4.7943899    4948.8655            1 
   74200    2.0000603   -4.7438626    4938.6689            1 
   74300    2.0434221   -4.7915768    4926.8212            3 
   74400    2.0416809   -4.7675379    4945.5038            1 
   74500    2.0544428   -4.7380469    4971.0546       -1e+20 
   74600     2.064699   -4.7363172    4982.2868            1 
   74700    2.0327991   -4.7649009    4923.7448            1 
   74800    2.0294855   -4.7527796    4952.0101            1 
   74900     2.067745   -4.7628884    4992.3985            1 
   75000    2.0752011   -4.7441803    4960.3508       -1e+20 
   75100    2.0504118   -4.7710755    4936.3968            1 
   75200    1.9881052   -4.7304499    4964.5224       -1e+20 
   75300    2.0762303   -4.7391564    4949.9676            4 
   75400    2.0236346   -4.7449222    4948.7069            1 
   75500    2.0109372   -4.8427609    4938.9661            1 
   75600    2.0613877    -4.790664    4920.5517       -1e+20 
   75700    2.0176766   -4.7266936    4942.1109       -1e+20 
   75800    2.0752883    -4.730028       4975.7       -1e+20 
   75900    2.0378422   -4.7237383    4972.0312       -1e+20 
   76000    2.0463852    -4.736042    4955.4801            1 
   76100    2.0254128    -4.781423    4943.2956            2 
   76200    2.0705211   -4.7665877    4979.6726       -1e+20 
   76300    2.0946898   -4.7022886    4957.7806            1 
   76400    2.0159166   -4.7301875    4952.4869            2 
   76500    2.0760552   -4.7433424    4955.0351            1 
   76600    2.0077974   -4.7846062    4968.9257            1 
   76700    2.0810478   -4.7790273    4921.1575            1 
   76800    2.0078564   -4.7618354    4919.4363            1 
   76900    2.0472307   -4.7699421    4978.6916            2 
   77000    2.0349041   -4.7565431     4948.626       -1e+20 
   77100    2.0386286   -4.7173407    4926.2703            1 
   77200    2.0026364   -4.7788364    4967.8158            1 
   77300    2.1173516   -4.7837522     4910.593            1 
   77400    2.0174264    -4.749389    4969.0996            1 
   77500    2.0208553   -4.7520833    4948.0487            1 
   77600    2.0374158   -4.7272124    4945.4187            1 
   77700    2.0014657   -4.7242831    4961.9723            1 
   77800    2.0683983   -4.7175865    4940.4691       -1e+20 
   77900     2.016158   -4.7554484    4957.5523            1 
   78000    1.9963582   -4.7769747    4944.8553            1 
   78100     2.063927   -4.7446884    4912.2229       -1e+20 
   78200    2.0090975   -4.7542999     4986.894            1 
   78300    2.0530427   -4.7444161    4951.8502            1 
   78400    2.0768406   -4.7607773    4936.9112            1 
   78500    2.0014846   -4.7974668    4971.3377       -1e+20 
   78600     2.078427   -4.7534107    4927.4055            1 
   78700    2.0342489   -4.7622168    4965.7369            1 
   78800     2.053211    -4.743188     4977.825       -1e+20 
   78900    2.0541123   -4.7413259    4943.8144            1 
   79000    1.9980706   -4.7725246    4950.3208            1 
   79100    2.0651018   -4.7942674    4971.5457            1 
   79200    2.0784739   -4.7430419    4958.9034            1 
   79300    2.0359832   -4.7697315    4984.6462            1 
   79400    2.0748236   -4.7282219    4952.0869            1 
   79500    2.0148974   -4.7493384    4946.0962       -1e+20 
   79600    2.0626742   -4.7812768    4961.4436            1 
   79700    2.0451441   -4.7604333    4949.1516            1 
   79800    2.0632246   -4.7442706    4979.2921            1 
   79900    2.0406476   -4.7395791    4976.5876            1 
   80000    2.0410837   -4.7541956    4932.8203            1 
   80100    2.0206965    -4.770714    4936.9134            1 
   80200    2.0397127   -4.7714596    4957.9723            1 
   80300    2.0844629   -4.7969714    4928.1341            1 
   80400    2.0110394   -4.8026103    4943.8394            1 
   80500    2.0161664   -4.7164498    4957.0308            1 
   80600    2.0907087   -4.7294892    4948.6771            1 
   80700    2.0306248   -4.7831065    4960.0609            1 
   80800    2.0140011   -4.7670589    4931.6977            1 
   80900    2.0265498   -4.6826332    4937.9745            1 
   81000    1.9986173   -4.7589822    4966.4802            1 
   81100    2.0289333   -4.7137532    4942.5898            1 
   81200    2.0705736   -4.7541045    4962.6584            1 
   81300    2.0161262   -4.7865523     4949.603            1 
   81400    2.0954247   -4.7762515    4915.6655            1 
   81500    1.9735198   -4.7505737    4962.8556            1 
   81600    2.0470128   -4.7327137    4937.2143            1 
   81700    2.0173393   -4.7011244    4946.9146            1 
   81800    2.0189301    -4.735924    4975.6749            1 
   81900    2.0775168   -4.7200633      4947.02            1 
   82000    2.0431831   -4.7967368    4937.3104            1 
   82100    1.9978853   -4.7573141    4943.7304            1 
   82200    2.0752204   -4.7488254    4932.2018       -1e+20 
   82300    2.0183045   -4.7409772    4991.8839       -1e+20 
   82400     2.070847   -4.7173383    4977.1677            2 
   82500    2.0265506   -4.7167486    4943.3467            1 
   82600    2.0083593   -4.7773894    4946.6045            1 
   82700    2.0257136   -4.8138193    4896.0227            1 
   82800    2.0498749   -4.7788631    4949.8835            1 
   82900    2.0515713    -4.775681    4943.4468            1 
   83000    2.0023557   -4.7652042    4935.6107            2 
   83100    2.0429525   -4.7467238    4953.4373            1 
   83200    2.0534382   -4.6878917    4953.5082            1 
   83300    2.0062611   -4.7467088    4957.7577            1 
   83400    2.0251165   -4.7895179    4948.4083       -1e+20 
   83500    2.0561195   -4.7974392    4912.2512            3 
   83600    2.0619596   -4.7651002    4955.9794            1 
   83700    2.0318453   -4.7277184    4946.9183            1 
   83800    2.0235679   -4.7437453    4945.3635            1 
   83900    2.0303662    -4.736244    4967.8075            2 
   84000     2.079003   -4.7397008     4953.839            1 
   84100     2.037063   -4.8108104    4937.6188            1 
   84200    2.0102861   -4.8007737    4908.0738       -1e+20 
   84300    2.0472439   -4.7826035    4932.6978            2 
   84400    2.0007814   -4.6860831     4953.688       -1e+20 
   84500    1.9665102    -4.709319    4946.7643            1 
   84600    2.0716362   -4.7587089    4925.1266       -1e+20 
   84700    1.9883741   -4.7548216    4954.8641            1 
   84800    2.0806248   -4.7530265    4948.6372            4 
   84900    2.0316354   -4.7093188    4960.9835            1 
   85000    2.0264776   -4.7628613     4975.378            2 
   85100    2.0593189   -4.7503994    4941.2189            1 
   85200    2.0233778   -4.6941279    4997.7065       -1e+20 
   85300    2.0932578    -4.685564    4983.3755            1 
   85400    2.0003559   -4.6661938    4967.0019            1 
   85500    2.0049442   -4.7207458    4948.5521            1 
   85600    2.0671824   -4.7288463    4972.2942            1 
   85700    2.0432592   -4.7470636     4958.353            1 
   85800    2.0268161   -4.7204834    4962.5104       -1e+20 
   85900    2.0403248   -4.7501873    4965.8716       -1e+20 
   86000    1.9854318   -4.7303944     4899.792            1 
   86100    2.0319515   -4.7589959    4959.2302            1 
   86200    2.0127954   -4.7023313    4943.7926            1 
   86300    2.0891501   -4.7616976    4941.8971            1 
   86400    2.0365073   -4.7838973    4997.0088       -1e+20 
   86500    2.0461236   -4.7744575    4925.8168            1 
   86600    2.0533289   -4.7835089    4939.7239            2 
   86700    2.0173682   -4.7626124    4982.5874            2 
   86800    2.0946027   -4.7434493    4949.5825            1 
   86900    2.0185761   -4.7467023    4944.0015            1 
   87000    1.9917548   -4.7738995     4958.687            1 
   87100    2.0957283   -4.7904957    4927.6235            2 
   87200    2.0401955   -4.7336502    4964.3234            1 
   87300    2.0502208   -4.7657305    4994.5923            1 
   87400    2.0263693   -4.7240472    4926.2911            2 
   87500    2.0594106    -4.733842    4959.5605            1 
   87600    2.0445272   -4.7742648    4986.1661            1 
   87700     2.126576   -4.7690526     4945.797            1 
   87800    2.0075869   -4.7505288    4969.0487       -1e+20 
   87900    2.0151035   -4.7598638    4914.1517            1 
   88000    2.0235027   -4.7666949    4931.2553            1 
   88100    2.0074807   -4.7385775    4939.3315       -1e+20 
   88200       2.0718   -4.7667269    4945.8659            1 
   88300    2.0344696   -4.7058821    4985.0208       -1e+20 
   88400    2.0099638   -4.6937019    4960.4188            1 
   88500     2.068995   -4.7637867    4950.5428            1 
   88600    1.9757577   -4.7290328    4988.8961            1 
   88700    2.1047107   -4.7779112    4894.7952            1 
   88800    1.9879891    -4.738611    4949.2947            1 
   88900     2.043066    -4.739349    4957.5447       -1e+20 
   89000    2.0163562   -4.7660966    4919.0131            1 
   89100    2.0308608   -4.7656483    4938.5578            1 
   89200    2.0723836   -4.7894081    4965.9175            1 
   89300    2.0437017   -4.7592631    4948.4857       -1e+20 
   89400    2.0761428   -4.7571164    4948.3539            1 
   89500    2.0125965   -4.7590546    4991.2449            1 
   89600    2.0415324   -4.7342812    4916.5856            1 
   89700    2.0199392   -4.7827151    4935.0873            2 
   89800    2.0284849     -4.74325    4969.9033            1 
   89900    2.0804283   -4.7106488    4957.0429            1 
   90000      2.03009    -4.696789    4981.2622            1 
   90100    2.0316186   -4.7243164    4959.3148            1 
   90200    2.1020279   -4.7618183    4979.6152       -1e+20 
   90300    2.0485435    -4.745873    4972.1784            1 
   90400    2.0300164   -4.7421699     4952.565            1 
   90500    2.0436186   -4.7134859    4955.7056            1 
   90600    2.0732266   -4.7682478      4953.34            1 
   90700    2.0012992   -4.7629443    4956.7957       -1e+20 
   90800    2.0978827   -4.7469428    4908.4536            1 
   90900    1.9747333   -4.7605576    4975.9563            1 
   91000    2.0530853   -4.7514071    4953.4369            1 
   91100    2.0850024    -4.738925    4969.0126            1 
   91200    2.0215725    -4.751316    4976.1724            2 
   91300    2.0554714   -4.7542489    4941.1756            2 
   91400     2.043684    -4.764337    4966.7715            1 
   91500    2.0360407   -4.6673619    4982.0045            1 
   91600    2.0555227   -4.6532108    4994.2265            1 
   91700    2.0485614   -4.7204191    4962.5216            1 
   91800    2.0157287   -4.7608633    4962.0754            1 
   91900    2.0588635   -4.7486807    4930.0321            1 
   92000    2.0799743   -4.7891918    4955.6826            1 
   92100     2.012368   -4.7809492    4962.9487            1 
   92200    2.0527051   -4.7277092    4908.8981            1 
   92300    2.0262454   -4.7407082    4968.0224       -1e+20 
   92400    2.0365399   -4.7592107    4968.0552       -1e+20 
   92500    2.0371786   -4.7424883     4930.761            1 
   92600    2.0330133   -4.8071895    4942.0637            1 
   92700    2.0451274   -4.7709433    4952.9628            1 
   92800    2.0575205   -4.7119785    4950.4716            1 
   92900    1.9905874    -4.729393    4950.2429            1 
   93000     2.007779   -4.7302404    4935.5594            1 
   93100    2.0702448   -4.7438839    4957.2939            1 
   93200    2.0267198   -4.7092961    4968.2404            1 
   93300    2.0366976   -4.7806668    4936.9268            1 
   93400    2.0479207   -4.8320435    4909.3452            1 
   93500    2.0231841   -4.7511139    4975.4497            2 
   93600    2.0580281    -4.727413    4953.8285            1 
   93700      1.99527   -4.7370468    4949.9869            1 
   93800    2.0683437   -4.7448882    4962.5497       -1e+20 
   93900    2.0451682   -4.7272029     4973.808            1 
   94000    2.0753503    -4.773109    4990.8173            2 
   94100    2.0715579    -4.721249    4947.1681            1 
   94200    2.0062246   -4.7507727    4988.9599            1 
   94300    2.0128835   -4.7382732    4940.7966            1 
   94400     2.050497   -4.7699491    4937.0114            1 
   94500     2.054251   -4.7907666    4986.7877            1 
   94600    2.0557464   -4.7248498    4948.4363            1 
   94700    2.0452588   -4.7813034    4922.4847            1 
   94800    1.9327195   -4.7772462    4924.2863            1 
   94900    2.0281945   -4.7727262    4933.1134            1 
   95000    2.0574046   -4.7467513    4961.0575            1 
   95100    1.9953755   -4.7264576    4965.8664            1 
   95200    2.0995904   -4.7266677    4942.8342            2 
   95300    2.0318836   -4.7367739    4960.0289       -1e+20 
   95400    2.0506726   -4.7683753    4975.0336       -1e+20 
   95500    2.0616164   -4.6483724    4957.1602            1 
   95600     2.043417   -4.7286547    4952.9264            1 
   95700    2.0208297   -4.7815501    4942.8323       -1e+20 
   95800    2.0889899   -4.7923761    4939.7942            1 
   95900    2.0008027   -4.7480772     4975.784            1 
   96000    2.0544211   -4.7095716    4972.9388            1 
   96100    2.0473696   -4.7507123    4942.1973            1 
   96200    2.0375308   -4.7533474    4954.5504            1 
   96300    2.0170724    -4.773491    4937.0023       -1e+20 
   96400    2.0493957   -4.7316566    4933.8584            2 
   96500    2.0531497   -4.7817537    4958.9326       -1e+20 
   96600    2.0164178   -4.7704591    4927.0482            3 
   96700    2.0320873   -4.7634659    4926.2357            1 
   96800    2.0183678   -4.7358081    4973.1388            2 
   96900     2.076349   -4.7652265    4949.9146            1 
   97000    2.0399394    -4.765714    4929.0669            1 
   97100    1.9895476   -4.8001147     4931.897       -1e+20 
   97200    2.0253082   -4.7713421    4900.4173            1 
   97300    2.0590148   -4.7970138    4944.4922       -1e+20 
   97400    2.0289342   -4.7886755    4949.2537       -1e+20 
   97500    2.0973524   -4.7754288    4937.6924            1 
   97600    1.9967227   -4.7534381    4977.9803            1 
   97700    2.0626877   -4.7512293    4925.5564            1 
   97800    2.0356997   -4.7666336    4945.8082            1 
   97900    2.0255435   -4.7748053    4943.6366            1 
   98000    2.0757212   -4.7592545    4967.3957       -1e+20 
   98100    2.0362567   -4.7467416     4955.304            1 
   98200    2.0200973   -4.7766172    4954.6648            1 
   98300    2.0657333   -4.7245716    4937.1766            1 
   98400    2.0217001   -4.7788451    4962.0444            1 
   98500    2.0637051   -4.7412688    4962.9065            1 
   98600    1.9874787   -4.7126353    4937.8918            1 
   98700    2.0648361   -4.7594112    4955.2603            2 
   98800    2.0345362   -4.7381608    4985.8092            1 
   98900    2.0589249   -4.6900876     4974.097       -1e+20 
   99000    2.0655117   -4.7434314    4951.4196            1 
   99100    1.9943953   -4.7494397     4965.741       -1e+20 
   99200    2.1185233   -4.7576459    4927.6414            1 
   99300    2.0384761   -4.7600279    4943.9141            1 
   99400    2.0061087    -4.764295    4951.2201            1 
   99500    2.0628401   -4.7653278    4944.3104            2 
   99600    2.0294628   -4.7651267      4978.36            1 
   99700    2.0699187   -4.7190081    4967.8551            1 
   99800    2.0130422    -4.722869     4961.583            1 
   99900      2.01546    -4.779584    4923.1298       -1e+20 
  100000     2.080861   -4.7589842    4939.8507            1 
  100100    2.0257036   -4.7050378    4975.4732            1 
  100200    2.0357293   -4.7484134    4970.7582            1 
  100300    2.0485224    -4.759112    4893.7629            1 
  100400    2.0272217   -4.7883859    4926.7749            2 
  100500    2.0184211   -4.7732463     4968.384            1 
  100600    2.0714736   -4.7143282    4958.3956       -1e+20 
  100700    2.0210755   -4.6864947     4959.945            3 
  100800     1.993014   -4.7210762    4981.2787            1 
  100900    2.0604169   -4.7134729     4941.296            2 
  101000     2.042838   -4.7886294     4940.407       -1e+20 
  101100    2.0124622   -4.7277866    4959.5792            1 
  101200     2.053235   -4.7281873    4945.2356            1 
  101300    2.0035888   -4.7282321    4942.8467       -1e+20 
  101400    2.0469297    -4.728042    4965.7027            1 
  101500    2.0585895   -4.6769506    4971.2806            1 
  101600     2.028604   -4.7371733    4974.0013            1 
  101700    1.9906819   -4.7681731    4957.8824            1 
  101800    2.0861775   -4.7786676    4927.9143       -1e+20 
  101900    2.0024754   -4.7496719    4965.3196            1 
  102000    2.0357756   -4.7900513    4906.9742       -1e+20 
  102100    2.0127288   -4.7965701       4912.9       -1e+20 
  102200     2.024086   -4.7552829    4944.1109            1 
  102300    2.0441489   -4.7909064    4924.0347            1 
  102400    2.0412954   -4.7866191    4951.9585            1 
  102500    2.0367873   -4.7667807    4943.3052            1 
  102600    2.0602953    -4.777928    4925.5664       -1e+20 
  102700    2.0223474   -4.7742113     4960.613            2 
  102800    2.1141138    -4.781895    4939.4115       -1e+20 
  102900    2.0225877   -4.7617843    4993.1077            1 
  103000    2.0511239   -4.7355946    4945.6211            1 
  103100    2.0758292   -4.7941775    4936.8251            1 
  103200    1.9755868   -4.7886718    4944.5956       -1e+20 
  103300     2.058375   -4.7616524    4918.9258            1 
  103400    2.0552652   -4.7731955    4967.6892            1 
  103500    2.0624642   -4.7712561    4967.8141            2 
  103600    2.0108546   -4.7338381    4934.0259            1 
  103700    2.0086464   -4.8480241    4923.1954            1 
  103800    2.0592214   -4.8149287    4905.9657            1 
  103900    2.0422933   -4.7352402    4978.7026            1 
  104000    2.0353492    -4.696422    4961.0626            1 
Loop time of 168.965 on 28 procs for 100000 steps with 4000 atoms

Performance: 102269.946 tau/day, 591.840 timesteps/s
99.7% CPU use with 28 MPI tasks x no OpenMP threads

MPI task timing breakdown:
Section |  min time  |  avg time  |  max time  |%varavg| %total
---------------------------------------------------------------
Pair    | 14.464     | 15.369     | 16.123     |  10.3 |  9.10
Neigh   | 2.8941     | 2.9346     | 2.9951     |   1.7 |  1.74
Comm    | 11.231     | 13.503     | 15.638     |  35.1 |  7.99
Output  | 3.8673     | 3.8679     | 3.8788     |   0.1 |  2.29
Modify  | 129.43     | 131.57     | 135.01     |  16.3 | 77.87
Other   |            | 1.719      |            |       |  1.02

Nlocal:        142.857 ave         154 max         132 min
Histogram: 1 5 2 2 6 2 2 2 3 3
Nghost:        1968.86 ave        1984 max        1949 min
Histogram: 1 2 3 0 4 2 7 6 1 2
Neighs:        13141.5 ave       14562 max       11484 min
Histogram: 1 0 3 2 5 7 6 1 1 2
FullNghs:      26279.4 ave       28669 max       24217 min
Histogram: 1 6 1 4 6 2 1 4 1 2

Total # of neighbors = 735822
Ave neighs/atom = 183.95550
Neighbor list builds = 8467
Dangerous builds = 455

#clear
#
#next RN
#
#jump SELF
Total wall time: 0:02:50
