
units lj                  # Use reduced LJ style units
atom_style atomic         # Uncharged point particles
atom_modify map hash      # Needed for indexing of clusters etc
                          # Used to be able to find where atoms are in relation to each other.

# Define a lattice with which to populate the simulation cell. With units
# set to 'lj' the second argument to the lattice command is the reduced
# density rho* and the spacings are multiples of that required to acheive
# that density. Also define a simulation cell called 'box' in lattice units
# and fill it with atoms. Here we're creating a box which is ten lattice
# constants in each direction.
lattice fcc 1.0 spacing 1 1 1                 # All equal sizes - gives the right reduced density.
Lattice spacing in x,y,z = 1.5874011 1.5874011 1.5874011

region box block 0 10 0 10 0 10 units lattice # Defines a region, "box", in lattice units
create_box 1 box                              # Creates a simulation box as specified above,
Created orthogonal box = (0.0000000 0.0000000 0.0000000) to (15.874011 15.874011 15.874011)
  2 by 4 by 4 MPI processor grid
                                              # with one type of atom
create_atoms 1 box                            # Creates particles on lattice points
Created 4000 atoms
  using lattice units in orthogonal box = (0.0000000 0.0000000 0.0000000) to (15.874011 15.874011 15.874011)
  create_atoms CPU = 0.001 seconds


# Set the mass of the first (and only) atom type.
mass 1 1.0

# Lennard-Jones interactions between particles, 3.5 sigma cut-off. Apply
# long range tail corrections to energy and pressure and set all coefficients
# to unity since we work in reduced units here. Note that this doesn't shift
# the potential such that it goes to zero at the cutoff. That would require
# pair_modify('shift', 'yes').
pair_style lj/cut  3.5      # non-GPU version
pair_modify tail  yes
pair_coeff 1  1  1.0  1.0   # Intearaction between 1 and 1 set with epsilon = 1 and sigma = 1

write_data data.*
System init for write_data ...
Neighbor list info ...
  update every 1 steps, delay 10 steps, check yes
  max neighbors/atom: 2000, page size: 100000
  master list distance cutoff = 3.8
  ghost atom cutoff = 3.8
  binsize = 1.9, bins = 9 9 9
  1 neighbor lists, perpetual/occasional/extra = 1 0 0
  (1) pair lj/cut, perpetual
      attributes: half, newton on
      pair build: half/bin/atomonly/newton
      stencil: half/bin/3d
      bin: standard

#############################
#   M E L T   S Y S T E M   #
#############################

velocity all create 2.4 2750902 mom yes dist gaussian # Assign velocities
                                                    # Temperature 2.4, random number seed, zero linear momentum
						                                                        # Gaussian distribution

timestep 0.002   # simulation timestep
thermo 100       # output thermodynamic data every 100 steps

# Define a fix  in this case with index 1 applied to all
# particles in the simulation. This fix is for simulations
# in the anisotropic NPT ensemble. Note that we use the MTK
# correction.
fix 1 all npt temp 2.4 2.4 0.1 iso 5.68 5.68 0.5 mtk yes tchain 5 pchain 5 # Use NPT ensemble
                                                                         # Set temperature and pressure and damping
                                                                         # Numbers of thermostats in chain and in barostat
run 1000         # run for 10000 steps
Per MPI rank memory allocation (min/avg/max) = 3.660 | 3.660 | 3.660 Mbytes
Step Temp E_pair E_mol TotEng Press Volume 
       0          2.4   -8.3859253            0   -4.7868253   -2.2405722         4000 
     100    1.2608475   -6.5235855            0   -4.6327871    5.4038563    4091.0951 
     200    1.4674745   -6.2960149            0   -4.0953535    6.0843453    4138.9956 
     300    1.5811347   -6.0195196            0   -3.6484105    5.8230308      4272.98 
     400    1.6903552   -5.7119813            0   -3.1770823    5.9377022    4398.4635 
     500    1.7989246   -5.4338299            0   -2.7361176    5.7946904    4546.9323 
     600    1.9022797   -5.1497661            0   -2.2970598    5.8333119    4691.4311 
     700    2.0414959   -4.9561197            0   -1.8946415    5.6184351    4842.6632 
     800    2.1308362   -4.7068196            0   -1.5113644    5.7371792    4975.4569 
     900    2.2803533   -4.5781415            0   -1.1584666    5.7093427    5072.7544 
    1000    2.3672823   -4.4702836            0  -0.92024792    5.6050301    5163.6463 
Loop time of 0.260941 on 32 procs for 1000 steps with 4000 atoms

Performance: 662219.421 tau/day, 3832.288 timesteps/s
99.4% CPU use with 32 MPI tasks x no OpenMP threads

MPI task timing breakdown:
Section |  min time  |  avg time  |  max time  |%varavg| %total
---------------------------------------------------------------
Pair    | 0.13204    | 0.13899    | 0.14764    |   1.1 | 53.26
Neigh   | 0.02604    | 0.027317   | 0.028557   |   0.4 | 10.47
Comm    | 0.065244   | 0.07153    | 0.078697   |   1.6 | 27.41
Output  | 0.00019411 | 0.00019847 | 0.00026757 |   0.0 |  0.08
Modify  | 0.017153   | 0.021033   | 0.024545   |   1.6 |  8.06
Other   |            | 0.001874   |            |       |  0.72

Nlocal:        125.000 ave         135 max         113 min
Histogram: 1 0 2 4 3 13 2 2 3 2
Nghost:        1662.72 ave        1680 max        1643 min
Histogram: 2 1 2 2 6 6 7 2 3 1
Neighs:        11066.0 ave       11928 max       10173 min
Histogram: 2 2 2 5 6 5 4 0 1 5

Total # of neighbors = 354112
Ave neighs/atom = 88.528000
Neighbor list builds = 89
Dangerous builds = 32

# Equilibrate just above the melting temperature to avoid step fn in T

fix 1 all npt temp 1.25 1.25 0.1 iso 5.68 5.68 0.5 mtk yes tchain 5 pchain 5
run 1000
Per MPI rank memory allocation (min/avg/max) = 3.661 | 3.661 | 3.661 Mbytes
Step Temp E_pair E_mol TotEng Press Volume 
    1000    2.3672823   -4.4702836            0  -0.92024792    5.6050301    5163.6463 
    1100    1.9569734    -4.706111            0   -1.7713848    5.4657034    5011.4174 
    1200    1.7262382   -4.9667701            0   -2.3780602    5.5966981    4817.3008 
    1300     1.587552    -5.220701            0   -2.8399684    5.6758355    4663.7229 
    1400    1.4738799   -5.4342144            0   -3.2239472    5.4755949    4569.2977 
    1500    1.3534378   -5.5295528            0   -3.4999037    5.6215529    4496.5144 
    1600    1.2908728   -5.6315259            0   -3.6957007    5.7257345     4433.469 
    1700    1.2788408   -5.7494795            0   -3.8316978    5.6735232     4386.563 
    1800     1.254965   -5.8228809            0   -3.9409041    5.4759615    4370.1173 
    1900     1.226926   -5.8280252            0   -3.9880963    5.6657418    4349.5824 
    2000    1.2829323   -5.8566878            0   -3.9327705    5.6371083    4341.9677 
Loop time of 0.25072 on 32 procs for 1000 steps with 4000 atoms

Performance: 689216.250 tau/day, 3988.520 timesteps/s
99.7% CPU use with 32 MPI tasks x no OpenMP threads

MPI task timing breakdown:
Section |  min time  |  avg time  |  max time  |%varavg| %total
---------------------------------------------------------------
Pair    | 0.13173    | 0.13771    | 0.14397    |   0.8 | 54.93
Neigh   | 0.022415   | 0.023161   | 0.023974   |   0.2 |  9.24
Comm    | 0.059997   | 0.0675     | 0.074579   |   1.3 | 26.92
Output  | 0.00018945 | 0.00019489 | 0.00025171 |   0.0 |  0.08
Modify  | 0.017978   | 0.019912   | 0.023053   |   0.9 |  7.94
Other   |            | 0.002241   |            |       |  0.89

Nlocal:        125.000 ave         131 max         119 min
Histogram: 2 3 5 2 4 4 3 2 3 4
Nghost:        1848.94 ave        1863 max        1828 min
Histogram: 1 0 1 1 3 11 7 3 2 3
Neighs:        13168.5 ave       13949 max       12671 min
Histogram: 5 6 5 1 3 2 3 4 1 2

Total # of neighbors = 421393
Ave neighs/atom = 105.34825
Neighbor list builds = 75
Dangerous builds = 6


# Small amount of linear quench

fix 1 all npt temp 1.25 ${temp} 0.1 iso 5.68 5.68 0.5 mtk yes tchain 5 pchain 5
fix 1 all npt temp 1.25 1.34 0.1 iso 5.68 5.68 0.5 mtk yes tchain 5 pchain 5
run 2000
Per MPI rank memory allocation (min/avg/max) = 3.661 | 3.662 | 3.662 Mbytes
Step Temp E_pair E_mol TotEng Press Volume 
    2000    1.2829323   -5.8566878            0   -3.9327705    5.6371083    4341.9677 
    2100    1.2382392   -5.8497447            0   -3.9928502    5.6943387    4338.5633 
    2200    1.2552146   -5.8707557            0   -3.9884046    5.5422626    4343.9411 
    2300    1.2846378   -5.8456799            0   -3.9192049    5.6992289    4342.1262 
    2400    1.2610581   -5.8298063            0    -3.938692    5.8150054    4336.6036 
    2500    1.2797214   -5.7916911            0   -3.8725889    6.1281374    4327.1223 
    2600      1.26886   -5.8178036            0   -3.9149895     5.653802    4354.7177 
    2700    1.2726223   -5.8158085            0   -3.9073523    5.4410929    4377.4062 
    2800    1.2716197   -5.8516349            0   -3.9446822    5.3604756    4366.2115 
    2900    1.2868181   -5.8115793            0   -3.8818347     5.612296    4363.2996 
    3000    1.3167483    -5.798808            0   -3.8241793    5.7395276    4359.1771 
    3100    1.3050789     -5.78002            0   -3.8228911    5.7791692    4364.5765 
    3200    1.2980321   -5.7512403            0   -3.8046789    5.7756973    4377.9041 
    3300    1.3028816   -5.7587827            0   -3.8049489    5.5752328    4395.5786 
    3400    1.2866284   -5.7242005            0   -3.7947404    5.6878605    4397.6088 
    3500    1.3285351   -5.7009667            0   -3.7086622    5.9256406    4387.6425 
    3600    1.3368488   -5.7288975            0   -3.7241257    5.9269985    4375.0621 
    3700    1.3185739    -5.722577            0   -3.7452105    5.9291517    4378.2092 
    3800    1.3041358   -5.7126617            0   -3.7569471    5.3878727     4429.813 
    3900    1.3258096   -5.7127753            0   -3.7245581    5.3353042    4437.3032 
    4000    1.3285879   -5.6884644            0   -3.6960807    5.4924412    4430.1449 
Loop time of 0.513104 on 32 procs for 2000 steps with 4000 atoms

Performance: 673547.511 tau/day, 3897.844 timesteps/s
99.7% CPU use with 32 MPI tasks x no OpenMP threads

MPI task timing breakdown:
Section |  min time  |  avg time  |  max time  |%varavg| %total
---------------------------------------------------------------
Pair    | 0.27996    | 0.28681    | 0.29668    |   0.7 | 55.90
Neigh   | 0.041991   | 0.042764   | 0.044209   |   0.3 |  8.33
Comm    | 0.12552    | 0.13833    | 0.14522    |   1.2 | 26.96
Output  | 0.00039951 | 0.00040878 | 0.00053191 |   0.0 |  0.08
Modify  | 0.036351   | 0.039801   | 0.044152   |   1.1 |  7.76
Other   |            | 0.004983   |            |       |  0.97

Nlocal:        125.000 ave         134 max         117 min
Histogram: 3 2 4 4 5 4 2 5 2 1
Nghost:        1837.84 ave        1855 max        1821 min
Histogram: 2 3 2 2 4 8 6 3 1 1
Neighs:        12899.2 ave       13955 max       12005 min
Histogram: 4 2 3 4 5 3 6 2 2 1

Total # of neighbors = 412773
Ave neighs/atom = 103.19325
Neighbor list builds = 135
Dangerous builds = 0

#############################
# F R E E Z E  S Y S T E M  #
#############################

# Define solid atoms. This closely follows ten Wolde  Ruiz-Montero and Frenkel  Faraday Discuss  1996  104  93-110
# Compute components of the per-atom q6 vector
compute q6 all orientorder/atom degrees 1 6 components 6 nnn NULL cutoff 1.3 # compute the Q6 parameter.
                                                                             # Use all neighbours within 1.3 unit cell.

# get number of connections
compute coord_number all coord/atom orientorder q6 0.5

# An atom is solid if it has 8 or more connections (of a possible 14)
variable is_solid atom c_coord_number>=8
group solid dynamic all var is_solid    # Must be dynamic to update
dynamic group solid defined

# do clustering
compute cluster solid cluster/atom 1.3 # Create a cluster where all atoms within are solid and max 1.3 units from another member

# define chunks one chunk per cluster
compute clus_chunks solid chunk/atom c_cluster nchunk every compress yes  # Says which atoms are in which chunk

# count the size of each chunk
compute size_chunks solid property/chunk clus_chunks count


# Find the maximum entry in the vector of chunk sizes
variable max_n equal max(c_size_chunks)


# Thermo style which includes this variable
thermo_style custom step temp pe vol v_max_n

thermo ${N}  # Print the thermo information every 100 steps
thermo 100  

# Reset the npt fix at a lower temperature (below freezing)
fix 1  all npt temp  ${temp} ${temp}  0.1  iso  5.68  5.68  0.5  mtk yes tchain  5  pchain  5
fix 1  all npt temp  1.34 ${temp}  0.1  iso  5.68  5.68  0.5  mtk yes tchain  5  pchain  5
fix 1  all npt temp  1.34 1.34  0.1  iso  5.68  5.68  0.5  mtk yes tchain  5  pchain  5

dump dmp2 all dcd ${N} traj_${rand}.dcd
dump dmp2 all dcd 100 traj_${rand}.dcd
dump dmp2 all dcd 100 traj_462431.dcd


# fix rnuntil all halt ${N} v_max_n >= 3980 error soft message no   # Stop when solidified


run 100000 # 5000000  # Run for this many steps
Neighbor list info ...
  update every 1 steps, delay 10 steps, check yes
  max neighbors/atom: 2000, page size: 100000
  master list distance cutoff = 3.8
  ghost atom cutoff = 3.8
  binsize = 1.9, bins = 9 9 9
  4 neighbor lists, perpetual/occasional/extra = 1 3 0
  (1) pair lj/cut, perpetual
      attributes: half, newton on
      pair build: half/bin/atomonly/newton
      stencil: half/bin/3d
      bin: standard
  (2) compute orientorder/atom, occasional
      attributes: full, newton on
      pair build: full/bin/atomonly
      stencil: full/bin/3d
      bin: standard
  (3) compute coord/atom, occasional
      attributes: full, newton on
      pair build: full/bin/atomonly
      stencil: full/bin/3d
      bin: standard
  (4) compute cluster/atom, occasional
      attributes: full, newton on
      pair build: full/bin/atomonly
      stencil: full/bin/3d
      bin: standard
Per MPI rank memory allocation (min/avg/max) = 9.421 | 9.426 | 9.430 Mbytes
Step Temp PotEng Volume v_max_n 
    4000    1.3285879   -5.6884644    4430.1449            1 
    4100    1.3337735   -5.6949948    4415.5926            1 
    4200     1.348351   -5.7011172    4384.2917            2 
    4300    1.3608667   -5.6682485    4395.6625            2 
    4400    1.3226625   -5.6958769    4418.7533            3 
    4500     1.322068    -5.708347    4414.3758            2 
    4600    1.3332793   -5.6670611    4429.2239            1 
    4700     1.330925   -5.6789858    4421.7697            2 
    4800    1.3378048   -5.6991209    4391.7937            2 
    4900    1.3597882   -5.7292395    4402.2999            2 
    5000    1.3265705   -5.6695992    4427.8541            4 
    5100     1.342656   -5.7008959    4415.0639            2 
    5200    1.3445906   -5.7069628    4402.5545            3 
    5300    1.3460723   -5.7039449    4413.2187            4 
    5400    1.3451577    -5.696396    4435.2315            3 
    5500    1.3478007   -5.7061494    4433.6836            2 
    5600    1.3401055   -5.6987929    4405.5107            2 
    5700    1.3312566   -5.7183055    4392.4199            3 
    5800    1.3356153   -5.6922589    4410.9903            3 
    5900    1.3509639    -5.689444    4423.9745            2 
    6000    1.3023222   -5.6699795    4435.2744            2 
    6100    1.3502924   -5.7116007    4409.1113            2 
    6200    1.3683133   -5.6958207    4400.9985            2 
    6300    1.3497361   -5.6770044    4412.6872            3 
    6400    1.3177394   -5.7164156    4405.1382            3 
    6500    1.3549436   -5.7337275    4413.5027            3 
    6600    1.3630767   -5.6851635    4431.4864            2 
    6700    1.3312706   -5.6749942    4418.6243            1 
    6800    1.3106869   -5.7043253    4391.8623            4 
    6900     1.340078   -5.7477194    4403.3106            2 
    7000    1.3292063   -5.6976415    4424.6678            2 
    7100    1.3280062   -5.6851318    4422.6338            5 
    7200    1.3631735   -5.6762651    4431.7686            3 
    7300    1.3615923   -5.6628215    4410.9935            3 
    7400    1.3679359   -5.7327064    4416.8003            5 
    7500    1.3208833   -5.7143151    4418.7816            3 
    7600    1.3778835   -5.7116091    4420.0409            3 
    7700    1.3380079   -5.6643988    4414.9329            3 
    7800    1.3051303    -5.691086    4410.3396            4 
    7900    1.3439769   -5.7064386    4410.3402            2 
    8000    1.3617192   -5.7191326    4398.9967            2 
    8100    1.3324786   -5.7036886    4408.3862            2 
    8200     1.355301   -5.6801245     4431.242            6 
    8300    1.3350009   -5.6853328     4430.376            3 
    8400    1.3305938   -5.6735207    4415.1473            4 
    8500    1.3364795   -5.7047427    4405.9299            5 
    8600    1.3325061   -5.6475236    4428.3719            3 
    8700    1.3491427   -5.6600184    4423.3448            3 
    8800    1.3492554   -5.6806736    4415.4003            1 
    8900    1.3355468   -5.6940449    4412.1696            1 
    9000    1.3140941   -5.7034557    4421.8016            2 
    9100    1.3355727   -5.7144934    4414.4898            2 
    9200    1.3411242   -5.6836553    4391.8804            1 
    9300    1.3519556   -5.6585389    4401.3997            2 
    9400    1.3803084   -5.6654629    4424.9895            3 
    9500    1.3417471   -5.6959535    4403.3951            2 
    9600    1.3431955    -5.720272    4414.8556            2 
    9700    1.3485158   -5.7472091    4425.5219            2 
    9800    1.3542178   -5.7319057    4401.2218            2 
    9900    1.3725264    -5.697171    4401.8314            4 
   10000    1.3358443   -5.7009101    4416.3595            2 
   10100    1.3358231   -5.6552963     4432.991            2 
   10200    1.3349599   -5.6522207    4436.9332            2 
   10300     1.310826   -5.6601823    4400.3635            2 
   10400    1.3387375   -5.6864358    4396.0651            1 
   10500    1.3527093   -5.7063992    4404.4545            5 
   10600    1.3130646   -5.6974018    4410.8286            5 
   10700    1.3427451   -5.6872211    4412.7185            3 
   10800    1.3519245   -5.6493136    4431.9037            5 
   10900    1.3682572   -5.6489082    4431.4206            1 
   11000    1.3309216   -5.6866737    4425.6908            3 
   11100    1.3419378   -5.7183394    4430.9173            2 
   11200    1.3174919   -5.7221231    4393.0245            7 
   11300    1.3564902    -5.720744    4386.5801            2 
   11400     1.335447   -5.6890495    4397.7746            2 
   11500    1.3333424   -5.7085977     4418.555            5 
   11600    1.3432609   -5.7192223    4408.5244            2 
   11700      1.35063   -5.7046164    4398.3868            4 
   11800    1.3583679   -5.6775981    4430.8907            5 
   11900    1.3313546   -5.7117813    4422.5782            1 
   12000    1.3087212   -5.7150038    4429.3481            2 
   12100    1.3531442   -5.6951578    4410.4858            2 
   12200    1.3592767   -5.7269067    4397.9124            2 
   12300    1.3122594     -5.70434     4390.196            2 
   12400    1.3421246   -5.7167487    4408.4134            2 
   12500    1.3194595   -5.6857018    4422.1616            3 
   12600    1.3599844   -5.7109019    4407.0706            3 
   12700    1.3262814   -5.7068353    4410.3003            2 
   12800    1.3573241   -5.6929151    4391.5899            2 
   12900    1.3242893   -5.6732034    4421.4543            2 
   13000    1.3216859   -5.6813925    4436.7391            2 
   13100    1.3416639   -5.7214059    4418.6225            3 
   13200    1.3597846   -5.7192939     4401.123            4 
   13300    1.3217425   -5.6872015    4419.3116            2 
   13400    1.3162292   -5.7087047    4413.7569            4 
   13500    1.3512757   -5.7072618     4405.581            2 
   13600    1.3292297   -5.6664779    4417.4129            2 
   13700    1.3691146   -5.6880685    4414.7698            3 
   13800    1.3215805   -5.6960204    4402.6782            7 
   13900    1.3423259   -5.6850653    4411.0795            3 
   14000    1.3652404   -5.6883241    4430.1565            4 
   14100    1.3507462   -5.6508243    4429.4896            2 
   14200    1.3330001   -5.6919372    4410.5941            2 
   14300    1.3409511   -5.7154145    4396.3292            2 
   14400    1.3280409   -5.7220957    4395.1042            2 
   14500    1.3354904   -5.6904709    4417.5656            3 
   14600    1.3550629   -5.6810781    4422.4618            3 
   14700    1.3257289   -5.7122356    4398.1751            5 
   14800    1.3324025   -5.6707161    4417.9192            2 
   14900    1.3448892   -5.6602887    4414.4427            2 
   15000    1.3315432   -5.7005804    4414.5872            2 
   15100    1.3661553   -5.6826353    4417.0313            2 
   15200    1.3279439   -5.6982457    4398.9047            3 
   15300    1.3473167   -5.7500734    4395.5196            4 
   15400    1.3218046   -5.7309552    4403.5523            4 
   15500    1.3466221   -5.7252188     4409.318            2 
   15600    1.3164357   -5.7505951    4409.3964            3 
   15700    1.3067777   -5.7394877     4395.996            4 
   15800     1.354563    -5.728765     4408.046            3 
   15900    1.3660826   -5.7194102    4398.2654            4 
   16000    1.3059979   -5.7000471    4386.0013            2 
   16100    1.3188201   -5.6660767    4398.2838            3 
   16200    1.3437396   -5.6891753    4409.5201            3 
   16300    1.3336613   -5.7030953    4426.4911            2 
   16400    1.3296728   -5.7341293    4407.1879            5 
   16500    1.3258866   -5.7096987    4391.9925            4 
   16600    1.3550303   -5.6882985    4425.5163            3 
   16700    1.3245027   -5.6831771    4420.3756            3 
   16800    1.3507337   -5.6655918    4415.1867            3 
   16900    1.3468649   -5.6670109    4417.8149            2 
   17000    1.3365641   -5.7054162    4415.2547            2 
   17100    1.3075612   -5.7284152    4415.6441            4 
   17200    1.3398261   -5.7066414    4406.1901            7 
   17300    1.3451597   -5.6569188    4416.7461            3 
   17400     1.357257   -5.6981304    4396.5187            2 
   17500    1.3307679   -5.7212123    4390.9624            2 
   17600    1.3510884   -5.7015577    4394.5743            3 
   17700    1.3493607    -5.639679    4435.3416            1 
   17800     1.347022   -5.6600093    4406.7187            3 
   17900    1.3433174   -5.6915331    4397.0039            1 
   18000    1.3419636   -5.7551363    4406.8854            2 
   18100    1.3368819   -5.7350753    4422.4458            3 
   18200    1.3499769   -5.7075184    4421.8591            3 
   18300    1.3607011   -5.6779769      4407.65            4 
   18400    1.3523581   -5.6966501    4394.7476            1 
   18500    1.2905676    -5.694367    4398.3954            4 
   18600    1.3243194   -5.6887184    4414.0073            5 
   18700    1.3245603   -5.6567845    4417.6649            5 
   18800    1.3624485   -5.7118211    4404.5477            2 
   18900     1.338391   -5.7096647    4384.1209            4 
   19000    1.3423218   -5.7035282    4412.0354            1 
   19100    1.3607893   -5.7123352     4411.074            2 
   19200    1.3232884   -5.7196613    4409.3843            2 
   19300    1.3415193   -5.7099591     4417.516            1 
   19400    1.3487103   -5.6575898    4422.7828            4 
   19500    1.3589395   -5.6740724    4417.0022            4 
   19600    1.3290603   -5.6928498    4391.4553            3 
   19700    1.3261563   -5.6886796      4415.52            2 
   19800    1.3529357   -5.7233195    4419.8508            1 
   19900    1.3351942   -5.7124839    4403.2608            3 
   20000    1.3001236   -5.7071623    4408.9017            3 
   20100    1.3573556   -5.7007324    4417.3776            4 
   20200    1.3440955    -5.718223    4413.4668            2 
   20300    1.3163591    -5.726519    4382.6258            2 
   20400    1.3544666   -5.7377879    4391.3164            3 
   20500    1.3458362   -5.7525154    4414.1988            3 
   20600    1.3300431   -5.6926686    4430.8575            3 
   20700    1.3651158   -5.6908442    4431.5022            2 
   20800    1.3675474   -5.7183981    4403.6039            4 
   20900    1.3486525   -5.7488477     4396.508            2 
   21000    1.3380871   -5.6941263    4417.8305            3 
   21100    1.3588474   -5.6927877    4421.2175            2 
   21200     1.313401   -5.6914371    4407.3956            4 
   21300    1.3565621   -5.7215602    4404.8177            5 
   21400    1.2936537   -5.6688052    4395.1699            3 
   21500    1.3295409   -5.7543057    4379.6383            2 
   21600    1.3164702   -5.6973251    4377.8549            3 
   21700    1.3427942   -5.7140327    4410.3165            3 
   21800    1.3303665   -5.6934287    4414.1918            3 
   21900    1.3448539    -5.706687    4414.0249            2 
   22000    1.3254379   -5.7414033      4399.44            2 
   22100    1.3414156   -5.7359545    4402.6195            2 
   22200    1.3210964   -5.7245879    4404.7749            3 
   22300    1.2921868   -5.7322986    4392.7041            2 
   22400    1.3499413   -5.7185702    4394.6623            2 
   22500    1.3485131   -5.6956869    4400.7749            3 
   22600    1.3281399   -5.6559419    4418.3824            3 
   22700    1.3276712   -5.6326581    4411.4076            2 
   22800    1.3516923   -5.7118987    4407.4919            2 
   22900    1.3078962   -5.7165903    4405.3516            2 
   23000     1.324424   -5.6892773    4418.6589            3 
   23100    1.3810566   -5.7014102    4394.6788            4 
   23200    1.3321323   -5.6933569    4406.1187            4 
   23300    1.3440298   -5.7038612     4419.909            3 
   23400    1.2884954   -5.6848361    4400.9097            4 
   23500    1.3439263    -5.670962    4400.1115            2 
   23600    1.3735335   -5.6721415    4412.9352            4 
   23700    1.3445763   -5.6979955    4408.8465            4 
   23800    1.3204551   -5.7048093    4404.6109            2 
   23900    1.3434084   -5.6909201    4404.1411            3 
   24000    1.3676549   -5.6688111    4430.6745            1 
   24100    1.3457096   -5.6884072    4415.8549            1 
   24200    1.3546641   -5.6814377    4406.1765            1 
   24300     1.301899   -5.6802866    4419.8219            2 
   24400    1.3427594   -5.7041272    4427.1471            2 
   24500    1.3684937   -5.7295797    4410.8922            2 
   24600    1.3319582   -5.7021457    4411.7672            4 
   24700    1.3478047     -5.70124    4419.6588            3 
   24800    1.3340518   -5.7238414    4429.1925            4 
   24900    1.3460567   -5.6783519     4439.063            3 
   25000    1.3624311   -5.7043895    4408.9518            2 
   25100    1.3437419   -5.6999046    4407.8555            2 
   25200    1.3448683   -5.6769685    4411.2332            2 
   25300    1.3278791    -5.710617    4402.5862            5 
   25400    1.3476534   -5.6720701    4413.6075            1 
   25500    1.3326516   -5.6984582    4413.6088            3 
   25600    1.3270564   -5.7518546    4408.8466            3 
   25700    1.3372672   -5.7248789    4413.8755            3 
   25800    1.3867193   -5.7147492    4407.0947            2 
   25900    1.3408647   -5.6775887    4403.9583            1 
   26000    1.3573448   -5.6662345    4412.4566            2 
   26100    1.3339526   -5.6555796    4436.2855            2 
   26200    1.3151173   -5.7063874    4431.4106            2 
   26300    1.3481517   -5.7094462    4419.3249            2 
   26400    1.3275391   -5.7161188    4406.0265            2 
   26500    1.3436038   -5.7498791    4383.1755            2 
   26600     1.349721   -5.7191628    4403.3959            3 
   26700    1.3224656   -5.6990939    4432.4625            2 
   26800    1.3355326   -5.6462365    4421.0036            4 
   26900    1.3589611   -5.7116343    4402.6867            2 
   27000    1.3467903   -5.7387633    4392.7818            2 
   27100    1.3227969   -5.6823424    4402.9958            3 
   27200    1.3609007   -5.6721635     4424.371            4 
   27300    1.3204909   -5.6797969    4413.5382            2 
   27400     1.346265   -5.6803786    4416.4984           11 
   27500    1.3408149   -5.7109854    4432.0204            3 
   27600    1.3181448   -5.7019048    4406.9461            3 
   27700    1.3292275   -5.6709442    4397.0496            2 
   27800    1.3620892   -5.6792797    4414.9282            4 
   27900     1.343416   -5.7053207    4427.2125            5 
   28000    1.3615905   -5.7059476    4421.6051            5 
   28100     1.317439   -5.6953352    4418.8964            2 
   28200    1.3716839   -5.7177244    4411.6638            2 
   28300    1.3320522   -5.6423208    4399.1739            2 
   28400     1.347878   -5.7112745    4389.3821            4 
   28500    1.3060226   -5.7266193    4418.6497            2 
   28600    1.3260792    -5.695878    4417.4952            3 
   28700    1.3519111   -5.7247907    4414.8778            3 
   28800    1.3200805   -5.6937259      4415.13            3 
   28900    1.3576407   -5.6906382    4434.1274            3 
   29000    1.3375672   -5.7078218    4415.3451            3 
   29100    1.3286183   -5.6890983    4410.0444            3 
   29200    1.3782551    -5.680063    4416.8944            6 
   29300    1.3453469   -5.6687566     4400.874            3 
   29400    1.3401992   -5.6791853    4403.1126            3 
   29500    1.3678242   -5.7050464    4406.3312            3 
   29600    1.3358248   -5.7233911     4392.385            2 
   29700    1.3386475   -5.7156432    4409.6881            5 
   29800    1.3478709   -5.6828425    4415.3825            2 
   29900    1.3406009   -5.7204853    4403.7016            3 
   30000    1.3200713   -5.7032522    4415.2862            3 
   30100    1.3479171   -5.7047599      4407.29            2 
   30200    1.3535515   -5.6939357    4403.2762            2 
   30300    1.3132328   -5.7071499    4405.4773            6 
   30400    1.3231686   -5.7101391    4402.9361            3 
   30500     1.343245   -5.6856321    4407.5008            2 
   30600    1.3220632   -5.7146536    4406.7117            2 
   30700    1.3297149   -5.7317914    4391.4913            3 
   30800    1.3526456   -5.6950717    4395.4341            1 
   30900    1.3379011   -5.7136442    4400.3886            2 
   31000    1.3298492   -5.7082818    4428.9206            3 
   31100    1.3481854   -5.6966062     4428.648            4 
   31200    1.3430069   -5.7334274    4410.6366            4 
   31300     1.351762   -5.7012699    4405.3462            2 
   31400    1.3412335   -5.6691008    4411.9544            2 
   31500    1.3369301   -5.6908734    4412.8914            2 
   31600     1.316831   -5.7060128    4399.2026            6 
   31700    1.3562568   -5.6972194    4420.2175            5 
   31800    1.3511146   -5.7064905    4406.4284            3 
   31900    1.3445177   -5.7313681    4378.8465            5 
   32000    1.3152069   -5.7024952    4422.7811            3 
   32100    1.3445704   -5.7550308     4417.515            4 
   32200    1.3104426   -5.7253319    4393.5252            2 
   32300    1.3460123   -5.7112893    4389.2448            2 
   32400     1.356781   -5.7062278    4406.1849            3 
   32500    1.3223123    -5.727471    4412.3231            2 
   32600    1.3265098   -5.7065854    4415.3537            2 
   32700    1.3302063   -5.6857618     4414.817            3 
   32800    1.3546143   -5.6855815    4396.9788            3 
   32900    1.3435556   -5.7105045    4388.1655            3 
   33000    1.3197517   -5.6840006    4422.8039            3 
   33100    1.3435716   -5.7141313    4412.6499            3 
   33200    1.3313484   -5.6967384      4394.74            3 
   33300    1.3545379    -5.665285    4416.0661            2 
   33400    1.3454778    -5.700728    4403.8044            3 
   33500    1.3202553   -5.7100848    4404.9306            4 
   33600    1.3347307    -5.715744    4399.0783            4 
   33700    1.3491943   -5.7141185    4411.3373            3 
   33800     1.372776   -5.6989821    4426.3095            2 
   33900    1.3305027   -5.6959233    4402.2764            2 
   34000    1.3000767   -5.6637778    4388.6125            3 
   34100      1.35462   -5.6689495    4404.3118            5 
   34200     1.325131   -5.6874582    4393.8683            3 
   34300    1.3495214   -5.7450971    4417.6598            2 
   34400    1.3238769   -5.6984579    4425.2619            4 
   34500    1.3387408    -5.703005    4430.1995            3 
   34600    1.3593266     -5.65013    4428.8176            2 
   34700    1.3270443   -5.6411924     4422.179            3 
   34800    1.3408652    -5.675196    4420.4527            2 
   34900    1.3492746   -5.6679917    4414.7698            2 
   35000    1.3440802   -5.6756428    4399.8957            2 
   35100    1.3586989   -5.6884517    4421.0082            2 
   35200    1.3145087   -5.6968503    4416.5583            4 
   35300    1.3422578   -5.6951603    4423.3726            3 
   35400    1.3504416    -5.691979    4424.1047            4 
   35500    1.3466641   -5.6924588      4412.81            3 
   35600    1.3430703   -5.6606603    4450.2064            4 
   35700    1.3180685   -5.6494124     4457.326            2 
   35800    1.3577331   -5.6816501    4428.9581            2 
   35900    1.3464639   -5.6519059    4416.7738            2 
   36000    1.3242395    -5.688169     4406.472            2 
   36100    1.3334035   -5.6876059    4415.8256            3 
   36200     1.352093   -5.6589822     4419.246            3 
   36300    1.3286022   -5.6800915    4404.8624            4 
   36400    1.3610024   -5.6844731    4406.4849            2 
   36500    1.3177503   -5.6572621    4412.3312            2 
   36600    1.3267502   -5.6970768    4422.5522            2 
   36700    1.3436566   -5.6604208    4422.1442            2 
   36800    1.3444328   -5.6806258     4413.165            2 
   36900    1.3200182   -5.7169866    4406.4283            3 
   37000    1.3457633   -5.7344886    4397.8102            3 
   37100    1.3466779   -5.6897964    4425.1898            8 
   37200    1.3290181   -5.6740688    4413.4182            1 
   37300    1.3488547   -5.7151505     4399.708            2 
   37400    1.3513574   -5.7215529    4413.5048            3 
   37500    1.3113367   -5.6755296    4417.9651            2 
   37600    1.3530297    -5.686318    4422.3216            2 
   37700    1.3559284   -5.6685339    4414.2901            2 
   37800    1.3329326   -5.7122563     4404.877            2 
   37900    1.3292835   -5.7131423    4403.8508            2 
   38000     1.324105   -5.7481221    4401.1875            3 
   38100    1.3549083   -5.7204281     4414.729            2 
   38200    1.3374715   -5.6748687     4419.905            4 
   38300    1.3765164   -5.6795842     4425.054            5 
   38400    1.3117135   -5.6471071    4436.2331            3 
   38500    1.3467649   -5.6575866    4447.8028            1 
   38600    1.3354443    -5.691142    4421.1128            3 
   38700    1.3415431   -5.7160638    4420.0774            4 
   38800    1.3646905   -5.6815857    4420.4063            2 
   38900    1.3672341   -5.6932697    4407.3625            1 
   39000    1.3212462   -5.6936151    4406.3726            2 
   39100     1.351473   -5.7090043     4420.734            3 
   39200    1.3443527   -5.6648498     4423.944            2 
   39300    1.3486767   -5.7061863    4401.0638            5 
   39400    1.3303058    -5.720896    4402.8715            5 
   39500    1.3525911   -5.7144741    4404.6599            2 
   39600    1.3259655   -5.7287704    4405.7116            2 
   39700    1.3267184   -5.7238392    4390.6693            1 
   39800    1.3462152   -5.6868479    4412.0231            3 
   39900    1.3164918   -5.6808906    4410.5737            3 
   40000    1.3193293   -5.7107413    4394.5543            4 
   40100    1.3442142   -5.6626185     4402.255            2 
   40200    1.3170973   -5.6765976    4417.2025            1 
   40300    1.3536721   -5.6787238    4444.2032            4 
   40400    1.3084905   -5.6532166    4424.8384            1 
   40500    1.3680543   -5.6778321    4413.3535            3 
   40600    1.3546155   -5.6339467    4402.2947            2 
   40700    1.3539599   -5.7247125    4401.4778            2 
   40800    1.3274776   -5.7535752    4408.7411            3 
   40900    1.3255526   -5.7172216    4415.1324            3 
   41000     1.346617   -5.7356227    4399.7578            2 
   41100    1.3397754   -5.6691583    4404.7023            2 
   41200    1.3435611   -5.6688221    4417.5808            3 
   41300    1.3133736   -5.6869639    4408.0947            2 
   41400    1.3515665   -5.7122565     4397.607            3 
   41500    1.3161729   -5.7225702    4402.1001            2 
   41600    1.3258926    -5.688939     4444.193            2 
   41700     1.336903   -5.6652988    4434.3509            4 
   41800    1.3417916   -5.6985175    4405.1067            3 
   41900    1.3387323   -5.7120098    4393.2912            8 
   42000    1.3642522   -5.6993151    4391.4213            4 
   42100    1.3326614    -5.730885    4396.4834            4 
   42200    1.3306799   -5.6911092    4420.3828            3 
   42300    1.3625202   -5.7008533    4414.1906            2 
   42400    1.3137298   -5.6926109    4416.2563            3 
   42500    1.3751402   -5.7331046    4422.6651            2 
   42600    1.3511479   -5.6471793    4424.7282            2 
   42700    1.3366422   -5.6618931    4401.3761            3 
   42800    1.3617657   -5.6935754    4400.1853            2 
   42900    1.3092987   -5.7158571     4422.413            2 
   43000    1.3379365   -5.7331866    4428.7992            2 
   43100    1.3509774   -5.6940588    4422.5507            2 
   43200    1.3382895   -5.7198517    4386.5135            3 
   43300    1.3385027   -5.7246233    4405.6521            6 
   43400     1.349346   -5.6836783    4406.2087            4 
   43500    1.3019385   -5.6725358    4412.5347            3 
   43600    1.3473971   -5.7339892    4398.9222            2 
   43700    1.3538274   -5.7276832    4389.0612            3 
   43800    1.3396807    -5.725319     4413.508            2 
   43900    1.3309154   -5.6692331    4432.9289            1 
   44000    1.3263162   -5.6882378    4410.0261            2 
   44100    1.3561564   -5.7382588    4395.8366            5 
   44200    1.3290109   -5.6566448    4382.3236            2 
   44300    1.3485605   -5.6535412    4419.7476            3 
   44400    1.3354714   -5.6659395    4425.0237            2 
   44500    1.3280011    -5.711792    4397.9228            4 
   44600    1.3382801   -5.7013653    4418.2778            5 
   44700    1.3283577   -5.6915699    4418.6278            3 
   44800    1.3281645   -5.6786551    4385.2614            1 
   44900    1.3497806   -5.7078679    4365.3898            2 
   45000    1.3701623   -5.7126566    4398.9145            1 
   45100    1.3340135   -5.6897076    4413.0048            1 
   45200    1.3264927   -5.6922842    4442.5186            2 
   45300    1.3506443   -5.7047413    4423.6038            5 
   45400    1.3482917   -5.7181624    4391.3505            5 
   45500    1.3624865   -5.7214591    4395.1802            2 
   45600    1.3316212   -5.7033146    4420.0817            6 
   45700    1.3183629    -5.710941    4410.7122            3 
   45800    1.3283601   -5.7170033    4404.7797            2 
   45900    1.3480442   -5.6939785    4413.7591            4 
   46000    1.3358518   -5.7211704    4412.4475            3 
   46100    1.3204032   -5.7120737    4413.1721            4 
   46200    1.3427167     -5.68981    4440.9879            1 
   46300    1.3458089   -5.6645374    4432.3411            2 
   46400    1.3337062   -5.6726082    4394.8037            2 
   46500    1.3605675   -5.6553772    4402.1909            2 
   46600    1.3502166   -5.6902046     4417.487            4 
   46700    1.3299573   -5.7089002    4408.5505            1 
   46800    1.3634984   -5.7104958    4412.6601            2 
   46900    1.3481009   -5.7037499    4417.1459            4 
   47000    1.3082083   -5.6936075    4400.0342            2 
   47100    1.3444465   -5.6827927    4405.5275            5 
   47200    1.3372695   -5.7325308    4407.0751            2 
   47300    1.3173398   -5.6988917    4408.9418            3 
   47400    1.3514957   -5.6844386     4406.463            2 
   47500    1.3483273   -5.7148945    4395.4709            3 
   47600    1.3287573   -5.6869091    4402.5375            1 
   47700    1.3412536   -5.6533776    4409.6296            2 
   47800    1.3060326   -5.6753395    4409.0848            3 
   47900    1.3171446   -5.7028048    4426.7291            2 
   48000    1.3518912   -5.7092897     4431.912            1 
   48100    1.3685159   -5.7202705    4393.8952            3 
   48200    1.3518453    -5.736097    4396.2756            3 
   48300     1.339868   -5.7323871    4390.5019            6 
   48400     1.330709   -5.7442983    4397.0142            2 
   48500    1.3293276   -5.7234014    4418.3698            2 
   48600     1.363177    -5.707869    4415.5628            3 
   48700    1.3359344   -5.7336632    4418.4166            6 
   48800    1.3351026   -5.6914161    4413.1975            4 
   48900    1.3843205   -5.6916943    4411.2069            3 
   49000    1.3547532   -5.6783085    4404.1236            4 
   49100     1.314455   -5.7075878    4409.3288            3 
   49200    1.3461186   -5.7333854    4418.0404            5 
   49300    1.3319627   -5.7213476    4405.9974            3 
   49400    1.3392786   -5.6650856    4399.2323            3 
   49500    1.3546124   -5.6892124    4409.5166            3 
   49600    1.3606033   -5.7355234    4413.1123            3 
   49700    1.3056999   -5.7213456    4411.5358            2 
   49800    1.3495874   -5.7369101    4409.2944            2 
   49900    1.2978833   -5.6940202    4405.9849            3 
   50000     1.357725   -5.6750434    4383.4383            4 
   50100    1.3566996   -5.6887557    4386.6478            4 
   50200    1.3173408   -5.7307781    4427.8067            2 
   50300    1.3361855   -5.7183019    4427.1724            2 
   50400    1.3247969   -5.6728321    4417.5408            2 
   50500    1.3348717   -5.6535206    4410.4158            2 
   50600     1.320285   -5.6928404    4406.4996            2 
   50700    1.3403416   -5.7096666    4407.2536            1 
   50800    1.3417754   -5.6509428    4420.0622            2 
   50900     1.347238   -5.7108734    4416.6342            5 
   51000     1.336676   -5.7654425    4409.5527            3 
   51100     1.348222   -5.7201847    4411.5879            5 
   51200    1.3622953   -5.6745435    4420.2909            1 
   51300     1.337923   -5.7025849    4393.4764            7 
   51400    1.3398892   -5.6693938     4386.268            5 
   51500    1.3382949   -5.6711055    4425.1397            1 
   51600    1.3280295   -5.6888447    4436.3986            7 
   51700    1.3599295   -5.7239269     4401.975            4 
   51800    1.3283076   -5.6639828    4412.7287            3 
   51900     1.346483   -5.6766004    4420.0718            2 
   52000    1.3311737     -5.73127    4404.0243            2 
   52100    1.3518227   -5.7188114    4418.2563            3 
   52200    1.3161612   -5.6909305    4432.9901            2 
   52300    1.3382496    -5.655942    4433.3565            1 
   52400    1.3520798    -5.709085     4407.932            3 
   52500    1.3439629   -5.7131635    4395.2267            3 
   52600    1.3542358   -5.6719729    4397.3965            4 
   52700    1.3427767   -5.6608903    4417.1739            3 
   52800    1.3313894   -5.6961547    4419.1113            1 
   52900    1.3322066   -5.7263606    4410.5319            1 
   53000    1.3193928   -5.7075641    4403.7148            3 
   53100    1.3426019   -5.6991622    4419.9507            4 
   53200    1.3636644   -5.6369248    4423.0114            4 
   53300    1.3379923   -5.6702874    4433.6441            2 
   53400    1.3421684   -5.7009166    4408.3531            1 
   53500    1.3567042   -5.7094874    4392.2137            1 
   53600    1.3383542   -5.7250172    4383.5044            2 
   53700    1.3264868   -5.7137932    4413.5653            2 
   53800    1.3274794   -5.7122732    4423.5802            3 
   53900     1.355628   -5.7146296    4411.3413            2 
   54000    1.3221143   -5.7017208    4408.2867            2 
   54100    1.3501544   -5.7457351    4392.2185            6 
   54200    1.3473214   -5.6874656    4404.1566            2 
   54300    1.3487417    -5.668027    4399.7148            2 
   54400    1.3256349   -5.6971964    4424.4565            2 
   54500    1.3585507   -5.6963697    4440.0993            3 
   54600    1.3348975   -5.7180821    4429.1589            4 
   54700    1.3415741   -5.7094496    4417.7933            3 
   54800     1.341035    -5.687029    4417.2495            4 
   54900    1.3354403   -5.7241098    4392.8141            2 
   55000    1.3392915   -5.7084687      4405.12            2 
   55100    1.3472949   -5.7361091    4402.8058            3 
   55200    1.3383239   -5.7242394    4410.8598            3 
   55300    1.3532632   -5.7267945    4412.6178            5 
   55400    1.3323476   -5.7366379     4414.889            2 
   55500    1.3541255    -5.691753     4428.344            3 
   55600    1.3411101     -5.67492    4404.7398            4 
   55700    1.3438753   -5.7054932    4400.5026            3 
   55800    1.3268678   -5.6919131    4412.7323            2 
   55900    1.3346785    -5.672135    4425.1271            4 
   56000     1.351614   -5.6844086    4402.8629            3 
   56100    1.3514923   -5.7065365    4400.7495            2 
   56200     1.356117   -5.6995125    4438.0521            3 
   56300    1.3424677   -5.6850975    4443.3268            5 
   56400    1.3337154   -5.7101865    4423.2987            2 
   56500    1.3283104   -5.6558589    4395.5477            4 
   56600    1.3611618   -5.7177822      4395.43            3 
   56700    1.3480938   -5.6887509    4434.7667            3 
   56800    1.3320216   -5.7014459     4428.102            6 
   56900    1.3309509   -5.7185067    4409.5924            4 
   57000    1.3696462   -5.7316534    4425.2322            2 
   57100    1.3567293   -5.6920075    4412.1377            5 
   57200    1.3495612    -5.710989      4401.23            2 
   57300     1.321903   -5.6804466    4413.6004            3 
   57400    1.3305539   -5.6943115     4416.984            4 
   57500    1.3163296     -5.70914    4408.4092            1 
   57600    1.3653736    -5.705094    4393.8887            4 
   57700    1.3069554   -5.6852775    4377.2833            2 
   57800     1.337873   -5.7091419    4407.1986            1 
   57900    1.3381157   -5.6912251    4422.9273            7 
   58000    1.3083627   -5.7230286    4409.9041            2 
   58100     1.330753   -5.6909772    4409.2937            2 
   58200    1.3735461   -5.7203482    4400.3037            3 
   58300    1.3530505   -5.7351823     4368.863            3 
   58400    1.3383497   -5.7193618    4398.1279            4 
   58500    1.3295772   -5.6782503     4431.367            3 
   58600    1.3382395   -5.6811755     4428.259            3 
   58700    1.3330222   -5.7058661    4414.4369            3 
   58800    1.3098528   -5.6996999    4413.1892            6 
   58900    1.3788895   -5.7251929    4421.8868            3 
   59000    1.3313174   -5.6858462    4425.8973            5 
   59100    1.3143958   -5.6744244     4425.618            3 
   59200    1.3223246   -5.7186066    4380.7056            3 
   59300    1.3531259    -5.712803    4385.1999            2 
   59400    1.3397819   -5.7021185    4396.7437            2 
   59500    1.3254033   -5.7095465    4398.4152            6 
   59600    1.3263272   -5.7033833    4408.8653            2 
   59700    1.3682066   -5.7509316    4399.6506            4 
   59800    1.3438902   -5.6772921    4434.3388            2 
   59900    1.3483005    -5.698118    4432.4324            4 
   60000    1.3403831    -5.701313     4397.041            4 
   60100    1.3429701   -5.7197155    4408.2758            2 
   60200    1.3576869   -5.7162001    4423.0161            1 
   60300    1.3284743    -5.713343    4409.5196            1 
   60400    1.3405312   -5.7190281    4399.2636            3 
   60500    1.3565307   -5.6673862    4412.4544            1 
   60600    1.3427472   -5.7059919    4399.9824            2 
   60700    1.3431331   -5.6922773    4410.9004            3 
   60800     1.331779   -5.7102427    4427.8192            4 
   60900    1.3300895   -5.7573177    4399.9871            4 
   61000    1.3450047   -5.7304574    4405.0787            5 
   61100    1.3509008   -5.6996661    4413.7205            7 
   61200    1.3177609   -5.7051144    4420.6747            4 
   61300    1.3218095   -5.7419546     4408.253            2 
   61400    1.3373331   -5.6853788    4402.6906            5 
   61500    1.3615712   -5.6578357    4403.8316            6 
   61600     1.361391   -5.6923271    4400.4438            3 
   61700    1.3301677   -5.7035011    4401.2575            2 
   61800    1.3201312   -5.6748967    4423.2485            3 
   61900    1.3345905   -5.6642986    4446.0097            3 
   62000    1.3446591   -5.6445654    4432.3887            2 
   62100    1.3381331    -5.679349    4404.5414            6 
   62200    1.3430258   -5.6767789    4392.3641            2 
   62300     1.297907   -5.6838555    4403.5329            2 
   62400    1.3394148    -5.697494    4406.6815            2 
   62500    1.3658094   -5.6963148     4414.775            2 
   62600    1.3485007   -5.7015851    4427.9173            3 
   62700    1.3163553   -5.6874081    4428.0183            4 
   62800    1.3418097   -5.6550803    4426.7911            4 
   62900    1.3660629   -5.6185718    4427.1321            6 
   63000    1.3554894   -5.6634565    4411.3429            7 
   63100    1.3435507   -5.7202031    4412.3654            2 
   63200    1.3220638   -5.7329573    4399.3035            4 
   63300    1.3485264   -5.7151671    4406.5938            7 
   63400     1.347843   -5.7171595    4396.9297            2 
   63500    1.2910008   -5.6989693    4401.7831            3 
   63600    1.3538986   -5.7265596    4402.5438            2 
   63700     1.370151   -5.7222669    4405.6011            3 
   63800     1.329722   -5.7305304    4401.0611            6 
   63900    1.3201128    -5.707452    4421.2744            2 
   64000    1.3471503   -5.6790477    4416.7691            3 
   64100    1.3502349   -5.7067783    4426.0246            3 
   64200     1.359403   -5.7025513    4426.1327            4 
   64300    1.3344813   -5.7078551    4423.8082            3 
   64400    1.3087413   -5.7224718    4405.2338            4 
   64500    1.3649893   -5.7318052     4395.928            2 
   64600    1.3489033   -5.6856998    4397.3586            1 
   64700    1.3371015   -5.6987116    4404.0844            3 
   64800    1.3348897   -5.6844081    4417.2017            1 
   64900    1.3566456   -5.7117043    4436.8888            3 
   65000    1.3257346   -5.7255652    4415.6289            2 
   65100    1.3553404   -5.6829065    4407.6311            3 
   65200    1.3440032   -5.6676333    4418.8132            2 
   65300    1.3273779   -5.6730819    4445.0492            4 
   65400    1.3436794   -5.7273925    4427.4432            3 
   65500    1.3741838   -5.6855234    4405.9033            2 
   65600    1.3344139   -5.6863155    4393.6476            3 
   65700    1.3341524   -5.6946528    4403.0872            3 
   65800    1.3215844   -5.6856671    4416.1568            5 
   65900    1.3447189   -5.7358337    4421.7861            3 
   66000    1.3312503   -5.7205419    4398.8479           11 
   66100    1.3487643   -5.7006308    4402.4812            4 
   66200    1.3428001   -5.6753327    4418.7423            4 
   66300      1.33617   -5.6545387    4425.2058            2 
   66400    1.3478495   -5.6821454     4423.467            4 
   66500    1.3231078   -5.6792314    4418.1891            2 
   66600    1.3364412   -5.7345331    4403.0857            3 
   66700    1.3495663   -5.6872249    4419.4093            3 
   66800    1.3539292   -5.6856982    4411.9693            3 
   66900    1.3162589    -5.689937    4388.1352            2 
   67000    1.3546254   -5.6985522    4410.4605            2 
   67100    1.3293543   -5.6801773    4420.8884            3 
   67200     1.308922    -5.693745    4406.5285            3 
   67300    1.3615034   -5.7312121    4395.3278            7 
   67400    1.3467759   -5.7187373    4407.7536            3 
   67500    1.3219129   -5.7411084    4416.3987            2 
   67600    1.3030071   -5.6911982     4417.498            3 
   67700     1.376511   -5.6922844    4399.1482            6 
   67800    1.3375223    -5.715796    4409.2431            4 
   67900    1.3266331   -5.6592492    4426.2087            2 
   68000    1.3329633   -5.6481801    4420.2609            3 
   68100      1.34906    -5.721696     4408.746            2 
   68200    1.3172214   -5.6839345    4414.3388            1 
   68300    1.3553512   -5.6932883    4417.5525            2 
   68400    1.3367624   -5.6802329    4402.6783            2 
   68500     1.331055   -5.6960887    4405.5287            2 
   68600    1.3396325   -5.7198287    4398.0105            2 
   68700    1.3599757   -5.7420865    4376.5475            3 
   68800    1.3230551   -5.7003048    4407.4957            2 
   68900    1.3148156   -5.6722061    4412.4177            2 
   69000    1.3189729   -5.6933739    4406.2273            2 
   69100    1.3642848   -5.6989703    4423.9534            2 
   69200    1.3667828   -5.7265999    4417.2062            4 
   69300    1.3227132   -5.7261537    4422.0322            2 
   69400    1.3334044   -5.6957228    4425.8971            4 
   69500    1.3511101   -5.6857407    4412.1944            3 
   69600    1.3621232   -5.7290863     4396.719            2 
   69700    1.3096674   -5.7181267    4398.6141            3 
   69800    1.3337863   -5.7115553    4410.6319            2 
   69900    1.3542585   -5.6932246    4400.0199            4 
   70000    1.3213121   -5.7012394    4404.7368            3 
   70100    1.3421378   -5.6817163    4432.6381            3 
   70200    1.3396937   -5.6936527    4413.2431            2 
   70300    1.3497936    -5.666988    4396.6022            3 
   70400    1.3404015   -5.7169669    4394.1918            2 
   70500    1.3328477   -5.7105103    4421.2404            2 
   70600     1.330858    -5.719406    4435.7752            6 
   70700    1.3444922   -5.7293447    4426.3009            6 
   70800    1.3320699   -5.6869281    4411.6191            5 
   70900    1.3618735   -5.6796478    4402.1315            2 
   71000     1.337027   -5.6798051    4405.1866            3 
   71100    1.3220399   -5.7137006    4383.9822            5 
   71200    1.3302353   -5.6993052    4409.0741            3 
   71300    1.3315311   -5.6833772    4407.7707            5 
   71400    1.3633484   -5.6485079    4393.5078            5 
   71500    1.3440151   -5.6257459     4427.022            3 
   71600    1.3123023   -5.6555632     4441.624            3 
   71700    1.3501355   -5.7068342    4417.2373            3 
   71800    1.3346212   -5.7161349    4405.0245            6 
   71900    1.3392159   -5.7058864     4399.199            2 
   72000    1.3618076   -5.6802908    4418.1617            3 
   72100    1.3235063   -5.6974392    4436.6525            2 
   72200     1.337037   -5.6819418    4420.3228            2 
   72300    1.3354143   -5.7169241    4410.4511            5 
   72400    1.3270095   -5.6492752    4419.7395            2 
   72500    1.3587043   -5.6583146    4419.7735            2 
   72600    1.3541201   -5.6837384    4415.0399            2 
   72700    1.3258475   -5.7119234    4418.3408            4 
   72800     1.312207   -5.7202513     4404.087            2 
   72900    1.3681702   -5.7414036    4424.4264            2 
   73000    1.3375828   -5.6947053    4418.6738            3 
   73100    1.3377073   -5.7484233    4392.6331            4 
   73200     1.328786   -5.7224022    4398.6068            3 
   73300    1.3318972   -5.7137456    4397.3641            2 
   73400    1.3728008   -5.7047509    4384.4414            3 
   73500    1.2976844   -5.6826666    4402.5821            2 
   73600    1.3295106   -5.7023082    4423.1539            2 
   73700    1.3049834   -5.7067492    4413.8756            1 
   73800    1.3550803   -5.7305598    4398.3534            3 
   73900    1.3364539   -5.6781281    4418.1381            2 
   74000    1.3536089   -5.7141987    4424.3966            3 
   74100    1.3208132    -5.730354    4411.5552            4 
   74200    1.3375891   -5.7220701    4410.6467            2 
   74300     1.360549   -5.7279984    4398.9371            4 
   74400    1.3406067   -5.7204219    4390.9854            3 
   74500    1.3233441   -5.6865141     4423.346            3 
   74600    1.3459506    -5.723082    4409.4075            4 
   74700    1.3445726   -5.7234658    4395.1846            4 
   74800    1.3648259   -5.7043303    4422.0054            3 
   74900    1.3258522    -5.698679    4437.5705            4 
   75000    1.2972048   -5.6999083    4430.6321            2 
   75100    1.3703208   -5.7175758    4398.3719            2 
   75200    1.3502949   -5.7223849    4402.0871            3 
   75300    1.3717821   -5.7184544    4409.4487            2 
   75400      1.30728   -5.6859696    4411.5585            2 
   75500     1.358494   -5.6898215    4413.8388            3 
   75600    1.3086273   -5.6770177    4432.9562            3 
   75700    1.3647643   -5.7168898    4426.9068            3 
   75800    1.3587614   -5.7238595    4403.7227            5 
   75900    1.3505033   -5.7140247    4410.5114            4 
   76000    1.3599337   -5.6827565    4438.9416            3 
   76100    1.3337185    -5.638084    4432.4356            7 
   76200    1.3341066   -5.6780659    4408.1209            2 
   76300    1.3397726   -5.6977574    4392.3763            2 
   76400    1.3443744   -5.6167823    4396.8634            3 
   76500    1.3351378   -5.6550562    4426.2934            3 
   76600    1.3315183   -5.6956763    4428.6238            5 
   76700    1.3394953   -5.7123671     4422.562            2 
   76800    1.3564092   -5.6770889    4424.9452            4 
   76900    1.3276591   -5.6987666    4413.2794            5 
   77000    1.3868988   -5.7087149    4407.8178            3 
   77100     1.345374   -5.6964091    4408.2014            2 
   77200    1.3124296   -5.7156047    4421.7136            6 
   77300    1.3427613   -5.6948836    4430.0499            4 
   77400    1.3558816    -5.706842    4416.8111            4 
   77500    1.3530549    -5.706995    4391.9062            2 
   77600    1.3363795   -5.6907391    4404.6769            2 
   77700    1.3373004   -5.6860471    4414.7525            3 
   77800    1.3845725   -5.6839791     4430.397            3 
   77900    1.3436211   -5.6968846    4436.6696            3 
   78000    1.3331143   -5.6967901    4430.7315            3 
   78100    1.3531832   -5.6793665    4435.2585            4 
   78200    1.3393659   -5.6824182    4412.9389            2 
   78300    1.3442146   -5.6851709    4407.7999            2 
   78400    1.3312397    -5.685277    4408.5939            2 
   78500    1.3351689   -5.6825348    4395.2255            1 
   78600    1.3333802   -5.6453842     4426.601            2 
   78700    1.3422573   -5.6502273    4427.8252            2 
   78800    1.3517666   -5.7027237    4404.6469            2 
   78900    1.3378862   -5.6980785    4416.4717            1 
   79000    1.3631684   -5.7216967    4416.5359            1 
   79100    1.3132469   -5.6879288    4412.9162            2 
   79200    1.3484701    -5.680106    4419.2746            3 
   79300    1.3511635   -5.6580256    4424.5158            4 
   79400    1.3424727   -5.6540412    4427.1013            3 
   79500    1.3117078   -5.6608644    4436.5516            2 
   79600    1.3439477   -5.6493366    4427.7529            4 
   79700    1.3248015   -5.6724333     4400.823            2 
   79800    1.3632212   -5.6965317    4411.6853            2 
   79900    1.3421589   -5.6987758    4407.5592            1 
   80000    1.3246678   -5.7119997    4402.2534            2 
   80100     1.348984    -5.685046    4394.8747            4 
   80200    1.3261105   -5.7066481    4399.5609            4 
   80300    1.3278769   -5.7326747    4389.9372            2 
   80400    1.3255728   -5.6956213    4438.4389            3 
   80500    1.3659226    -5.735291     4407.404            2 
   80600    1.3177395   -5.6994555     4395.674            5 
   80700    1.3486428   -5.6762303    4404.6776            1 
   80800     1.344377   -5.6752898    4421.4088            1 
   80900    1.3289848   -5.7036293    4395.2754            3 
   81000    1.3238483    -5.707942    4405.5582            3 
   81100    1.3201748   -5.6705991    4430.3637            2 
   81200    1.3574516   -5.6948464    4422.8317            2 
   81300    1.3550472   -5.6910868    4396.2269            2 
   81400    1.3145056   -5.6761583    4397.1767            2 
   81500    1.3455865   -5.6872217    4432.3118            2 
   81600    1.3614568   -5.6870866    4422.5995            2 
   81700    1.3397337   -5.6968401    4415.2301            3 
   81800    1.2933416    -5.677034    4404.6008            2 
   81900    1.3532359   -5.6746132    4397.5371            1 
   82000    1.3645184   -5.6575867     4418.583            1 
   82100    1.3262595   -5.6597989    4428.7615            1 
   82200    1.3525545   -5.7023767    4413.8167            3 
   82300    1.3453832   -5.7268487    4408.0956            5 
   82400    1.3123367   -5.7422912     4399.006            4 
   82500    1.3311833   -5.7195811    4408.1109            5 
   82600    1.3368527   -5.6936215    4414.2347            3 
   82700    1.3234993   -5.6880003    4420.7905            6 
   82800    1.3481591   -5.6880166    4415.5329            2 
   82900    1.3089104   -5.7075262    4401.7806            3 
   83000    1.3429672   -5.7394099    4404.5363            2 
   83100    1.3317334   -5.6653565    4421.1589            4 
   83200    1.3499637    -5.704813    4420.7328            2 
   83300    1.3289563   -5.7330018    4403.0394            3 
   83400    1.3356075   -5.6893728    4415.9188            3 
   83500    1.3423802   -5.6741874    4411.2583            2 
   83600    1.3302692   -5.6694773    4401.6526            5 
   83700    1.3254186    -5.725371    4406.6644            3 
   83800     1.320928   -5.7020767    4437.7885            2 
   83900    1.3364307   -5.7063004    4405.7103            2 
   84000    1.3504346   -5.6720836     4399.385            2 
   84100    1.3579402   -5.7102759     4402.521            1 
   84200    1.3337305   -5.7408401    4401.2253            2 
   84300    1.3625975   -5.7305312    4418.8332            1 
   84400    1.3336404   -5.6747894    4409.0666            6 
   84500     1.352205   -5.7275025    4381.0269            2 
   84600    1.3352022   -5.7026025    4406.9742            2 
   84700    1.3315655   -5.7475417    4413.3197            3 
   84800    1.3612408   -5.7111861    4408.7608            3 
   84900    1.3573284   -5.6889825    4417.0886            3 
   85000    1.3333502   -5.7183376      4410.49            2 
   85100    1.3345355   -5.7079933    4414.2057            4 
   85200    1.3549713   -5.6895348    4405.3658            1 
   85300    1.3335069   -5.6743955    4420.6285            4 
   85400    1.3716522   -5.7043879    4420.4386            3 
   85500    1.3103928   -5.6915888     4403.545            3 
   85600    1.3566068     -5.68316    4393.4742            5 
   85700    1.3653397   -5.7096174    4410.8695            2 
   85800    1.3213258   -5.6976496    4436.0569            2 
   85900    1.3407732   -5.6820301    4433.5473            2 
   86000    1.3428176   -5.7416771    4400.2564            2 
   86100    1.3342892   -5.7278338    4401.3036            2 
   86200    1.3531716   -5.6902583    4408.1451            2 
   86300    1.3156219   -5.6476764    4421.9153            1 
   86400    1.3575404   -5.6958656    4428.0933            4 
   86500    1.3466131   -5.6961339    4409.5323            2 
   86600    1.3472003   -5.7239875    4418.8406            2 
   86700    1.3053165   -5.7129484    4409.4563            3 
   86800    1.3550777   -5.7365213    4405.3043            4 
   86900    1.3869563   -5.6842342    4403.5066            1 
   87000    1.3535438   -5.7093351     4408.402            3 
   87100    1.3260868   -5.6980286    4421.0659            3 
   87200    1.3532761   -5.7082426    4434.6377            5 
   87300    1.3329916   -5.7145116    4382.0883            3 
   87400    1.3518395   -5.6958114    4384.7637            3 
   87500    1.3328788   -5.7069887    4415.8124            4 
   87600    1.3267588    -5.668738    4439.5905            2 
   87700    1.3558352   -5.6971948    4418.6314            2 
   87800    1.3589816   -5.7181882    4407.5517            6 
   87900    1.3633342   -5.6791018    4417.5381            3 
   88000    1.3480412   -5.7215728    4399.2376            2 
   88100    1.3450148   -5.7264688    4408.5284            3 
   88200    1.3440201   -5.7252931    4425.6258            5 
   88300    1.3145719   -5.7128511    4416.3075            3 
   88400    1.3529202   -5.6934474    4423.9691            4 
   88500     1.330703   -5.6858462    4415.7713            3 
   88600    1.3634008   -5.7038367    4398.2993            4 
   88700    1.3236197   -5.6801285    4400.8498            1 
   88800    1.3615722    -5.678938    4417.4269            3 
   88900    1.3246243   -5.6967046    4420.4012            4 
   89000     1.328202   -5.7138269    4415.6945            4 
   89100    1.3472526    -5.676748    4418.0557            7 
   89200    1.3584437   -5.6901485    4416.8253            2 
   89300    1.3594288   -5.6578325    4433.7593            4 
   89400    1.3503017   -5.6736282    4416.3101            2 
   89500    1.3266171   -5.7011203    4411.5999            5 
   89600     1.318923   -5.6470285    4419.5595            2 
   89700    1.3460942   -5.6822604    4421.2539            2 
   89800    1.3319527   -5.6956673    4416.1489            2 
   89900    1.3172517   -5.7400055    4406.9896            4 
   90000    1.3439983   -5.7010712    4415.3414            7 
   90100    1.3498568   -5.7105453    4411.2428            3 
   90200     1.329805   -5.6997787    4409.7571            1 
   90300     1.351901   -5.7080691    4421.0048            2 
   90400    1.3165566   -5.6916058    4399.5663            1 
   90500    1.3465347     -5.69278    4414.3854            2 
   90600    1.3397722   -5.6678266    4423.4949            2 
   90700    1.3106369   -5.6816906    4405.2985            2 
   90800    1.3202033   -5.6691795    4412.2444            1 
   90900    1.3385735   -5.6591411    4440.0304            2 
   91000    1.3544498   -5.6581787    4434.7538            3 
   91100     1.316607   -5.6585105    4417.5262            1 
   91200    1.3422058   -5.6734321    4407.5578            2 
   91300    1.3487781    -5.709537    4381.0818            2 
   91400    1.3318321   -5.7331422    4398.4011            2 
   91500    1.3305066   -5.6984286    4430.2852            1 
   91600    1.3477655   -5.6788675    4438.0254            3 
   91700     1.328036   -5.6733295    4426.5925            4 
   91800    1.3355841   -5.6865432    4407.4936            2 
   91900    1.3438195   -5.7033346    4386.5697            6 
   92000    1.3499666   -5.6945092    4411.1934            3 
   92100    1.3411676     -5.72287    4418.2632            3 
   92200    1.3363385   -5.7489135    4401.1599            4 
   92300    1.3483186   -5.7007006    4400.2904            2 
   92400    1.3811403   -5.6926481    4402.7105            4 
   92500     1.341272   -5.7056864     4413.592            2 
   92600    1.3270033   -5.6848745    4426.0192            1 
   92700    1.3505847   -5.6994065    4437.1182            4 
   92800    1.3432228   -5.7141165    4418.6438            5 
   92900    1.3381595    -5.695567    4407.9305            2 
   93000    1.3857669    -5.711516    4415.6691            2 
   93100    1.3314686   -5.6788556    4389.0383            2 
   93200    1.3242422   -5.7308835    4404.2224            3 
   93300    1.3426797   -5.7131967    4404.4935            7 
   93400    1.3068189   -5.7325453    4413.3351            3 
   93500    1.3458407   -5.7085317    4410.5369            3 
   93600     1.345382   -5.7223238     4390.232            2 
   93700    1.3326375   -5.7118062    4398.4827            3 
   93800    1.3350575   -5.6874712     4411.694            2 
   93900    1.3223465   -5.6788531    4408.9192            2 
   94000     1.335492   -5.7297393    4395.9002            4 
   94100    1.3334316   -5.6930017    4418.6568            4 
   94200     1.331146   -5.6540856    4431.6898            1 
   94300    1.3810498   -5.6500427    4422.8878            1 
   94400    1.3598581    -5.679774     4415.192            2 
   94500    1.3359499   -5.6964459    4422.0193            4 
   94600    1.3511119   -5.7149573    4420.1842            2 
   94700    1.3297122   -5.7190306    4410.6537            2 
   94800     1.341476   -5.7214961    4414.5491            5 
   94900    1.3566456   -5.6687153    4415.9877            2 
   95000    1.3415387   -5.6972603    4409.3148            2 
   95100     1.299171   -5.7132882    4405.0608            2 
   95200    1.3168902   -5.7712833    4404.5298            5 
   95300    1.3413884   -5.7309639    4417.8707            2 
   95400    1.3658596   -5.6959363    4407.4893            2 
   95500    1.3301874   -5.6888929    4394.8045            6 
   95600     1.298593   -5.6912282    4399.9368            2 
   95700    1.3409868   -5.6986509    4425.8206            2 
   95800    1.3277144   -5.7065349     4422.048            1 
   95900    1.3590131   -5.7387702    4390.5352            2 
   96000    1.3334187   -5.6987614    4399.5188            2 
   96100    1.3591915   -5.7044865    4421.4955            1 
   96200    1.3292985   -5.6858571    4404.2583            1 
   96300    1.3346542   -5.6935343    4402.2528            2 
   96400    1.3372917   -5.6694411    4421.6374            2 
   96500    1.3143913   -5.6970275    4392.8674            1 
   96600    1.3604557   -5.7296743    4392.9733            3 
   96700    1.3204562   -5.7309321    4400.7024            2 
   96800     1.331765   -5.7048988    4421.3467            2 
   96900    1.3242248   -5.7396762     4421.101            3 
   97000    1.3393332   -5.7022596    4398.0242            3 
   97100    1.3657853   -5.6862453    4391.6522            3 
   97200    1.3109594   -5.6698552    4401.2927            6 
   97300    1.3533544   -5.6896428    4426.3038            1 
   97400    1.3398773   -5.6903453    4427.3333            2 
   97500    1.3146682    -5.685785    4406.2156            3 
   97600    1.3560182   -5.6960231    4419.6689            3 
   97700    1.3438962   -5.7004955    4397.1086            3 
   97800    1.3399257   -5.6949867    4404.1313            4 
   97900    1.3556805   -5.6948334    4429.7552            2 
   98000    1.3201938   -5.6953341    4428.9864            4 
   98100    1.3218841    -5.662734    4425.2265            2 
   98200    1.3595983    -5.691518    4415.6513            2 
   98300    1.3721404   -5.7123238    4399.8342            2 
   98400    1.3248737     -5.71841    4402.8548            3 
   98500    1.3192675   -5.7144881    4406.3029            2 
   98600    1.3588604   -5.7411169    4404.4779            6 
   98700    1.3477187   -5.7184431    4419.9337            3 
   98800    1.3360955   -5.7340249    4405.1243            5 
   98900    1.3345803   -5.7328046    4412.5874            4 
   99000    1.3568811   -5.6968981    4414.9396            4 
   99100    1.3559368   -5.7282323      4408.43            3 
   99200    1.3261843   -5.7358877    4393.0166            1 
   99300    1.3391666   -5.7242439    4434.3375            3 
   99400    1.3379336   -5.6706695    4435.6465            2 
   99500    1.3074895    -5.689032     4418.967            5 
   99600    1.3082477   -5.6854589    4409.1368            2 
   99700    1.3605832   -5.6860133    4402.3705            1 
   99800    1.3545189   -5.7125123    4400.2467            1 
   99900    1.3148257   -5.7176938    4402.8659            1 
  100000    1.3176784   -5.7121488    4414.6814            2 
  100100    1.3410663   -5.6769907    4413.2563            2 
  100200    1.3907454   -5.7051395    4409.5444            3 
  100300    1.3379784   -5.6985449    4416.0331            3 
  100400     1.317122   -5.7210821     4412.369            5 
  100500    1.3650061   -5.6993565    4409.0855            5 
  100600    1.3479224   -5.7086538    4402.8026            4 
  100700    1.3509191   -5.7557638    4399.2865            5 
  100800    1.3404965   -5.7339169    4407.2804            3 
  100900    1.3446611   -5.6889842    4425.0735            6 
  101000    1.3378685   -5.7193448    4417.4064            2 
  101100    1.3260888    -5.719078     4404.681            1 
  101200    1.3518339   -5.6933537     4417.178            1 
  101300    1.3145989   -5.7041321    4406.5211            6 
  101400    1.3479158    -5.713803    4407.3291            3 
  101500    1.3558722   -5.7138929    4411.1137            2 
  101600    1.3107047   -5.7290586    4418.9707            2 
  101700    1.3268535   -5.7311381    4401.0307            4 
  101800    1.3460159   -5.6866794    4408.5906            3 
  101900    1.3557907   -5.6714151    4412.1334            4 
  102000    1.3108286   -5.6455384    4415.3381            2 
  102100     1.345317   -5.6705494    4411.6246            2 
  102200    1.3335745   -5.6644818    4419.7079            3 
  102300    1.3387282   -5.6836485    4392.3396            2 
  102400    1.3348648   -5.6708927    4403.4635            3 
  102500    1.3650166   -5.7071531    4408.0017            2 
  102600    1.3184924   -5.7069538     4426.565            3 
  102700    1.3433796   -5.7186781    4425.1381            2 
  102800    1.3541283   -5.7206894    4410.0678            6 
  102900    1.3117203   -5.6992898     4391.498            3 
  103000    1.3269802   -5.6644417    4407.6661            2 
  103100    1.3453574   -5.6766715     4415.453            2 
  103200    1.3153491   -5.6954331    4423.2541            2 
  103300    1.3395139      -5.7105    4391.2762            2 
  103400     1.339749   -5.6741588    4406.3814            3 
  103500    1.3288114   -5.6519593    4422.2174            2 
  103600    1.3421791   -5.6670341    4424.3768            2 
  103700    1.3192849   -5.6585459    4397.6472            2 
  103800    1.3294521   -5.6807832    4417.6686            1 
  103900    1.3501098   -5.6608757    4429.7651            2 
  104000    1.3313667   -5.7089385    4417.6982            2 
Loop time of 178.283 on 32 procs for 100000 steps with 4000 atoms

Performance: 96924.664 tau/day, 560.907 timesteps/s
99.7% CPU use with 32 MPI tasks x no OpenMP threads

MPI task timing breakdown:
Section |  min time  |  avg time  |  max time  |%varavg| %total
---------------------------------------------------------------
Pair    | 14.492     | 14.618     | 14.818     |   1.8 |  8.20
Neigh   | 2.1889     | 2.1972     | 2.2052     |   0.3 |  1.23
Comm    | 8.2455     | 9.7755     | 11.6       |  34.9 |  5.48
Output  | 3.8357     | 3.8363     | 3.8477     |   0.1 |  2.15
Modify  | 142.72     | 145.76     | 148.05     |  15.4 | 81.76
Other   |            | 2.095      |            |       |  1.18

Nlocal:        125.000 ave         136 max         119 min
Histogram: 2 6 8 4 6 3 1 1 0 1
Nghost:        1837.69 ave        1855 max        1822 min
Histogram: 3 4 2 5 3 3 5 2 2 3
Neighs:        12917.8 ave       14066 max       12369 min
Histogram: 7 3 8 4 3 2 2 2 0 1
FullNghs:      25838.5 ave       28112 max       24458 min
Histogram: 2 3 8 8 4 3 1 1 1 1

Total # of neighbors = 826832
Ave neighs/atom = 206.70800
Neighbor list builds = 6894
Dangerous builds = 1

#clear
#
#next RN
#
#jump SELF
Total wall time: 0:02:59
