
units lj                  # Use reduced LJ style units
atom_style atomic         # Uncharged point particles
atom_modify map hash      # Needed for indexing of clusters etc
                          # Used to be able to find where atoms are in relation to each other.

lattice fcc 1.0 spacing 1 1 1
Lattice spacing in x,y,z = 1.5874011 1.5874011 1.5874011
region box block 0 10 0 10 0 10 units lattice
create_box 2 box
Created orthogonal box = (0.0000000 0.0000000 0.0000000) to (15.874011 15.874011 15.874011)
  3 by 4 by 4 MPI processor grid
create_atoms 1 box
Created 4000 atoms
  using lattice units in orthogonal box = (0.0000000 0.0000000 0.0000000) to (15.874011 15.874011 15.874011)
  create_atoms CPU = 0.002 seconds
set type 1 type/fraction 2 0.44 78393
Setting atom values ...
  1760 settings made for type/fraction
mass 1 1.0
mass 2 1.0
pair_style lj/cut  3.5
pair_modify tail  yes
pair_coeff 1  1  1.0  1.0   # Intearaction between 1 and 1 set with epsilon = 1 and sigma = 1
pair_coeff 1  2  1.5  0.8
pair_coeff 2  2  0.5  0.88

write_data data.0
System init for write_data ...
Neighbor list info ...
  update every 1 steps, delay 10 steps, check yes
  max neighbors/atom: 2000, page size: 100000
  master list distance cutoff = 3.8
  ghost atom cutoff = 3.8
  binsize = 1.9, bins = 9 9 9
  1 neighbor lists, perpetual/occasional/extra = 1 0 0
  (1) pair lj/cut, perpetual
      attributes: half, newton on
      pair build: half/bin/atomonly/newton
      stencil: half/bin/3d
      bin: standard
WARNING: Not all mixed pair coeffs generated from mixing. Use write_data with 'pair ij' option to store all pair coeffs. (../write_data.cpp:312)


#############################
#   M E L T   S Y S T E M   #
#############################

velocity all create 2.4 2750902 mom yes dist gaussian # Assign velocities
                                                    # Temperature 2.4, random number seed, zero linear momentum
                                                                                # Gaussian distribution

timestep 0.002   # simulation timestep
thermo 1000       # output thermodynamic data every 1000 steps bf 100

# Define a fix  in this case with index 1 applied to all
# particles in the simulation. This fix is for simulations
# in the anisotropic NPT ensemble. Note that we use the MTK
# correction.
fix 1 all npt temp 2.4 2.4 0.1 iso 5.68 5.68 0.5 mtk yes tchain 5 pchain 5 # Use NPT ensemble
                                                                         # Set temperature and pressure and damping
                                                                         # Numbers of thermostats in chain and in barostat
run 10000          # run for 10000 steps
Per MPI rank memory allocation (min/avg/max) = 3.642 | 3.644 | 3.648 Mbytes
Step Temp E_pair E_mol TotEng Press Volume 
       0          2.4   -5.6445478            0   -2.0454478   -4.2010474         4000 
    1000    2.3896294   -4.9567799            0    -1.373232    5.8220783     3825.066 
    2000    2.4363227   -5.0109225            0   -1.3573521    5.7841175     3793.852 
    3000     2.378991   -4.9460328            0   -1.3784385    5.4094337    3855.8348 
    4000    2.4103838   -5.0532151            0   -1.4385434    5.4635974    3799.0843 
    5000    2.4123127   -5.0675795            0   -1.4500151     5.536304    3790.6169 
    6000    2.4004049   -5.0312567            0   -1.4315495    5.5628094    3804.3064 
    7000    2.3672817   -4.9923199            0   -1.4422851    5.4364254    3824.3878 
    8000    2.3684457   -5.0116611            0   -1.4598807    5.6694589     3807.843 
    9000     2.418152   -5.0471494            0   -1.4208282    5.9253134    3777.7787 
   10000    2.4207667   -5.0158007            0   -1.3855584    5.7379845     3804.012 
Loop time of 2.57345 on 48 procs for 10000 steps with 4000 atoms

Performance: 671471.921 tau/day, 3885.833 timesteps/s
99.6% CPU use with 48 MPI tasks x no OpenMP threads

MPI task timing breakdown:
Section |  min time  |  avg time  |  max time  |%varavg| %total
---------------------------------------------------------------
Pair    | 1.157      | 1.2204     | 1.368      |   3.7 | 47.42
Neigh   | 0.21252    | 0.22205    | 0.25066    |   1.4 |  8.63
Comm    | 0.69078    | 0.87727    | 0.95496    |   5.6 | 34.09
Output  | 0.00025274 | 0.00025891 | 0.00032521 |   0.0 |  0.01
Modify  | 0.21244    | 0.23806    | 0.28418    |   3.6 |  9.25
Other   |            | 0.01543    |            |       |  0.60

Nlocal:        83.3333 ave          93 max          73 min
Histogram: 4 1 4 3 7 6 12 3 4 4
Nghost:        1700.10 ave        1727 max        1658 min
Histogram: 1 1 2 3 5 7 12 10 6 1
Neighs:        10031.7 ave       11602 max        8459 min
Histogram: 3 3 3 5 8 10 9 1 4 2

Total # of neighbors = 481523
Ave neighs/atom = 120.38075
Neighbor list builds = 908
Dangerous builds = 216

# Equilibrate just above the melting temperature to avoid step fn in T

fix 1 all npt temp 1.25 1.25 0.1 iso 5.68 5.68 0.5 mtk yes tchain 5 pchain 5
run 2000
Per MPI rank memory allocation (min/avg/max) = 3.643 | 3.645 | 3.649 Mbytes
Step Temp E_pair E_mol TotEng Press Volume 
   10000    2.4207667   -5.0158007            0   -1.3855584    5.7379845     3804.012 
   11000    1.2286643    -7.051686            0   -5.2091502    5.4807393      3006.16 
   12000    1.2703423   -7.1318325            0   -5.2267954    5.8038333    2974.1175 
Loop time of 0.633899 on 48 procs for 2000 steps with 4000 atoms

Performance: 545196.853 tau/day, 3155.074 timesteps/s
99.6% CPU use with 48 MPI tasks x no OpenMP threads

MPI task timing breakdown:
Section |  min time  |  avg time  |  max time  |%varavg| %total
---------------------------------------------------------------
Pair    | 0.27438    | 0.30648    | 0.35149    |   2.7 | 48.35
Neigh   | 0.039586   | 0.04308    | 0.048059   |   0.7 |  6.80
Comm    | 0.18815    | 0.23343    | 0.26668    |   3.4 | 36.82
Output  | 5.1398e-05 | 5.3423e-05 | 6.8149e-05 |   0.0 |  0.01
Modify  | 0.040424   | 0.045899   | 0.049841   |   1.3 |  7.24
Other   |            | 0.004959   |            |       |  0.78

Nlocal:        83.3333 ave          91 max          77 min
Histogram: 3 4 9 5 5 9 4 5 3 1
Nghost:        2005.77 ave        2027 max        1979 min
Histogram: 1 2 5 3 5 11 9 3 7 2
Neighs:        12857.6 ave       14896 max       11404 min
Histogram: 4 5 7 6 9 9 3 4 0 1

Total # of neighbors = 617166
Ave neighs/atom = 154.29150
Neighbor list builds = 144
Dangerous builds = 10

#############################
# L I N E A R  Q U E N C H  #
#############################

# Define solid atoms. This closely follows ten Wolde  Ruiz-Montero and Frenkel  Faraday Discuss  1996  104  93-110
# Compute components of the per-atom q6 vector
compute q6 all orientorder/atom degrees 1 6 components 6 nnn NULL cutoff 1.3 # compute the Q6 parameter.
                                                                             # Use all neighbours within 1.3 unit cell.

# get number of connections
compute coord_number all coord/atom orientorder q6 0.5

# An atom is solid if it has 8 or more connections (of a possible 14)
variable is_solid atom c_coord_number>=8
group solid dynamic all var is_solid    # Must be dynamic to update
dynamic group solid defined

# do clustering
compute cluster solid cluster/atom 1.3 # Create a cluster where all atoms within are solid and max 1.3 units from another member

# define chunks one chunk per cluster
compute clus_chunks solid chunk/atom c_cluster nchunk every compress yes  # Says which atoms are in which chunk

# count the size of each chunk
compute size_chunks solid property/chunk clus_chunks count


# Find the maximum entry in the vector of chunk sizes
variable max_n equal max(c_size_chunks)


# Thermo style which includes this variable
# thermo_style custom step temp pe vol v_max_n

thermo ${N}  # Print the thermo information every 100 steps
thermo 1000  

# Reset the npt fix at a lower temperature (below freezing)
fix 1  all npt temp  ${temp} ${temp}  0.1  iso  5.68  5.68  0.5  mtk yes tchain  5  pchain  5
fix 1  all npt temp  0.45 ${temp}  0.1  iso  5.68  5.68  0.5  mtk yes tchain  5  pchain  5
fix 1  all npt temp  0.45 0.45  0.1  iso  5.68  5.68  0.5  mtk yes tchain  5  pchain  5

dump dmp2 all dcd ${N} traj.dcd
dump dmp2 all dcd 1000 traj.dcd


compute msd all msd com yes
variable twopoint equal c_msd[4]/6/(step*dt+1.0e-6)
fix 9 all vector 10 c_msd[4]
variable fit equal slope(f_9)/6/(10*dt)
thermo_style custom step temp pe c_msd[4] v_twopoint v_fit v_max_n

fix 1 all npt temp 1.25 ${temp} 0.1 iso 5.68 5.68 0.5 mtk yes tchain 5 pchain 5
fix 1 all npt temp 1.25 0.45 0.1 iso 5.68 5.68 0.5 mtk yes tchain 5 pchain 5
run 2000000 # 5000000  # Run for this many steps
Neighbor list info ...
  update every 1 steps, delay 10 steps, check yes
  max neighbors/atom: 2000, page size: 100000
  master list distance cutoff = 3.8
  ghost atom cutoff = 3.8
  binsize = 1.9, bins = 8 8 8
  4 neighbor lists, perpetual/occasional/extra = 1 3 0
  (1) pair lj/cut, perpetual
      attributes: half, newton on
      pair build: half/bin/atomonly/newton
      stencil: half/bin/3d
      bin: standard
  (2) compute orientorder/atom, occasional
      attributes: full, newton on
      pair build: full/bin/atomonly
      stencil: full/bin/3d
      bin: standard
  (3) compute coord/atom, occasional
      attributes: full, newton on
      pair build: full/bin/atomonly
      stencil: full/bin/3d
      bin: standard
  (4) compute cluster/atom, occasional
      attributes: full, newton on
      pair build: full/bin/atomonly
      stencil: full/bin/3d
      bin: standard
Per MPI rank memory allocation (min/avg/max) = 9.830 | 9.837 | 9.842 Mbytes
Step Temp PotEng c_msd[4] v_twopoint v_fit v_max_n 
   12000    1.2703423   -7.1318325 9.8075132e-31 6.8107728e-33 8.3333333e+20            2 
   13000    1.2453754   -7.1545793   0.45798382 0.0029357936  0.037893979            2 
   14000    1.2572702   -7.1411459    0.8479009  0.005047029  0.034362874            2 
   15000    1.2616319   -7.1250077    1.2452067 0.0069178149  0.033353166            1 
   16000    1.2263054   -7.0937632    1.6604063 0.0086479494  0.033404281            1 
   17000    1.2576991   -7.1618511    2.0586511  0.010091427  0.033678885            1 
   18000    1.2510142   -7.0963271    2.4444727  0.011317003  0.033262119            1 
   19000    1.2517286   -7.1076176    2.8929303  0.012688291  0.033401583            1 
   20000    1.2559506   -7.1821221    3.2962781  0.013734492  0.033674861            3 
   21000     1.243983   -7.1477448    3.7198725  0.014761398  0.033875613            2 
   22000    1.2629421   -7.1518789    4.1111533   0.01557255  0.033960678            2 
   23000      1.22527   -7.1197885    4.6326871  0.016785098  0.034198008            1 
   24000    1.2631674   -7.1721971    5.0667535  0.017592894   0.03456142            1 
   25000    1.2184293   -7.1429823     5.513116  0.018377053  0.034868011            3 
   26000    1.2529321   -7.1420889    5.9010245   0.01891354  0.035085454            1 
   27000     1.268649   -7.1748051    6.3168181  0.019496352  0.035129949            1 
   28000    1.2269582    -7.140902    6.6957619  0.019927862  0.035158391            1 
   29000    1.2512577   -7.1613424    7.0260563  0.020189816  0.035039054            2 
   30000    1.2423598   -7.0990028    7.4776602  0.020771278  0.034905747            1 
   31000    1.2241179   -7.1529391    7.8786654  0.021179208  0.034814179            2 
   32000    1.2576989   -7.1977691    8.2752941  0.021550245  0.034746492            2 
   33000    1.2648887   -7.1241841    8.8052341  0.022235439  0.034754296            2 
   34000    1.2615104   -7.1804778    9.1039417  0.022313582  0.034735478            1 
   35000    1.2201129   -7.1382265     9.504797  0.022630469  0.034667555            1 
   36000    1.2589572   -7.1818235    9.8290506  0.022752432  0.034593571            2 
   37000    1.2223125   -7.1685955    10.293071  0.023182592  0.034517496            1 
   38000    1.2395862   -7.2009478    10.593886  0.023232206  0.034432188            2 
   39000    1.2243393   -7.1557952    10.973089  0.023446771  0.034311384            2 
   40000     1.251141   -7.1879381    11.419496  0.023790616  0.034211707            4 
   41000    1.2368008   -7.1525823    11.714546  0.023810053  0.034109914            1 
   42000    1.2055721   -7.1767607    12.143927  0.024095092  0.034006245            1 
   43000    1.2529813   -7.2072541    12.500676  0.024226117  0.033891694            2 
   44000    1.2275555   -7.1523031     12.99732  0.024616137  0.033813214            2 
   45000    1.2048699   -7.2018463    13.360973  0.024742543  0.033760162            1 
   46000    1.2776463    -7.166189    13.767486  0.024941098  0.033696654            1 
   47000    1.2297374   -7.1524432    14.243088  0.025253701  0.033672757            1 
   48000    1.2414639   -7.1813149    14.583005  0.025317718  0.033657338            2 
   49000    1.2289756   -7.1850668    14.959156  0.025440741  0.033626155            1 
   50000     1.232125    -7.167495    15.268785  0.025447975  0.033586074            1 
   51000    1.2332716   -7.1499758    15.627079  0.025534443  0.033517697            2 
   52000    1.1985088   -7.1894383       16.041  0.025706731  0.033458199            1 
   53000    1.2213775   -7.1455762    16.468335  0.025893608  0.033403905            2 
   54000    1.2573099    -7.192061    16.740204  0.025833649  0.033346067            2 
   55000     1.231005   -7.1947413    17.292783  0.026201186  0.033309539            1 
   56000    1.2234065   -7.1247541    17.712842  0.026358396  0.033301899            1 
   57000      1.24914   -7.1544149    18.223211  0.026642121  0.033311594            2 
   58000    1.2612023   -7.1405284    18.652595  0.026799706  0.033324026            2 
   59000    1.1987233   -7.1705569     19.01815  0.026861794  0.033330384            1 
   60000     1.223982   -7.1909267    19.465323  0.027035171  0.033343467            1 
   61000    1.2169085   -7.1913103    19.769001  0.027006832  0.033346959            2 
   62000    1.2300055   -7.1408718    20.155388  0.027090575  0.033341291            1 
   63000    1.2374316   -7.1679626    20.604012  0.027253983  0.033339956            1 
   64000    1.2568061   -7.2014377     20.96649  0.027300117   0.03333823            3 
   65000    1.2479273   -7.2451905    21.366017  0.027392329  0.033335119            2 
   66000    1.2450823   -7.2384921     21.73055  0.027437563  0.033335477            1 
   67000    1.2454022   -7.1899023    22.247075  0.027670491  0.033341962            1 
   68000    1.2074175   -7.2134454    22.398886  0.027449615  0.033332975            3 
   69000    1.2250625   -7.2373052     22.69538  0.027409879  0.033304371            2 
   70000    1.2167117   -7.1707378    23.246682  0.027674621  0.033281793            2 
   71000    1.2139959   -7.1907189    23.667926  0.027779256  0.033267351            1 
   72000    1.2415768    -7.174849      24.1322  0.027930787  0.033261425            1 
   73000    1.2219462   -7.1929682    24.424137  0.027881435  0.033256417            6 
   74000    1.2482363   -7.2257234    24.796362   0.02792383  0.033242987            2 
   75000    1.2123125   -7.2337145    25.250455  0.028056061  0.033243015            3 
   76000    1.2279526   -7.2135087    25.660877  0.028136927  0.033241718            1 
   77000    1.2095726   -7.1958073     26.04107  0.028182976  0.033233937            1 
   78000    1.2140202   -7.2507623    26.480802  0.028291455  0.033224666            2 
   79000    1.2242107   -7.2423988    26.874822  0.028348968  0.033226237            1 
   80000    1.2315592   -7.1765733    27.373145  0.028513693  0.033227121            3 
   81000    1.1981868   -7.1837581    27.724224  0.028522864  0.033237361            4 
   82000    1.2293896   -7.2040514    28.089052  0.028545784  0.033242413            5 
   83000    1.2354317     -7.16337    28.705696   0.02882098  0.033250927            2 
   84000    1.2115539   -7.1695384    28.877405  0.028648219   0.03324806            2 
   85000     1.226453   -7.2034268     29.06532  0.028495412  0.033222366            2 
   86000    1.1984177   -7.2155686    29.500687  0.028585937  0.033203476            2 
   87000    1.2505974   -7.2336632    29.533105  0.028288415  0.033169264            2 
   88000    1.2310737   -7.2140109    30.016005  0.028424247  0.033132526            2 
   89000    1.1736148   -7.1568469    30.437342  0.028499384  0.033099873            2 
   90000    1.2269139   -7.1891891    30.791683  0.028510818  0.033071468            2 
   91000    1.2266321   -7.2007312    31.348227  0.028707168  0.033045717            2 
   92000    1.2410598   -7.2323135    31.724285  0.028735765  0.033027086            1 
   93000    1.2112351   -7.1941342    32.192355  0.028846196    0.0330111            2 
   94000    1.2198571   -7.2693422    32.412238  0.028734254   0.03299934            3 
   95000    1.2156229   -7.1923638    32.917248  0.028874778  0.032985013            1 
   96000    1.2068731   -7.2010039    33.390369  0.028984696  0.032971633            1 
   97000    1.1850936   -7.2105137    33.654796  0.028913054  0.032957416            3 
   98000    1.1991094   -7.2260132    34.028106  0.028935464  0.032938618            2 
   99000    1.2202098   -7.1973965    34.492158  0.029033803  0.032926596            2 
  100000    1.2392366   -7.1971142    35.058728  0.029215607  0.032916855            3 
  101000    1.2097539   -7.2133709    35.273174  0.029103279  0.032906951            1 
  102000    1.2010106   -7.2453326    35.469628  0.028978454  0.032896312            1 
  103000    1.2236062   -7.2404462    35.890603  0.029037704  0.032882013            4 
  104000     1.249024   -7.2475178    36.316972  0.029100138  0.032863804            2 
  105000    1.2131895   -7.2493149    36.687445  0.029117019  0.032850936            2 
  106000    1.2078089    -7.241198     36.99094  0.029080927  0.032830295            2 
  107000    1.2024889   -7.2417053    37.358786  0.029095628  0.032810442            2 
  108000     1.161016   -7.2440231    37.775661  0.029147887  0.032790161            2 
  109000    1.2014492   -7.2410171    38.035438  0.029079081  0.032771302            4 
  110000    1.2267501   -7.2525629    38.212289  0.028948704  0.032745869            4 
  111000    1.1999464   -7.2484902    38.731616   0.02907779  0.032719989            2 
  112000    1.2255868   -7.2496691    38.987877  0.029008837  0.032689626            1 
  113000     1.188659   -7.2720535     39.18497   0.02889747  0.032655232            4 
  114000    1.2164845   -7.2508019     39.52816  0.028894854  0.032615791            1 
  115000    1.1925896    -7.309554    39.873203  0.028893625  0.032578529            1 
  116000    1.2023843   -7.1851918     40.44633  0.029056271  0.032541523            2 
  117000    1.2179599   -7.2044798    40.828967  0.029080461  0.032508824            1 
  118000    1.2184027   -7.2206573    41.048364  0.028988957  0.032478538            2 
  119000    1.2077491   -7.2240783    41.661262  0.029174553  0.032451988            1 
  120000    1.2234595    -7.247006    41.953291   0.02913423  0.032431018            3 
  121000     1.226198   -7.2438149    42.216209  0.029074524  0.032407264            5 
  122000    1.2051588    -7.220149    42.758116  0.029206363  0.032385897            2 
  123000    1.2367978   -7.1862022    43.018406  0.029145261  0.032365633            2 
  124000    1.1978021   -7.2184557    43.515617  0.029244366  0.032342023            2 
  125000     1.178416   -7.2216031    44.044158  0.029362772  0.032326354            1 
  126000    1.2286276   -7.2405463    44.265414  0.029276067  0.032312598            1 
  127000    1.2083512   -7.2131565    44.686759   0.02932202   0.03229521            2 
  128000    1.2100525   -7.2774149    44.909299  0.029237825  0.032275262            1 
  129000     1.237375   -7.2340484    45.227912  0.029216997   0.03225194            1 
  130000    1.2106648    -7.249444    45.469254  0.029146958  0.032227475            2 
  131000      1.21809   -7.2188252    45.943129  0.029225909  0.032203728            1 
  132000    1.2271253   -7.2623061    46.200473  0.029166965  0.032180936            2 
  133000    1.2501391   -7.2813973    46.452119  0.029105338  0.032154464            2 
  134000    1.1750776   -7.2596866      46.7876  0.029096766  0.032122465            1 
  135000    1.1967021   -7.2695821    46.904625  0.028953472  0.032089933            1 
  136000    1.2144376   -7.2174142    47.326306  0.028998962  0.032054984            1 
  137000    1.1787777   -7.2215808    47.691699  0.029009549  0.032021082            2 
  138000    1.2103557   -7.2401434    47.878585  0.028912189  0.031987398            3 
  139000    1.1829416   -7.2902892    48.336962  0.028978994  0.031953632            1 
  140000    1.2339532   -7.2623271    49.080416  0.029214533  0.031925606            2 
  141000    1.1965976   -7.2864298    49.043611  0.028985586  0.031897717            2 
  142000    1.1946755   -7.2320092    49.349633  0.028961052  0.031868224            3 
  143000    1.1956338   -7.2968812    49.624886  0.028918931  0.031832263            1 
  144000    1.2094619   -7.2651553     50.16504  0.029030694  0.031799779            1 
  145000    1.2164648   -7.3346279    50.194666  0.028847509  0.031766394            3 
  146000    1.2033672   -7.2646847    50.932326  0.029070962  0.031736931            2 
  147000    1.1836882   -7.2493243     51.25413  0.029055629  0.031713793            1 
  148000    1.2084347   -7.2141661    51.791067  0.029161637  0.031689819            2 
  149000    1.1924502   -7.2638123    51.813266  0.028978336  0.031662474            2 
  150000    1.1796446   -7.2676846    52.399379  0.029110766  0.031632839            3 
  151000    1.1943915   -7.2368037    52.615021  0.029036987  0.031606357            2 
  152000    1.2204918   -7.2841372    53.080522  0.029101163  0.031579204            2 
  153000    1.1828813   -7.2718865    53.471345  0.029123826  0.031558631            2 
  154000    1.1859102   -7.2851887    53.801897  0.029113581  0.031538758            1 
  155000    1.2032512   -7.3071119    54.175148  0.029126424  0.031518799            1 
  156000    1.2028886   -7.3153706    54.484684  0.029105066  0.031499629            2 
  157000    1.1842776   -7.2885613    54.936916  0.029159722  0.031481934            3 
  158000    1.2025391   -7.2940353     55.35435  0.029195332  0.031463786            1 
  159000     1.219842   -7.2903401    55.535367  0.029106587  0.031444569            1 
  160000    1.1775872   -7.3289366    55.746705  0.029034742  0.031424108            1 
  161000    1.2105948   -7.2997595    56.287494  0.029134314  0.031405604            2 
  162000    1.2141866    -7.299941    56.781907    0.0292088   0.03138979            1 
  163000    1.1757238   -7.2557179    57.188983  0.029237721  0.031374709            2 
  164000    1.1892121   -7.2885098    57.416383  0.029174991  0.031356264            2 
  165000    1.1852346   -7.2991802    57.611378  0.029096655  0.031337119            4 
  166000    1.1682758   -7.2801131    57.902598  0.029067569  0.031319992            1 
  167000    1.1813197   -7.2992452    58.371206  0.029127348  0.031301116            1 
  168000    1.1804442   -7.3401369    58.595671  0.029065313    0.0312828            1 
  169000    1.2010607   -7.3681401    59.062093   0.02912332  0.031263332            1 
  170000     1.206863   -7.2941847    59.559654  0.029195909  0.031246486            2 
  171000     1.178733   -7.3130362    59.701723  0.029094407  0.031229785            5 
  172000    1.1821425   -7.3163664    59.966982   0.02905377  0.031210847            3 
  173000    1.2021623    -7.247463    60.220405  0.029007902  0.031187161            1 
  174000    1.2042338   -7.3085112    60.302436  0.028880477  0.031163071            2 
  175000    1.1850504   -7.3516812    60.853775  0.028977988  0.031139864            2 
  176000    1.1637944   -7.3293967    61.014805  0.028889586  0.031117839            2 
  177000     1.205323   -7.2820743    61.597929  0.029000908  0.031094606            1 
  178000    1.2026598   -7.2775548    61.976903  0.029015404  0.031072937            2 
  179000    1.1805994   -7.3454985     62.18592  0.028950615  0.031052523            2 
  180000    1.1897522   -7.3238974    62.611631  0.028986866  0.031029775            2 
  181000    1.1783224   -7.3095467    63.054522  0.029030627  0.031009938            2 
  182000    1.1620727   -7.2810634    63.867837  0.029243515  0.030994192            2 
  183000    1.1642729   -7.3216159    64.104784  0.029191614  0.030980874            1 
  184000    1.1850392   -7.3403233    64.126385  0.029042747  0.030966516            1 
  185000    1.1697774    -7.335086    64.614665  0.029105705  0.030952569            2 
  186000    1.1564998    -7.301761    64.988374  0.029116655    0.0309386            1 
  187000    1.1689677   -7.2889597    65.441289  0.029162785  0.030925851            1 
  188000    1.1463902   -7.3245955    65.768623  0.029152758  0.030911386            5 
  189000    1.1669421   -7.3382168    65.976747  0.029090276  0.030897143            1 
  190000     1.179009   -7.3590449    66.490341   0.02916243  0.030882836            1 
  191000    1.1752186   -7.2958656    66.840849  0.029162674  0.030869715            1 
  192000    1.1650212   -7.3129178    67.278121  0.029200573   0.03085619            1 
  193000    1.1719885   -7.3156406    67.695543  0.029229509  0.030845413            2 
  194000    1.1480435   -7.3423167    67.776329  0.029113543  0.030835128            2 
  195000     1.159761   -7.3054316    68.277489  0.029178414  0.030823495            1 
  196000    1.1779943   -7.2908087    68.668466  0.029195776  0.030809112            2 
  197000     1.169373   -7.3111431    68.644675  0.029037511  0.030794933            1 
  198000    1.1800298   -7.3018157    69.238999  0.029140993  0.030780409            3 
  199000    1.1522412   -7.3381668     69.46385  0.029088714  0.030767911            2 
  200000    1.1489778   -7.3149785    69.947415  0.029144756  0.030754109            1 
  201000    1.1795877   -7.3205125    70.330374   0.02915853  0.030743646            2 
  202000    1.1860875   -7.2908766    70.618642  0.029133103   0.03073226            1 
  203000    1.1602316   -7.3308306    71.034152  0.029160161  0.030720763            1 
  204000    1.1892833   -7.3065052    71.408445  0.029170116  0.030710575            5 
  205000    1.1875996   -7.3252272    71.747209  0.029165532  0.030698956            2 
  206000    1.1971377   -7.3473816    71.978834  0.029117651   0.03068512            2 
  207000    1.1757148   -7.2935257    72.260912  0.029090544  0.030670072            2 
  208000    1.1618792   -7.3155749    72.314886   0.02897231   0.03065361            2 
  209000    1.1773489   -7.3285147    72.633748  0.028960824  0.030636266            3 
  210000    1.1725665    -7.304761    73.072823  0.028997152  0.030619169            2 
  211000    1.1952113   -7.2980876    73.254509   0.02893148  0.030603435            1 
  212000    1.1656111   -7.3264634    73.482599  0.028884669  0.030586101            3 
  213000    1.1674474   -7.3355564    73.533908  0.028769134   0.03056655            1 
  214000    1.1725392   -7.3195926    73.583069  0.028653843  0.030545505            2 
  215000    1.1679164   -7.3236736    74.290272  0.028794679  0.030522668            2 
  216000    1.1614973    -7.366023    74.495394  0.028740507  0.030500867            2 
  217000    1.1587562   -7.3071611    74.730795  0.028698462  0.030478332            4 
  218000    1.1806203   -7.3663397    75.217904  0.028753021  0.030455786            2 
  219000    1.1635679   -7.3295219    75.804124  0.028844796   0.03043448            3 
  220000    1.1635426   -7.3537306    75.671339  0.028663386   0.03041422            3 
  221000    1.1494484   -7.3604508     76.01814  0.028664457  0.030392641            1 
  222000    1.1620962   -7.3529823    76.518524  0.028723169  0.030372035            2 
  223000    1.1550864   -7.3308832    77.035482  0.028787549  0.030351901            1 
  224000    1.1603986   -7.3269032     77.03547  0.028659029  0.030330648            1 
  225000      1.20164   -7.3336277    77.320528  0.028637232  0.030309328            1 
  226000    1.1604944   -7.3557029    77.555833  0.028597284  0.030287318            1 
  227000    1.1522065   -7.3021305     78.00776   0.02863721  0.030267402            1 
  228000    1.1453769   -7.3297054    78.303106  0.028619556   0.03024638            1 
  229000     1.181229   -7.3694643    78.585215   0.02859724  0.030226985            1 
  230000    1.1696712   -7.3368578    78.761053  0.028536613  0.030206264            2 
  231000    1.1750534   -7.3530205    79.040411  0.028513857  0.030184975            2 
  232000    1.1571152   -7.3528638    79.439187  0.028534191  0.030163354            1 
  233000    1.1705002   -7.3383379    79.554486  0.028452964  0.030141124            2 
  234000    1.1617878   -7.2949964    80.160195  0.028547078  0.030119739            3 
  235000     1.162175   -7.3509722    80.265943    0.0284631  0.030098355            2 
  236000    1.1544422   -7.3503827    80.545104  0.028441068  0.030076621            2 
  237000    1.1549084   -7.3502302    80.946502  0.028462202  0.030053061            2 
  238000    1.1796856   -7.3603229    81.627754  0.028581146  0.030033132            1 
  239000    1.1394636   -7.3643436    81.895002  0.028554743   0.03001467            2 
  240000    1.1715611   -7.3646442    82.209358  0.028544916  0.029995803            2 
  241000    1.1392621   -7.3720086    82.575219   0.02855298   0.02997646            3 
  242000    1.1743546   -7.3875207    82.615918  0.028449008   0.02995636            3 
  243000    1.1675046   -7.3239782    83.132941  0.028509239  0.029938952            1 
  244000     1.130916   -7.4129853    83.308104  0.028452221  0.029920666            2 
  245000    1.1782505   -7.3648045    83.906944  0.028539777  0.029902003            3 
  246000    1.1511818   -7.3854874    83.890299  0.028418123  0.029884132            2 
  247000    1.1547939   -7.3911582    84.178156  0.028400187  0.029864165            2 
  248000    1.1675494   -7.3523833    84.533007  0.028404908  0.029844197            2 
  249000    1.1628955    -7.358289    85.197415  0.028513191  0.029826554            2 
  250000    1.1323227    -7.373328    85.582216  0.028527405  0.029809065            3 
  251000     1.139541   -7.3227582    85.541096  0.028400098   0.02979091            6 
  252000    1.1734261   -7.3532453    86.053764  0.028456932  0.029773057            1 
  253000    1.1632477   -7.3609426     86.39256  0.028456047  0.029756428            2 
  254000    1.1460731   -7.3885259    86.597425  0.028411229  0.029739359            1 
  255000    1.1469096   -7.3965781    87.420145  0.028568675  0.029723666            2 
  256000    1.1688621   -7.3579938    87.568831  0.028505479  0.029708973            2 
  257000    1.1334174   -7.3579614    87.794625  0.028467777  0.029694014            2 
  258000    1.1328071   -7.3786427    88.145594  0.028470799  0.029678604            1 
  259000     1.170702   -7.3802071    88.497485  0.028474094  0.029664065            2 
  260000    1.1520254   -7.3888869    88.692067  0.028426945   0.02964981            1 
  261000      1.14642   -7.3587469    89.198418  0.028479699  0.029635256            1 
  262000    1.1547387   -7.3619334    89.452753  0.028451894  0.029620892            2 
  263000    1.1315503   -7.3658134    89.445159  0.028341305  0.029605674            2 
  264000     1.162512   -7.3619682    90.247381  0.028487178  0.029590373            1 
  265000    1.1658792   -7.3796098    90.203122  0.028365762  0.029575026            1 
  266000    1.1746492   -7.3953722     90.71302  0.028418866  0.029559989            3 
  267000     1.147849    -7.391737    91.072355   0.02842458  0.029545126            2 
  268000    1.1483901   -7.3962076    91.261009  0.028377179  0.029529526            1 
  269000    1.1462945   -7.3508985    91.733045   0.02841792  0.029514811            2 
  270000    1.1517357   -7.3846029    91.790103  0.028330279   0.02949897            3 
  271000    1.1397975   -7.3871161     91.89461  0.028257875  0.029482378            1 
  272000    1.1466115   -7.3568714     92.77622  0.028424087   0.02946576            2 
  273000    1.1366085   -7.3833576    92.484069   0.02823079  0.029448624            1 
  274000    1.1408442   -7.3691126    92.907433  0.028256518  0.029430367            4 
  275000      1.15373   -7.3840687    92.982111  0.028176397  0.029412805            2 
  276000    1.1250415   -7.4152237    93.388891  0.028197129  0.029395189            1 
  277000     1.146574   -7.3736735    93.845542  0.028232714  0.029377235            2 
  278000    1.1390741   -7.4178093    93.697076  0.028086654  0.029359011            1 
  279000    1.1564098   -7.3929225    93.859673   0.02803455  0.029340698            1 
  280000    1.1272215   -7.3999647    94.333754  0.028075522  0.029322663            3 
  281000    1.1524047   -7.3900289     94.96649  0.028163253  0.029304894            2 
  282000    1.1422763   -7.3629459    95.530086  0.028229931  0.029289375            2 
  283000    1.1497619   -7.3463633    96.048143  0.028282727  0.029274311            5 
  284000    1.1508511   -7.4489872    95.700543  0.028081145  0.029257874            2 
  285000    1.1498423   -7.4404981    95.644713   0.02796629  0.029240949            3 
  286000    1.1389853   -7.4417784    96.279715   0.02805353  0.029223668            1 
  287000    1.1384812   -7.4065378    96.470341  0.028011133   0.02920512            2 
  288000    1.1436707   -7.4113436     96.84879  0.028023377  0.029186524            2 
  289000    1.1496076   -7.4196396    97.302556  0.028057254  0.029168447            1 
  290000    1.1548549   -7.4190662    97.147083  0.027915828  0.029150592            3 
  291000    1.1440534    -7.418756     97.82588  0.028014284  0.029130979            2 
  292000    1.1415762   -7.4290821    97.658301   0.02787052  0.029111785            1 
  293000     1.140321   -7.4397025    97.937815  0.027854896  0.029092344            1 
  294000     1.124419   -7.3869856    98.027931  0.027785695   0.02907201            2 
  295000    1.1544237   -7.3898973     98.30181  0.027768873  0.029051748            2 
  296000    1.1337416   -7.4200909    98.485655  0.027726817  0.029029657            2 
  297000      1.12998   -7.4277849    98.329931  0.027589767  0.029006789            3 
  298000    1.0993676   -7.3965526    99.239987  0.027751674   0.02898393            1 
  299000    1.1173505   -7.3973418    99.303206  0.027676479  0.028961939            3 
  300000    1.1267353    -7.441063    99.746217  0.027707282  0.028940356            2 
  301000    1.1320168   -7.4052557    99.786282  0.027626324  0.028918347            1 
  302000    1.1261548   -7.4120923    100.43117  0.027712795  0.028896681            3 
  303000     1.165513   -7.4185854    100.70081  0.027695492  0.028875147            3 
  304000    1.1433732   -7.4553966    100.74919  0.027617652   0.02885373            2 
  305000    1.1244984   -7.4334251    100.89006   0.02756559  0.028832913            1 
  306000    1.1340328   -7.3989898    101.81629  0.027727748  0.028812376            2 
  307000    1.1123911    -7.446162    101.57493  0.027571913  0.028792313            2 
  308000    1.1158867   -7.4544252     102.1267  0.027631682  0.028773031            1 
  309000    1.1294366     -7.41121    102.73834   0.02770721  0.028752991            2 
  310000    1.1306641   -7.4127572    102.90405   0.02766238  0.028733488            2 
  311000    1.1149002    -7.402136    103.08662  0.027622352  0.028715056            1 
  312000    1.1178102   -7.4420488    103.53914  0.027654685  0.028696304            1 
  313000    1.1336971   -7.4449589    103.62128  0.027588201  0.028677111            2 
  314000    1.1274155   -7.4377381    104.11447  0.027631228  0.028657749            3 
  315000    1.1465225   -7.3988389    104.35482  0.027607096  0.028638047            1 
  316000    1.1327522   -7.4033481    104.51768  0.027562679  0.028618366            2 
  317000    1.1491515   -7.4147298    104.71717  0.027528173  0.028598574            1 
  318000     1.124368   -7.4537842    104.59666  0.027410026  0.028577977            2 
  319000    1.1391094    -7.407524    105.09686   0.02745477  0.028557197            2 
  320000    1.1220836   -7.4086476    105.11183  0.027372874  0.028535698            5 
  321000    1.1433169   -7.4776034    105.25456  0.027324653  0.028514168            2 
  322000    1.1358949   -7.4199828    105.97135  0.027425297  0.028492865            2 
  323000    1.1421212   -7.4542955    105.97231  0.027340637  0.028472122            2 
  324000    1.1369438     -7.42079    105.88912  0.027234855  0.028450193            2 
  325000      1.14338   -7.4276502    106.45003  0.027294879  0.028428213            3 
  326000     1.104978   -7.4765577    106.49979  0.027223872   0.02840642            2 
  327000    1.1343492    -7.421653    106.56992  0.027158492  0.028383471            2 
  328000    1.0969428   -7.4309998    106.91736  0.027163965  0.028360397            1 
  329000    1.1116994   -7.4513924    106.93031  0.027084678  0.028336594            3 
  330000    1.1294493   -7.4322792    107.80144  0.027222585  0.028313616            2 
  331000     1.104282    -7.437514    108.00064  0.027190493  0.028290926            1 
  332000    1.1026033   -7.4373878    107.86346  0.027074161  0.028267847            2 
  333000    1.1245152   -7.4421485    107.91176  0.027004946  0.028243939            2 
  334000    1.1351704   -7.4535296    108.04275  0.026956775  0.028219626            5 
  335000    1.0949723   -7.4209122    108.35989  0.026955195  0.028196307            1 
  336000    1.1143646   -7.4401573    108.57072  0.026927263  0.028172253            1 
  337000    1.1318225   -7.4214323     109.0677  0.026970251  0.028148942            2 
  338000    1.1166405   -7.4614117    108.88504  0.026845425  0.028125285            2 
  339000    1.1384486   -7.4434561     109.5955  0.026940879  0.028101106            2 
  340000    1.1027228   -7.4705662    109.94008  0.026946098  0.028078154            2 
  341000    1.1140685   -7.5449841     109.3295  0.026717865  0.028054643            3 
  342000    1.1265919   -7.4917292    110.06591  0.026819178  0.028030567            1 
  343000    1.1176051   -7.4497936    110.44868  0.026833984  0.028006921            1 
  344000    1.1156707    -7.456971    110.62052  0.026797606  0.027983371            2 
  345000    1.1362297   -7.4805609    110.70695  0.026740809  0.027960051            5 
  346000    1.1126602   -7.4644677    111.22118  0.026787375  0.027936697            4 
  347000    1.0910658   -7.4789213    111.69473  0.026823903  0.027913945            3 
  348000    1.1237251   -7.4804251    111.99358  0.026818387  0.027891349            3 
  349000    1.0968439   -7.4469089    112.17025  0.026783727  0.027869095            2 
  350000     1.093735   -7.4586234    112.91132  0.026883647   0.02784735            2 
  351000    1.1182564    -7.448259    112.76861  0.026773173  0.027826066            2 
  352000     1.105638   -7.4893406    113.16418  0.026790762  0.027804395            2 
  353000    1.1179365   -7.4551839    113.62787  0.026824332  0.027783905            1 
  354000    1.0988445   -7.4630356    114.00325  0.026836923  0.027763562            1 
  355000    1.1230173   -7.4801001    113.96527   0.02675241  0.027742624            2 
  356000    1.1075219   -7.4862807      114.107  0.026710441  0.027722501            1 
  357000     1.136682   -7.5017532     114.7646  0.026789121  0.027701971            2 
  358000    1.0956064   -7.4358805    115.35749  0.026852302  0.027682086            1 
  359000    1.1189203   -7.4896271    115.30014  0.026764193  0.027662888            2 
  360000    1.1003673   -7.4821139    115.66284  0.026773805  0.027643382            2 
  361000    1.1168876   -7.4601925    115.27672  0.026610508  0.027623744            5 
  362000     1.085024   -7.4412894    115.88742  0.026677583  0.027603137            3 
  363000    1.1139307   -7.5337466    115.88793  0.026604208  0.027582435            4 
  364000    1.0930047   -7.4739148    116.43653  0.026656714  0.027562315            2 
  365000    1.1003107   -7.4876651    116.83311  0.026674227  0.027542469            2 
  366000    1.1167966   -7.4550632    117.03416  0.026647122  0.027522892            3 
  367000    1.1026869    -7.503016    116.96722  0.026559315  0.027503147            4 
  368000     1.104424   -7.4905152    117.66404  0.026644936  0.027484025            2 
  369000    1.1130177   -7.4670418    117.54739  0.026546384  0.027464225            3 
  370000    1.1083067   -7.5300036    117.85388  0.026543666  0.027444539            2 
  371000    1.0988663   -7.4828778    118.18224  0.026545877  0.027425237            4 
  372000    1.1258212   -7.4425179    119.16489  0.026694643   0.02740637            1 
  373000    1.1022377    -7.497139    118.89615  0.026563036  0.027387495            1 
  374000    1.1050106   -7.4811578    118.86572  0.026485231  0.027368615            2 
  375000    1.0843923    -7.490407    119.32222  0.026516048   0.02734961            3 
  376000    1.1107385    -7.480063    119.61436  0.026510275  0.027331145            2 
  377000    1.0930584   -7.5069893     120.2898  0.026589258  0.027312565            3 
  378000    1.0866001   -7.4751476    120.71579  0.026612828  0.027294759            3 
  379000    1.1047323   -7.5107012    120.39894  0.026472941   0.02727701            3 
  380000    1.1229573   -7.5020749    121.08935  0.026554682  0.027259322            1 
  381000    1.0974249   -7.5072064    121.08995  0.026485117  0.027241445            2 
  382000    1.0971914   -7.4751947    121.37226  0.026477368  0.027223162            2 
  383000    1.1001224   -7.5220321     121.2009  0.026370953  0.027204889            2 
  384000    1.0926638   -7.5013443    121.58179  0.026384937  0.027185859            2 
  385000    1.0977365   -7.5100145    121.70717  0.026343544  0.027167412            1 
  386000    1.0957659   -7.5200769    122.08333  0.026356505  0.027148555            2 
  387000    1.1167098   -7.4712551    123.13764  0.026515426  0.027130127            2 
  388000    1.0846693   -7.5489716    122.28882  0.026264782  0.027111673            4 
  389000    1.0906123   -7.5247912    122.44493  0.026230704  0.027092519            1 
  390000    1.1301277   -7.5055903    123.12374  0.026308491  0.027073223            3 
  391000    1.1099823   -7.5213418    123.41045  0.026302313   0.02705409            4 
  392000     1.113131   -7.4855831    124.02844  0.026366591  0.027035639            5 
  393000     1.095474   -7.5210511    124.17012  0.026329542  0.027018359       -1e+20 
  394000    1.0917121   -7.5226531    124.33007  0.026296547  0.027001178            3 
  395000    1.1049761   -7.4966031    125.04169  0.026380103  0.026984191            3 
  396000      1.10076   -7.5273164    124.71383  0.026244493  0.026966473            4 
  397000    1.0978261    -7.501973     125.6733  0.026379785  0.026949313            2 
  398000      1.12225   -7.5118984    125.55289  0.026288294  0.026932303            3 
  399000    1.1096494   -7.5102432    125.77399  0.026268586  0.026915148            2 
  400000    1.0840359   -7.4849227    126.59026  0.026372971  0.026898157            2 
  401000    1.0967069   -7.4924043     126.7222  0.026334622  0.026881669            4 
  402000    1.1023612   -7.5108604     126.6535  0.026254871  0.026865759            1 
  403000     1.068355   -7.4947088    126.70096  0.026199536  0.026849401            2 
  404000    1.0997477   -7.5399865    127.28475  0.026255105  0.026832323            4 
  405000    1.1140496   -7.5399971    127.07153  0.026146406  0.026815162            2 
  406000    1.0854327   -7.5417118     127.2107   0.02611057   0.02679819            2 
  407000    1.1174642   -7.5145617    128.17409   0.02624367  0.026781529            2 
  408000    1.0903644   -7.4894759    128.53622  0.026253313  0.026764692            4 
  409000     1.093946   -7.5280798    128.35687  0.026152582  0.026748178            3 
  410000    1.0975981   -7.5208341    128.57468  0.026133066  0.026732004            3 
  411000    1.0796962   -7.5588295    128.87207  0.026129779  0.026715503            1 
  412000    1.0764846   -7.5393836    129.19029  0.026130723  0.026698836            3 
  413000    1.0889652   -7.5115789    129.37754  0.026105233  0.026682962            1 
  414000    1.1053445   -7.5418697    129.40483  0.026047671  0.026666038            2 
  415000    1.0896845   -7.5227384    129.80496  0.026065253  0.026649113            1 
  416000    1.1168949   -7.5349421    129.74287  0.025990158  0.026632184            2 
  417000     1.077264   -7.5076085    130.19957  0.026019099  0.026614688            2 
  418000    1.0851604   -7.5270314    129.78329  0.025873861  0.026597373            4 
  419000    1.0819306   -7.5341819    130.40919  0.025936594  0.026579283            1 
  420000    1.0980519   -7.5581323    130.85057  0.025962414  0.026561745            3 
  421000    1.0609042   -7.5253178    131.17329  0.025964627  0.026544442            2 
  422000    1.0548757   -7.5221331    131.75628  0.026018223  0.026527858            1 
  423000    1.0856283    -7.520201    131.99138  0.026003031  0.026511925            2 
  424000    1.0935508   -7.5315238    132.45414  0.026032653  0.026495979            3 
  425000    1.0721825   -7.4983696    132.65264  0.026010321  0.026479893            1 
  426000    1.0643612   -7.5803292    132.27617  0.025875619  0.026463676            3 
  427000    1.0896306   -7.6169309    132.00907  0.025762895    0.0264464            3 
  428000    1.0910983   -7.5424261    132.85305  0.025867026  0.026429346            2 
  429000    1.1010062   -7.5535408    132.92279  0.025820278  0.026412703            2 
  430000     1.102306   -7.5522383    133.18759  0.025811548  0.026395727            2 
  431000    1.0849032   -7.5568766    133.80065  0.025870196  0.026378975            1 
  432000    1.0842044   -7.5573221    134.04362   0.02585718   0.02636255            6 
  433000    1.0896295   -7.5586027    134.10547  0.025809367  0.026346584            2 
  434000    1.1002412   -7.5981214    133.90702  0.025711794  0.026329906            3 
  435000    1.0723294   -7.5870125    134.20353  0.025709488  0.026313562            2 
  436000    1.0948685   -7.5250636    135.08903  0.025819768  0.026297254            3 
  437000    1.0847791   -7.5686563    135.20526   0.02578285  0.026281814            2 
  438000    1.0978919   -7.5797899    135.40823  0.025762601  0.026266221            2 
  439000    1.0865652   -7.6395722    135.01127  0.025628563  0.026249447            2 
  440000    1.0587034   -7.5475549    135.91578  0.025741625  0.026232876            4 
  441000    1.0969908   -7.5543833    136.02345    0.0257036  0.026216282            1 
  442000    1.0596409   -7.5263669    136.10902  0.025661581   0.02619936            2 
  443000    1.0850865   -7.5535425    135.85732  0.025556305  0.026181862            3 
  444000     1.071037   -7.5911598    136.15785  0.025555152  0.026163524            2 
  445000    1.0605407   -7.5063814    136.44982  0.025552401  0.026145508            1 
  446000    1.0797745   -7.5592592    136.53009  0.025510107  0.026127209            2 
  447000    1.0816483   -7.5926005    136.41373  0.025431344  0.026108871            2 
  448000    1.0599588   -7.5498819    137.18766  0.025518537  0.026090241            3 
  449000    1.0835637   -7.5357064    137.33544  0.025489131  0.026072378            2 
  450000    1.0699348   -7.5668721    137.14071  0.025396429  0.026054078            3 
  451000    1.0981728   -7.6272078    136.97259  0.025309053  0.026035216            3 
  452000    1.0834384   -7.5786621     137.1775  0.025290836  0.026015868            2 
  453000    1.0913362   -7.5300695    137.61966  0.025316346  0.025996769            2 
  454000    1.0588563   -7.5333745    138.24809  0.025375934  0.025978109            3 
  455000    1.0818827    -7.549458    138.38628  0.025345473  0.025959285            1 
  456000    1.0600066   -7.6091478    138.17078  0.025250508  0.025940217            1 
  457000    1.0485602   -7.4883729     138.7671  0.025303993  0.025921013            3 
  458000    1.0633405   -7.5355345    138.98225   0.02528789  0.025902257            1 
  459000     1.072827   -7.5913602    139.20124  0.025272556  0.025883711            1 
  460000    1.0730563   -7.5104457    139.57743  0.025285767   0.02586525            2 
  461000    1.0645063   -7.5781372    139.39794  0.025198471  0.025846746            2 
  462000    1.0732777   -7.5985465    139.55747  0.025172705  0.025827956            3 
  463000    1.0795091   -7.5778085    140.35164  0.025261274  0.025809267            1 
  464000     1.067481    -7.592613    139.95845  0.025136217  0.025790798            6 
  465000    1.0670749   -7.5755639    140.14552  0.025115684  0.025772185            3 
  466000    1.0672176    -7.569505    140.90469  0.025197549  0.025753769            1 
  467000    1.0847211   -7.5695671    141.05945  0.025171208  0.025735792            2 
  468000     1.039041    -7.570136    141.05373  0.025116405  0.025717611            5 
  469000    1.0690096   -7.5629229    141.36396  0.025117974  0.025699486            2 
  470000    1.0568029   -7.6052456    141.08684  0.025015397  0.025681592            2 
  471000      1.08845   -7.5503349    142.03589  0.025130201  0.025663772            5 
  472000    1.0908826    -7.601183    142.07764  0.025084329   0.02564621            2 
  473000    1.0720162   -7.6175412    142.43036  0.025093439  0.025628856            2 
  474000    1.0767452   -7.5645196     142.8357  0.025111762  0.025611394            1 
  475000    1.0863132    -7.617523    142.81447   0.02505517  0.025593813            3 
  476000    1.0590604   -7.6139644    142.87129  0.025012481  0.025575845            2 
  477000    1.0372989   -7.6072331    142.56653  0.024906801  0.025557444            1 
  478000    1.0880811   -7.6276883    143.38175  0.024996819  0.025539017            3 
  479000     1.067227   -7.6387174    143.24072  0.024920097  0.025520735            2 
  480000    1.0509307   -7.5963428    143.08871  0.024841789  0.025502463            3 
  481000    1.0720507   -7.5934913     143.7811    0.0249101   0.02548439            1 
  482000    1.0684231   -7.6047598    144.33139   0.02495356  0.025466717            2 
  483000     1.059871   -7.6299223    144.16527  0.024873235   0.02544854            2 
  484000     1.075511   -7.6313032    144.64413  0.024904293  0.025430343            2 
  485000    1.0653177    -7.569753     145.1693  0.024943179  0.025412595            5 
  486000    1.0890679   -7.5887746    145.06673  0.024874268  0.025395317            1 
  487000    1.0610929   -7.5910528    145.81239  0.024950786  0.025378018            2 
  488000     1.082621   -7.6379129    145.26667  0.024806467  0.025360404            2 
  489000    1.0786386   -7.6142256    146.24563  0.024922567   0.02534279            2 
  490000    1.0547013   -7.6022505     146.3261  0.024885392  0.025325568            1 
  491000     1.043321   -7.6570148     145.8376  0.024751799  0.025307862            3 
  492000    1.0496319   -7.5921828    146.51045  0.024815456  0.025290045            2 
  493000    1.0645998   -7.5889781    146.47964  0.024759912  0.025271943            3 
  494000    1.0470417   -7.6066082    146.28602  0.024677129  0.025254315            2 
  495000    1.0499357    -7.593588    147.09882  0.024764111  0.025237003            2 
  496000    1.0489573   -7.5876626      147.325  0.024752184  0.025219413            1 
  497000    1.0619044   -7.5993297    147.90977  0.024800431  0.025202563            4 
  498000    1.0819375   -7.6018393    148.25605  0.024808577  0.025185662            1 
  499000    1.0622338   -7.6181032    148.00288   0.02471658   0.02516877            2 
  500000    1.0506518    -7.645321    148.16348  0.024693913  0.025151736            3 
  501000    1.0523177   -7.6964579    147.98978  0.024615732  0.025134252            2 
  502000    1.0713893   -7.6188291    148.37799   0.02463114  0.025116626            3 
  503000    1.0396975   -7.6497348    148.89168  0.024667276  0.025099912            3 
  504000    1.0479787   -7.6062355    148.65782  0.024579667  0.025083335            1 
  505000    1.0541214   -7.6400031    149.20908   0.02462196  0.025066573            2 
  506000    1.0739322    -7.620205    148.99492   0.02453803  0.025048882            4 
  507000    1.0314595   -7.6466889    149.00732  0.024491671  0.025031004            1 
  508000    1.0593083   -7.6451334    149.77964  0.024570151  0.025013005            5 
  509000    1.0696603   -7.6212824    150.26937  0.024602058  0.024995126            3 
  510000    1.0579809   -7.6746012    149.68133  0.024457733  0.024977223            5 
  511000    1.0491518   -7.6295222     150.1793  0.024491079  0.024959447            3 
  512000    1.0415811   -7.6056996    150.67715  0.024524275  0.024942068            2 
  513000    1.0725072   -7.6145919    150.46081  0.024441327   0.02492466            4 
  514000    1.0547384   -7.6282956    150.51055   0.02440184  0.024907413            3 
  515000    1.0417759   -7.6621684     150.7381  0.024391278  0.024889862            3 
  516000    1.0405945   -7.6029945    151.72713  0.024503736  0.024872513            2 
  517000    1.0312018   -7.6584466    151.28998  0.024385877  0.024855392            6 
  518000    1.0461265     -7.65499    151.43084  0.024361461  0.024837743            1 
  519000    1.0588515   -7.6566525     152.1051  0.024422784  0.024820608            5 
  520000    1.0304231   -7.6777484      151.863  0.024337019  0.024803322            4 
  521000    1.0599279   -7.6291218    152.06907  0.024323268  0.024786266            3 
  522000    1.0310517   -7.6488198    152.39867   0.02432929  0.024769136            2 
  523000    1.0722773   -7.6020385      152.635  0.024320427  0.024752033            2 
  524000    1.0426948   -7.6634221    152.55554  0.024261378   0.02473456            1 
  525000    1.0398744   -7.6231325    152.72751  0.024242462  0.024717291            1 
  526000    1.0329134    -7.621265    152.90702  0.024224813  0.024699859            2 
  527000    1.0361045   -7.6761764    153.15446  0.024217973  0.024682359            3 
  528000    1.0565561   -7.6675958     153.0602  0.024157229  0.024664555            3 
  529000    1.0308461   -7.6480649    153.41861  0.024168023   0.02464672            1 
  530000    1.0487707   -7.6813842    153.64423  0.024157898   0.02462874            4 
  531000    1.0458214   -7.6380506    153.82738  0.024141145  0.024611067            3 
  532000     1.039285   -7.6948249    154.11207  0.024140362   0.02459323            1 
  533000    1.0397627    -7.661371    153.99474  0.024076726  0.024575559            2 
  534000    1.0278778   -7.6443858    154.57504  0.024122197  0.024557663            3 
  535000    1.0484465   -7.6570076     154.5354  0.024070935  0.024540195            5 
  536000    1.0629307   -7.6208577    155.39331  0.024159407  0.024523116            2 
  537000    1.0222238   -7.6611971    155.22508  0.024088312  0.024506014            4 
  538000    1.0402345   -7.6649162    154.87872  0.023989889  0.024488596            1 
  539000    1.0565738   -7.6781161    155.51407   0.02404361  0.024471012            1 
  540000    1.0216572   -7.6655384       155.72  0.024030864  0.024453871            7 
  541000    1.0224975   -7.6343853     155.8194  0.024001756   0.02443617            2 
  542000    1.0469058   -7.6611572    156.24144  0.024022362  0.024418584            5 
  543000    1.0468115    -7.642595    156.17426  0.023967812  0.024401378            3 
  544000    1.0165292   -7.6719766     156.1904  0.023926225  0.024383652            2 
  545000    1.0308983   -7.6679503    155.83684  0.023828263  0.024365876            2 
  546000    1.0237896   -7.6475409    156.37298   0.02386645  0.024347721            2 
  547000    1.0281928   -7.6724052     156.8997  0.023903061    0.0243304            2 
  548000    1.0245762   -7.6859619    156.87826  0.023856183  0.024312619            2 
  549000    1.0324317   -7.6967398    157.29402  0.023875838  0.024295115            2 
  550000    1.0283776   -7.6347245    157.73993  0.023899989  0.024277874            2 
  551000    1.0318499   -7.6622438    157.80966   0.02386716  0.024261104            2 
  552000    1.0321113   -7.6787626    157.86646  0.023832498   0.02424375            3 
  553000    1.0411696    -7.652356     158.3379  0.023860443  0.024226441            2 
  554000      1.06119   -7.6373108    158.79747  0.023886502  0.024209442            2 
  555000    1.0565291   -7.6985926    158.93631  0.023864311  0.024192825            1 
  556000    1.0290449   -7.6869523    159.38968  0.023889341  0.024176461            3 
  557000    1.0514629   -7.6358771    159.38303  0.023845457  0.024160051            2 
  558000    1.0540377    -7.653669    159.11215  0.023762269  0.024143794            2 
  559000    1.0124177   -7.6389841      160.009  0.023853458  0.024127457            2 
  560000    1.0251223   -7.6860143    159.62374  0.023753533  0.024110716            1 
  561000    1.0035639   -7.6653403    159.79434  0.023736533  0.024093697            2 
  562000    1.0341968   -7.6795257    159.58115  0.023662686  0.024076545            3 
  563000    1.0279752   -7.6821705    159.77331  0.023649099  0.024059408            4 
  564000    1.0203424   -7.6875373    160.66102  0.023738331  0.024042293            1 
  565000    1.0377244    -7.710978    160.81048  0.023718361  0.024025637            1 
  566000    1.0373932   -7.6762803     160.3928  0.023614959  0.024008771            4 
  567000    1.0240413   -7.6616769    161.22142  0.023695095  0.023991808            6 
  568000    1.0205626   -7.7127798    160.69195  0.023575696  0.023974938            1 
  569000    1.0371187    -7.676667     160.8048  0.023550791  0.023957909            2 
  570000    1.0442792   -7.6465484     161.5363  0.023616418  0.023940834            1 
  571000    1.0037825   -7.6921253    161.64459  0.023590863  0.023923913            2 
  572000    1.0260854   -7.6717392    162.19481   0.02362978  0.023907121            4 
  573000    1.0542918   -7.7000201    161.78996  0.023529663  0.023890233            2 
  574000    1.0136239    -7.712616    161.63161  0.023465681  0.023873361            6 
  575000    1.0206874   -7.6379785    162.04246  0.023484414   0.02385629            3 
  576000    1.0223528   -7.6905545     161.7956  0.023407928  0.023838894            2 
  577000    1.0304884   -7.6969039    162.39932  0.023454553  0.023821517            1 
  578000    1.0034797   -7.6780113    162.04617  0.023363057   0.02380412            3 
  579000    1.0443188   -7.6988508    162.73769  0.023422236  0.023786559            2 
  580000    1.0195211   -7.6904567    162.91075  0.023406717  0.023769439            2 
  581000    1.0213468   -7.7701119    162.26345  0.023273587  0.023751792            1 
  582000    1.0243052   -7.7223775    162.95186  0.023332168  0.023733937            2 
  583000    1.0300842   -7.6920451    163.16234  0.023322232  0.023716295            3 
  584000    1.0294661   -7.7040342     163.9753  0.023398302  0.023698942            3 
  585000    1.0254056   -7.6648502    164.18457  0.023388115  0.023682032            2 
  586000    1.0142326   -7.7227505    163.62981  0.023269313  0.023664838            3 
  587000    1.0110163   -7.6919771    164.78363  0.023393474   0.02364778            1 
  588000    1.0294833   -7.6748409    164.06254  0.023251494  0.023630909            2 
  589000    1.0436232   -7.7277129    164.57047  0.023283881  0.023613883            3 
  590000    1.0161185   -7.6811907    164.35111  0.023213433  0.023596638            1 
  591000    1.0075965   -7.7206399    164.05973  0.023133069  0.023579544            1 
  592000    1.0257032   -7.7179806    164.89204  0.023211154  0.023562347            4 
  593000     1.031884   -7.7446352    165.38011  0.023240601  0.023545089            1 
  594000    1.0157697   -7.7348023    164.97083  0.023144056  0.023527842            1 
  595000    1.0419556   -7.7199869    164.98262   0.02310681   0.02351027            4 
  596000    1.0080565   -7.7328188    165.47071  0.023136285  0.023492575            3 
  597000    1.0244208   -7.7344384    165.41944  0.023090374  0.023475345            2 
  598000    1.0200547   -7.6986477    165.99003  0.023131274  0.023458128            2 
  599000   0.98609531    -7.693437     166.1301  0.023112146  0.023440668            3 
  600000    1.0228004   -7.7039023     165.9772  0.023052389   0.02342309            2 
  601000    1.0072016   -7.7545555    165.15766  0.022900397  0.023405329            1 
  602000    1.0197894   -7.7307583    165.76565  0.022946519  0.023387303            4 
  603000   0.99466591   -7.7400796    165.94818   0.02293369  0.023369296            3 
  604000    1.0203799   -7.7494627    166.47744  0.022968742  0.023351198            1 
  605000    1.0331223    -7.780569    166.14094  0.022884427  0.023333298            1 
  606000   0.98757551   -7.7231645    166.61963  0.022912491  0.023315516            2 
  607000    1.0174996   -7.7447527    166.95446  0.022920711   0.02329775            2 
  608000    1.0131958   -7.7361373    166.46816  0.022816359  0.023279843            3 
  609000    1.0057157   -7.6986095    167.00906  0.022852909  0.023262271            1 
  610000    1.0022982   -7.7420694    167.40559  0.022869616   0.02324487            2 
  611000    1.0038588   -7.7583989    167.36794  0.022827052  0.023227121            2 
  612000    1.0240209   -7.7167383    168.00215   0.02287611  0.023209638            3 
  613000    1.0178014    -7.712212    167.90736  0.022825905  0.023192335            3 
  614000   0.98215981   -7.7578225    168.08015  0.022812181   0.02317482            2 
  615000    1.0315448   -7.7436863    168.11656  0.022780021  0.023157336            1 
  616000    1.0124085   -7.7652701    167.90799  0.022714825  0.023139463            2 
  617000    1.0231716   -7.6916294    168.23526  0.022722213  0.023121747            3 
  618000   0.99693459   -7.7603788    168.09846  0.022666998  0.023103992            4 
  619000   0.98098858   -7.7097247     168.9337  0.022742824  0.023086164            2 
  620000    1.0326423   -7.7552118    168.94978  0.022708303  0.023068273            2 
  621000    1.0236643    -7.792971     168.6479  0.022631227  0.023050316            5 
  622000    1.0013456   -7.7801256    168.55668   0.02258262  0.023032088            4 
  623000   0.99783438   -7.7655801    168.90117  0.022592451  0.023013894            2 
  624000   0.99911436   -7.7088523    169.28131  0.022607013  0.022996358            2 
  625000    1.0131787   -7.7283622      169.635  0.022618001  0.022978923            6 
  626000    1.0143026   -7.7749854     169.6232  0.022580298  0.022961445            2 
  627000    1.0354354   -7.7341599    169.81624  0.022569942  0.022943966            2 
  628000   0.99458242   -7.7389238    170.33496  0.022602834   0.02292656            2 
  629000    1.0149471   -7.7494355    170.43222  0.022579786  0.022909296            3 
  630000    1.0175274   -7.7733272    170.46704   0.02254855  0.022892343            2 
  631000    1.0116858   -7.7631109    170.88785  0.022568391  0.022875416            2 
  632000   0.98990019   -7.7645634    171.31837  0.022589447  0.022858245            3 
  633000   0.99073219   -7.7691709    171.30884  0.022552507  0.022841313            3 
  634000   0.99263857   -7.7112654    171.66697  0.022564008   0.02282449            3 
  635000    1.0026164   -7.7801765    171.34852  0.022486682  0.022807739            3 
  636000   0.97798177   -7.7692531    171.73937  0.022502538  0.022790588            3 
  637000   0.99340175   -7.7804944    172.08049  0.022511838  0.022773362            2 
  638000   0.99265236   -7.7516446    172.07703  0.022476101  0.022756633            3 
  639000   0.97521012   -7.7520219    172.08373  0.022441801  0.022739942            1 
  640000    1.0134728   -7.7450647    172.14853  0.022415173  0.022723042            2 
  641000    1.0348872    -7.723425    172.89349  0.022477053  0.022705784            3 
  642000   0.98723247   -7.7990278    172.31534  0.022366996  0.022688594            2 
  643000    1.0077697   -7.7360953    172.55853  0.022363729  0.022671491            2 
  644000   0.99489996   -7.7647732    172.82719  0.022363767  0.022654272            4 
  645000     1.014614   -7.7520209    172.68828  0.022311148  0.022637339            2 
  646000   0.99725616   -7.7932806    173.24345  0.022348226  0.022620392            2 
  647000     0.993931   -7.7813768    173.02905   0.02228607  0.022603628            1 
  648000    1.0117964   -7.7700165    173.70926  0.022339154  0.022586709            3 
  649000   0.99638842   -7.8122914     173.5402  0.022283025  0.022569776            1 
  650000   0.97891938   -7.7730366    174.02359  0.022310717  0.022552859            2 
  651000   0.99600576   -7.8216145    173.96889  0.022269443  0.022535948            1 
  652000     1.002989   -7.7965048    174.20386  0.022265319  0.022519194            2 
  653000   0.97483595    -7.779456    173.95127  0.022198988  0.022502389            3 
  654000    1.0031155   -7.8224719    173.82773  0.022149302  0.022485383            3 
  655000    0.9869442   -7.7929697    174.28974  0.022174268  0.022468245            3 
  656000     1.012452   -7.8167912     174.3718  0.022150889  0.022451293            2 
  657000   0.99083302   -7.8220676    174.40657  0.022121585  0.022434303            3 
  658000   0.99123815   -7.8193448    174.70772  0.022126105   0.02241725            2 
  659000   0.99993508   -7.7806983    174.89162  0.022115784  0.022400355            1 
  660000   0.96654622   -7.7738769    175.07115  0.022104943  0.022383639            3 
  661000   0.98143055   -7.7791987    175.62203  0.022140952  0.022366858            1 
  662000   0.98862179   -7.7946233    175.42262  0.022082404  0.022350436            3 
  663000   0.97685402     -7.76155    175.69954  0.022083904  0.022333666            3 
  664000   0.96751766   -7.8070234     175.9654  0.022084011  0.022316975            7 
  665000   0.97859249   -7.7806009    176.08883   0.02206627  0.022300381            1 
  666000   0.97975195   -7.7594026    176.32767  0.022063022  0.022283816            2 
  667000   0.98934132   -7.8371678     176.1261   0.02200476  0.022267066            2 
  668000   0.97832787   -7.8125523     176.0287  0.021959668  0.022250314            2 
  669000    0.9847474   -7.7969758    176.61691  0.022000114  0.022233658            2 
  670000    0.9878194   -7.8160869    176.77323   0.02198672   0.02221726            2 
  671000   0.98678971   -7.7964497    177.11008  0.021995788  0.022200625            3 
  672000   0.97615748   -7.7917027     177.0634  0.021957267  0.022184259            1 
  673000   0.98609254   -7.8044651    177.22458  0.021944599  0.022167713            1 
  674000   0.96586144   -7.8258691    177.12379  0.021899578  0.022150923            2 
  675000   0.98999603   -7.8164423    177.28477  0.021887009  0.022134236            3 
  676000   0.96841521   -7.7988988    177.57218  0.021890061  0.022117399            3 
  677000   0.99893249   -7.8075258    177.36522  0.021832252  0.022100842            4 
  678000   0.98724311   -7.8265644    177.82919  0.021857078  0.022084048            4 
  679000    1.0031664   -7.8112349    177.55799  0.021791604  0.022066896            3 
  680000    1.0134237   -7.8176421    177.49367  0.021751676  0.022049847            2 
  681000    1.0044226   -7.7876784    177.38282  0.021706169  0.022032931            2 
  682000   0.97398167   -7.7931592    177.68429  0.021711179  0.022015868            2 
  683000   0.98821291   -7.8188266    178.06944  0.021726383  0.021998896            4 
  684000     1.003797   -7.8020754    178.29136  0.021721656   0.02198205            3 
  685000    0.9866149    -7.847631    178.22501  0.021681874   0.02196502            5 
  686000   0.96444899   -7.7912377    178.03574  0.021627277  0.021947644            2 
  687000   0.98422431   -7.8370446    178.65176  0.021670519  0.021930709            3 
  688000    0.9790858   -7.8266725    179.57406  0.021750734  0.021913773            2 
  689000   0.97963818   -7.8120537     178.8642  0.021633309  0.021896896            3 
  690000   0.98275807   -7.7981783    179.37764  0.021663966  0.021880002            2 
  691000   0.96935639   -7.7749159    179.56707  0.021655459  0.021863241            1 
  692000   0.97961636   -7.8003877     179.5144  0.021617823  0.021846359            2 
  693000   0.97665075   -7.7822274    180.45908  0.021700227  0.021829874            2 
  694000   0.98819804   -7.7833174     180.4116  0.021663256   0.02181352            2 
  695000   0.97207266   -7.8269372    180.73557  0.021670931  0.021797221            2 
  696000   0.97017436   -7.8344787    179.99608  0.021551255  0.021780868            3 
  697000   0.97858703   -7.8373563    180.94436  0.021633711  0.021764336            1 
  698000   0.97794773   -7.8429924    180.02087  0.021492463  0.021747629            2 
  699000    1.0050219   -7.8904913     180.2307  0.021486731  0.021730947            3 
  700000    0.9956315   -7.8563777    180.43678  0.021480568  0.021714259            4 
  701000   0.98136263   -7.8267357    181.22061  0.021543106   0.02169778            2 
  702000   0.97406005   -7.8453787    181.40596   0.02153442  0.021681345            4 
  703000   0.98132644   -7.8963108    181.36235  0.021498618   0.02166494            3 
  704000   0.98546465   -7.8272242    181.81765  0.021521975  0.021648866            2 
  705000   0.97982876   -7.8460786    181.99724  0.021512676  0.021632818            3 
  706000   0.96548631   -7.8508445    182.06892  0.021490665  0.021616837            2 
  707000   0.96291923   -7.8360747    181.97364  0.021449038  0.021600854            7 
  708000   0.97201559   -7.8548243    182.03181   0.02142559  0.021585055            6 
  709000   0.98855115   -7.8981047    181.69409  0.021355676  0.021568945            2 
  710000   0.99132843     -7.84867    182.13182  0.021376974   0.02155291            3 
  711000   0.96178767    -7.837407    183.17235  0.021468865  0.021536944            4 
  712000   0.94443684   -7.8337856    182.51384  0.021361639  0.021521103            2 
  713000   0.95269083   -7.8201716    182.98297  0.021386509  0.021505274            1 
  714000   0.95947975   -7.8357616    183.09404  0.021369519   0.02148968            3 
  715000   0.95969891   -7.8260532    183.33119  0.021367272  0.021474156            2 
  716000   0.96779975   -7.8454334    184.22292  0.021441216  0.021458649            4 
  717000   0.96614046   -7.8528548     183.1935  0.021291666  0.021443037            4 
  718000   0.96812869    -7.847132    184.22518  0.021381752  0.021427358            3 
  719000   0.94571385   -7.8587957    184.20673  0.021349875  0.021411785            3 
  720000   0.95807583   -7.8374141    184.33224   0.02133475  0.021396413            2 
  721000   0.97637472   -7.8768724    184.33833  0.021305863  0.021380833            4 
  722000   0.96110098   -7.8811945    184.53747  0.021299338  0.021365418            2 
  723000   0.95305656   -7.8711535    184.73843  0.021293042  0.021349948            3 
  724000   0.98748736   -7.8658438    184.15702   0.02119671   0.02133443            3 
  725000   0.96359787   -7.8673408    184.68885  0.021228603  0.021318877            4 
  726000   0.96376058   -7.8566153    185.06787  0.021242868  0.021303463            2 
  727000   0.98887886     -7.81939    185.07892  0.021214915  0.021288038            2 
  728000   0.96795657   -7.8288005     185.3536  0.021217216  0.021272732            2 
  729000   0.97570365   -7.8670951    185.88873  0.021249283  0.021257386            2 
  730000   0.96994674   -7.8573381    185.37878  0.021161961  0.021241938            1 
  731000   0.95347281   -7.8612249    185.30035  0.021124071  0.021226515            3 
  732000   0.93546074   -7.8308185     186.5899  0.021242019  0.021211046            2 
  733000   0.96344005    -7.867997    185.94428  0.021139641  0.021195689            2 
  734000   0.97185433   -7.8685079    186.18142  0.021137763  0.021180503            2 
  735000   0.95331471   -7.8433651    186.42985  0.021137171  0.021165414            2 
  736000   0.93769036   -7.8488865    186.83377  0.021154185  0.021150335            3 
  737000   0.95555562   -7.8582641    186.38312  0.021074528  0.021135291            2 
  738000   0.94833226   -7.8692901    186.58664  0.021068952  0.021120221            6 
  739000   0.96559706   -7.8472503    187.55724  0.021149892  0.021105182            3 
  740000   0.97026906   -7.8760585    187.29407  0.021091674  0.021090235            3 
  741000   0.93523446   -7.8771859    187.11716  0.021043315  0.021075125            2 
  742000   0.96192656   -7.8493193    187.59206  0.021068291  0.021060108            2 
  743000   0.94415455   -7.8525097    187.01771  0.020975517  0.021045165            6 
  744000   0.96744374   -7.8541693    187.29436  0.020978311  0.021030138            3 
  745000   0.96041567    -7.821571    187.61529   0.02098605  0.021014969            2 
  746000   0.94542148   -7.8691404    187.96131  0.020996571  0.021000045            5 
  747000   0.95572086   -7.8804411     187.7288  0.020942526  0.020985037            2 
  748000   0.94694856    -7.877907    187.81785  0.020924448  0.020970018            4 
  749000   0.95777177   -7.9231126    188.22674  0.020942004   0.02095472            2 
  750000   0.94216206   -7.8893226    188.54279  0.020949199  0.020939568            6 
  751000   0.94082951   -7.8888273    188.67623   0.02093611   0.02092453            2 
  752000   0.94718407   -7.8969267    188.68341  0.020909066  0.020909411            5 
  753000   0.95647161   -7.8958497    188.99936  0.020916264  0.020894589            3 
  754000   0.94380967   -7.8752209    189.37709   0.02093027  0.020879821            3 
  755000    0.9641948   -7.8806864    189.23187   0.02088652   0.02086509            6 
  756000   0.94653699   -7.8783756    188.82972  0.020814563  0.020850132            3 
  757000   0.94792533   -7.9243825    188.63257  0.020765364  0.020835107            3 
  758000    0.9569896   -7.9591339    189.39032  0.020821275  0.020819968            6 
  759000   0.93801414   -7.9167553    189.77443  0.020836016   0.02080496            2 
  760000   0.95429996   -7.9220929    189.71824  0.020802439  0.020790006            1 
  761000   0.94092882   -7.8867741     189.9272  0.020797985  0.020774895            4 
  762000   0.95446322    -7.895368    189.81124   0.02075801  0.020759906            7 
  763000   0.94622832   -7.9301985    189.47324  0.020693888  0.020744872            1 
  764000   0.93297204   -7.9282148    190.32574  0.020759789  0.020729872            6 
  765000   0.95633786   -7.9042848    189.98935  0.020696008  0.020714888            2 
  766000   0.92213893   -7.8966257    190.21764  0.020693825  0.020700039            1 
  767000   0.96325826   -7.9119063    190.02368  0.020645772  0.020685073            1 
  768000   0.95946142   -7.9009917    190.97147  0.020721731  0.020670074            3 
  769000   0.95031283   -7.9158963    190.65824  0.020660841  0.020655187            1 
  770000   0.95338755   -7.9155077    190.88408   0.02065845  0.020640001            4 
  771000   0.94940853   -7.9486057    190.33797   0.02057263   0.02062471            4 
  772000   0.95031779   -7.9003741    190.52977  0.020566685    0.0206095            3 
  773000   0.94269481   -7.9331695    190.38925   0.02052493  0.020594292            2 
  774000   0.95204544     -7.90627    190.89864  0.020553255  0.020578974            1 
  775000   0.94573285   -7.9004395    191.12082  0.020550625  0.020563706            2 
  776000   0.94397026   -7.9459159    191.03812  0.020515262  0.020548528            5 
  777000   0.96414208   -7.9259091    191.48132  0.020536392  0.020533451            3 
  778000   0.94274489    -7.947071    191.49226  0.020511167  0.020518374            1 
  779000   0.94060971     -7.96286    191.29825  0.020464083  0.020503205            5 
  780000   0.94428902    -7.967748    190.86427  0.020391482  0.020487681            2 
  781000   0.92780563   -7.9535871    191.16872  0.020397858  0.020472193            2 
  782000    0.9393695   -7.9176785    191.68785  0.020427094  0.020456698            2 
  783000   0.94617941   -7.9016263    192.02993  0.020437413  0.020441473            4 
  784000   0.94529495   -7.8900341    191.79553  0.020386429    0.0204262            4 
  785000   0.93280226   -7.9478623    191.94198  0.020376006  0.020410955            2 
  786000    0.9541377   -7.9689457    191.56806  0.020310439  0.020395846            3 
  787000    0.9346368   -7.9284458    192.45703  0.020378762  0.020380649            4 
  788000   0.93435148   -7.9549012    192.08001  0.020313029  0.020365491            2 
  789000   0.95370149   -7.8834045    193.08114  0.020393023  0.020350401            2 
  790000   0.93625506    -7.910202    193.02404  0.020361186  0.020335471            3 
  791000   0.92483292   -7.9447426    192.45449  0.020275441  0.020320463            3 
  792000   0.95590025   -7.9183911    193.31061  0.020339921  0.020305512           14 
  793000   0.92774262   -7.9392732    192.75241  0.020255612  0.020290396            3 
  794000   0.92529231   -7.9188764    193.22864  0.020280084  0.020275331            2 
  795000   0.93659773   -7.9306861    193.27107  0.020259022  0.020260179            2 
  796000   0.96480455    -7.909443    194.11064  0.020321466  0.020245368            3 
  797000   0.95133333   -7.9326103    193.22853  0.020203736  0.020230255            1 
  798000   0.95226468   -7.9310735    193.95954  0.020254756  0.020215196            2 
  799000   0.94149643   -7.9336308    193.88677  0.020221815  0.020200323            4 
  800000   0.93097419   -7.9305942    193.62156  0.020168913  0.020185422            6 
  801000   0.93751186   -7.9303947    193.97435  0.020180436  0.020170377            4 
  802000    0.9450635   -7.9988958    193.34825  0.020090217   0.02015524            2 
  803000   0.95177629   -7.9376548     193.8166  0.020113803  0.020140072            2 
  804000   0.93643034   -7.9680364    194.26575  0.020135338  0.020124865            4 
  805000   0.91876087   -7.9126584    194.34622  0.020118656  0.020109757            1 
  806000   0.92957988   -7.9603405    194.16017  0.020074459  0.020094584            5 
  807000   0.93398776    -7.930805    194.60246  0.020095256  0.020079391            2 
  808000   0.95704307   -7.9475887    194.55809   0.02006581  0.020064157            1 
[...]
 1800000   0.53253646   -8.9501546    211.36044 0.0097852055 0.0083463626           11 
 1801000   0.53489789   -8.9378827    211.48266 0.0097854277 0.0083389881            3 
 1802000   0.52749695   -8.9548976    211.31507 0.0097722471 0.0083316141            4 
 1803000   0.52998098   -8.9684105    211.30349 0.0097662919 0.0083242461            7 
 1804000   0.52673816   -8.9773474    211.52338 0.0097710355 0.0083168802            6 
 1805000   0.52835672   -8.9468559    211.29672 0.0097551581 0.0083095245            4 
 1806000    0.5262904   -8.9551421    211.39488 0.0097542859 0.0083021817            5 
 1807000    0.5296501   -8.9546202    211.45409 0.0097516181 0.0082948351           12 
 1808000   0.53436091   -8.9623939    211.36833  0.009742272 0.0082875085            8 
 1809000   0.53646292   -8.9513856    211.32147 0.0097347279 0.0082801981            8 
 1810000   0.53105197   -8.9595786     211.1945 0.0097235036 0.0082728928            4 
 1811000   0.53322366   -8.9573425    211.11556 0.0097145023 0.0082655844            7 
 1812000   0.53199894   -8.9782024    211.64307 0.0097334007 0.0082582945            8 
 1813000   0.53700862   -8.9583536    211.18418 0.0097069399 0.0082510022            4 
 1814000   0.52321294   -8.9516049    211.24223 0.0097042553 0.0082437229            7 
 1815000   0.52379526   -8.9754843    211.68589 0.0097192788 0.0082364406            3 
 1816000   0.52069502   -8.9673575    211.27475 0.0096950599 0.0082291688            6 
 1817000   0.52154106   -8.9779532    211.23976 0.0096881195 0.0082219138            9 
 1818000   0.52755582   -8.9653505    211.36449 0.0096885079  0.008214661            9 
 1819000   0.52739399   -8.9496422    211.57532 0.0096928405 0.0082074286            8 
 1820000   0.50543284   -8.9634717    210.85027 0.0096543166 0.0082001938            5 
 1821000   0.52627428    -8.971203     211.0578 0.0096585119 0.0081929712            7 
 1822000   0.52630434   -8.9573709    211.71298 0.0096831768 0.0081857491            4 
 1823000   0.52866348   -8.9741575    211.35765 0.0096616223 0.0081785409            7 
 1824000   0.53476756   -8.9569084     211.4368 0.0096599416 0.0081713462            5 
 1825000    0.5378581   -8.9608424    211.01864 0.0096355542 0.0081641616            4 
 1826000    0.5253054   -8.9618043    211.29603 0.0096429367 0.0081569755            4 
 1827000   0.51181507   -8.9627103    211.28933 0.0096373532 0.0081498057            3 
 1828000    0.5049695   -8.9713775    211.01545 0.0096195958  0.008142634            6 
 1829000   0.52066944   -8.9632205    211.47049 0.0096350686 0.0081354751            7 
 1830000   0.52479937   -8.9653599    211.22367 0.0096185644 0.0081283215            5 
 1831000   0.52140156   -8.9732403    211.07735 0.0096066515 0.0081211772            6 
 1832000   0.52791721   -8.9597078    210.97151 0.0095965934 0.0081140462            7 
 1833000   0.53415648   -8.9550551    210.98506 0.0095919739 0.0081069266            4 
 1834000   0.51640484   -8.9785922    211.03143 0.0095888507 0.0080998102            6 
 1835000   0.52445422   -8.9791862    210.92453 0.0095787707 0.0080926937            4 
 1836000   0.52098211   -8.9761622    211.37586 0.0095940386 0.0080855809            7 
 1837000   0.52329816   -8.9742646    211.08419 0.0095755846 0.0080784771            5 
 1838000   0.53004283   -8.9711574    210.89737 0.0095619047  0.008071376            4 
 1839000   0.51131674    -8.992537    211.34378 0.0095769341 0.0080642848           10 
 1840000   0.51817821   -8.9841902    211.46618 0.0095772727 0.0080572067            7 
 1841000   0.51918846   -8.9964941    211.02364 0.0095520386 0.0080501373            9 
 1842000   0.51767566   -8.9759673     211.0689 0.0095489005 0.0080430747            8 
 1843000   0.52702469   -8.9661632    210.83634 0.0095332041 0.0080360148            5 
 1844000   0.52028513   -8.9723579    211.23119  0.009545878 0.0080289715            5 
 1845000    0.5240658    -8.975688    211.79902 0.0095663512 0.0080219288            7 
 1846000    0.5119719    -8.992598    211.53514 0.0095492571 0.0080148957            3 
 1847000   0.49989242   -8.9874772     211.0602 0.0095226585 0.0080078682            6 
 1848000   0.51087303   -8.9905273     211.0372 0.0095164683 0.0080008553           13 
 1849000   0.51881144   -9.0037523    211.19507 0.0095184365 0.0079938486            5 
 1850000   0.51931753   -8.9850901    211.18897 0.0095130165 0.0079868542            4 
 1851000   0.50293055   -8.9992226    210.92627 0.0094960505 0.0079798487            5 
 1852000   0.50910879   -9.0058684    210.67249 0.0094795037 0.0079728587            4 
 1853000   0.52116828    -8.997613    211.06913 0.0094922256 0.0079658773            4 
 1854000    0.5063163   -8.9993347    210.81378 0.0094756284 0.0079589004            6 
 1855000   0.50279792   -9.0040642    211.03221 0.0094803328 0.0079519333            6 
 1856000   0.50651334   -8.9894914    211.11413 0.0094789031 0.0079449725            3 
 1857000   0.51716301   -8.9899379    211.20367 0.0094778169 0.0079380134            5 
 1858000   0.49842014   -8.9924447    210.71033  0.009450589 0.0079310666            5 
 1859000   0.51953745   -9.0009496    210.92926 0.0094553191 0.0079241333            6 
 1860000    0.5119534   -9.0072284    210.96972 0.0094520482 0.0079172067            5 
 1861000   0.50326313   -9.0162215    210.85997 0.0094420549 0.0079102851            5 
 1862000   0.50741555   -9.0097898    210.96857 0.0094418445 0.0079033682            3 
 1863000   0.50362322   -8.9954756    211.36299 0.0094544189 0.0078964665            6 
 1864000   0.51919169   -9.0161403    211.04696  0.009435218 0.0078895668            6 
 1865000   0.50666038   -9.0104172    210.47396 0.0094045557 0.0078826697            6 
 1866000   0.50964762    -9.005178    210.97641 0.0094219548 0.0078757864            7 
 1867000    0.5114571   -8.9781341    210.67559 0.0094034809 0.0078689074            8 
 1868000   0.50670046   -9.0002471    211.09958 0.0094173618 0.0078620387            8 
 1869000    0.5000628   -9.0044119    210.79373 0.0093986858 0.0078551824            9 
 1870000   0.51130179   -8.9844543     211.0281 0.0094041041  0.007848333            5 
 1871000   0.50439454   -9.0034081    210.89261 0.0093930434  0.007841481            4 
 1872000   0.49905075   -8.9996904    211.08836 0.0093967395 0.0078346441            8 
 1873000   0.50997443   -9.0071486    210.81275 0.0093794603 0.0078278158            6 
 1874000   0.50453354   -9.0216565    210.74323 0.0093713638 0.0078209947            6 
 1875000   0.51018053   -9.0161954    210.74496 0.0093664425 0.0078141809            3 
 1876000   0.50048004   -9.0034493    211.30269 0.0093862248 0.0078073729            6 
 1877000   0.50978535   -9.0119547    210.81761 0.0093596878  0.007800566            6 
 1878000   0.50662976   -8.9999894    211.21089 0.0093721554 0.0077937734            4 
 1879000   0.50001708   -9.0069095    210.85317 0.0093513023 0.0077869903            9 
 1880000   0.50097568   -9.0071082    210.35335 0.0093241733 0.0077802042            6 
 1881000   0.51414118   -9.0158708    210.76733 0.0093375567 0.0077734296            8 
 1882000   0.49603372   -9.0237961     210.7109 0.0093300966  0.007766656            6 
 1883000   0.49749382   -9.0144368     210.7197 0.0093255311 0.0077598919            5 
 1884000   0.49514188    -9.020964    210.64857  0.009317435 0.0077531363            7 
 1885000   0.50189624   -9.0090531    210.84914 0.0093213589  0.007746392            5 
 1886000   0.49257112   -9.0407604     210.8142 0.0093148726 0.0077396584            5 
 1887000   0.50275254   -9.0178125    211.01866 0.0093189658   0.00773293            6 
 1888000    0.5074716   -9.0109188    210.79958 0.0093043602 0.0077262073            9 
 1889000   0.50273096    -9.011152    210.79983 0.0092994455 0.0077194952            8 
 1890000   0.49075033   -9.0120938    210.75494 0.0092925457 0.0077127934            7 
 1891000   0.49906506   -9.0070189    210.89758 0.0092939177 0.0077060867            3 
 1892000   0.50594291   -9.0139481    210.90167 0.0092891858 0.0076993929            4 
 1893000   0.49391669   -9.0110771    210.74761 0.0092774965 0.0076927053            7 
 1894000    0.4933319   -9.0192804    210.88871 0.0092788062 0.0076860297            7 
 1895000   0.49199288   -9.0415295    210.84239 0.0092718727  0.007679357            5 
 1896000    0.4987304   -9.0205248    210.50742 0.0092522601  0.007672692            8 
 1897000   0.50335726   -9.0121314    210.58676 0.0092508682 0.0076660312            6 
 1898000   0.50213021   -9.0247401    210.73802 0.0092526353 0.0076593843            8 
 1899000   0.49919024   -9.0129283    210.87252  0.009253665 0.0076527388           10 
 1900000   0.48726412   -9.0335068    210.94422 0.0092519393 0.0076461054            6 
 1901000   0.49507353   -9.0356956    210.65772 0.0092345135  0.007639475            8 
 1902000   0.49149941   -9.0226092    210.55125 0.0092249933 0.0076328558            6 
 1903000   0.48612668   -9.0248328    210.63579 0.0092238478 0.0076262382            6 
 1904000   0.49352858   -9.0272113     210.8626 0.0092289302 0.0076196413           11 
 1905000   0.48820246   -9.0443864    210.39077 0.0092034456 0.0076130423            6 
 1906000   0.48965969   -9.0210582    210.41634 0.0091997352 0.0076064539            7 
 1907000   0.49377748   -9.0353641    210.50897 0.0091989587 0.0075998668            5 
 1908000   0.48775485   -9.0291371    210.73407 0.0092039688 0.0075932942            6 
 1909000   0.48509734   -9.0254026     210.8982 0.0092063121 0.0075867293           10 
 1910000   0.48918114   -9.0308398    210.35774 0.0091779118 0.0075801646            6 
 1911000   0.48869046   -9.0457578    210.53682 0.0091809181 0.0075736117            6 
 1912000    0.4964783   -9.0308106    210.72015 0.0091841068 0.0075670686            3 
 1913000     0.482463   -9.0036506    210.99179 0.0091911391 0.0075605294            8 
 1914000   0.49087985   -9.0294071    210.76521  0.009176472 0.0075539985            6 
 1915000   0.49372015   -9.0260195    210.75168 0.0091710914 0.0075474735            4 
 1916000   0.48431719   -9.0337579    210.66068 0.0091623468 0.0075409585            9 
 1917000   0.49619573   -9.0240215    210.57489 0.0091538381 0.0075344488            6 
 1918000    0.4840173   -9.0251133    210.78916 0.0091583753   0.00752794            6 
 1919000   0.48873587   -9.0359114     210.6557 0.0091478071 0.0075214372            7 
 1920000   0.49356797   -9.0215144     210.4571 0.0091344229 0.0075149391            6 
 1921000    0.4884884   -9.0396345    210.38953 0.0091267366 0.0075084572            5 
 1922000    0.4913577   -9.0354941    210.56881 0.0091297612   0.00750198            6 
 1923000   0.48033792    -9.027249    210.96346 0.0091421156 0.0074955154            9 
 1924000   0.49124421   -9.0456665    210.63523 0.0091231476 0.0074890557            5 
 1925000   0.47958174   -9.0510899    210.27403 0.0091027718 0.0074826024           10 
 1926000   0.48199091   -9.0408303    210.39018 0.0091030713 0.0074761521            7 
 1927000   0.48734441   -9.0421974    210.81899 0.0091168909  0.007469714            9 
 1928000   0.47454091   -9.0179684    210.53309 0.0090998051  0.007463286            4 
 1929000   0.47631644   -9.0411871    210.61011 0.0090984152 0.0074568578            8 
 1930000   0.48589269   -9.0277345    210.63475 0.0090947648 0.0074504486            9 
 1931000   0.48630124    -9.033171    210.65893 0.0090910984 0.0074440345            7 
 1932000   0.47422312   -9.0263952    210.83121 0.0090938239 0.0074376338            6 
 1933000    0.4881202   -9.0433471    210.53784 0.0090764719  0.007431233            6 
 1934000   0.48279397    -9.036592    210.37563 0.0090647892 0.0074248384            5 
 1935000   0.49147029   -9.0419962    210.39275 0.0090608417 0.0074184536            5 
 1936000   0.47118865   -9.0260138    210.40437  0.009056662 0.0074120753            4 
 1937000   0.48704194   -9.0360026    210.23457 0.0090446814 0.0074057003            8 
 1938000   0.48070698   -9.0476979    210.58607 0.0090551287 0.0073993372            6 
 1939000   0.46196774    -9.053664    210.59412 0.0090508046 0.0073929821            5 
 1940000   0.48633846   -9.0462922    210.47096 0.0090408489 0.0073866318            7 
 1941000   0.47689647   -9.0499189    210.56552 0.0090402506 0.0073802876            5 
 1942000   0.47970445   -9.0461888    210.15017 0.0090177723 0.0073739559            6 
 1943000   0.47116101   -9.0433898    210.73836 0.0090383583 0.0073676292           10 
 1944000   0.48033252   -9.0485886    210.50814 0.0090238402 0.0073613074            7 
 1945000   0.47843337   -9.0512556     210.7131 0.0090279818 0.0073549969            9 
 1946000   0.47441757   -9.0382816     210.5522 0.0090164526 0.0073486986            7 
 1947000   0.46183021   -9.0519756    210.19351 0.0089964696 0.0073424002            7 
 1948000   0.47164205   -9.0453364    210.58881 0.0090087615 0.0073361081            7 
 1949000   0.47540613   -9.0458993    210.43074 0.0089973808 0.0073298213            5 
 1950000   0.47444117   -9.0407799    210.54171 0.0089975089 0.0073235392            8 
 1951000   0.47598185   -9.0720116    210.35721 0.0089850167 0.0073172635            5 
 1952000   0.46998409   -9.0492884    210.16085 0.0089720309 0.0073109986           10 
 1953000   0.48258237   -9.0508301    210.68809 0.0089899341 0.0073047382            3 
 1954000   0.48554508   -9.0495434    210.27577 0.0089677485   0.00729849            6 
 1955000   0.46206657   -9.0419151    210.70734 0.0089815576 0.0072922425           10 
 1956000   0.46997691   -9.0449955    210.39413 0.0089636219 0.0072860146            9 
 1957000   0.47592774   -9.0532057     210.3233 0.0089560255 0.0072797817            5 
 1958000   0.46037249   -9.0427098    210.04341  0.008939539 0.0072735574           12 
 1959000   0.47342055   -9.0392907    210.54968  0.008956512 0.0072673433            8 
 1960000    0.4699704   -9.0596218    210.49037 0.0089494207  0.007261132            4 
 1961000   0.47385851   -9.0373248    210.02134 0.0089249253 0.0072549242            7 
 1962000   0.47644046   -9.0531045    210.38887 0.0089359866 0.0072487237            6 
 1963000   0.47045813   -9.0701632    210.51841 0.0089369336 0.0072425364            4 
 1964000   0.46554267   -9.0463526    210.30749  0.008923434 0.0072363589            6 
 1965000   0.46534726   -9.0598982    210.19346 0.0089140566 0.0072301785           14 
 1966000   0.46578995    -9.065383    210.45188 0.0089204765 0.0072240169            9 
 1967000   0.48355046   -9.0584642    210.20379 0.0089054308 0.0072178596            6 
 1968000   0.46585814   -9.0649317    210.47853 0.0089125392 0.0072117066            6 
 1969000   0.47537958   -9.0717487    210.32206 0.0089013907 0.0072055602            9 
 1970000   0.46909871   -9.0584272    210.40222  0.008900263 0.0071994171            8 
 1971000   0.46882347   -9.0675887    210.09438 0.0088827323 0.0071932841            6 
 1972000   0.47318328   -9.0569912    210.01505 0.0088748754 0.0071871537           14 
 1973000   0.45990797   -9.0797033    210.15693 0.0088763699 0.0071810294            8 
 1974000   0.46830172   -9.0716964    209.91253 0.0088615557 0.0071749067            9 
 1975000   0.46091567   -9.0652951    210.22072 0.0088700724   0.00716879            5 
 1976000   0.45934302   -9.0649557    210.28312 0.0088682154 0.0071626826           12 
 1977000   0.47193904   -9.0563258    210.16213 0.0088586299 0.0071565887            5 
 1978000   0.46313134   -9.0817118    210.37341 0.0088630524  0.007150493            5 
 1979000   0.46947548   -9.0691521    210.21283 0.0088518119   0.00714441            7 
 1980000   0.47348154   -9.0647973    210.13138 0.0088439131  0.007138332           10 
 1981000   0.45929471   -9.0745591    210.39413 0.0088505019 0.0071322639           10 
 1982000   0.46146199   -9.0737482    210.06793 0.0088323212 0.0071261988            6 
 1983000   0.46086308   -9.0784791    210.30571 0.0088378598 0.0071201416            5 
 1984000   0.46100203   -9.0614423    210.07078 0.0088235376 0.0071140872            5 
 1985000   0.45783713   -9.0784108    210.17115 0.0088233062 0.0071080409            9 
 1986000   0.46064679   -9.0826403    210.17491 0.0088190211 0.0071020007            5 
 1987000   0.45965728   -9.0698452    210.10071  0.008811471 0.0070959673            7 
 1988000   0.45987386   -9.0650069    210.46004  0.008822101 0.0070899435            5 
 1989000   0.45467664   -9.0893312    210.16235 0.0088051932 0.0070839278            8 
 1990000   0.45986782   -9.0803718    210.34685 0.0088084946 0.0070779159            7 
 1991000   0.45970711   -9.0739503    210.01487 0.0087901755 0.0070719093            6 
 1992000    0.4550901   -9.0698734    210.19831 0.0087934366 0.0070659106           11 
 1993000   0.45661377   -9.0756319    210.05442  0.008783008 0.0070599112           12 
 1994000   0.46271323   -9.0782345    210.15549 0.0087828273  0.007053921            5 
 1995000   0.45757094   -9.0781129    210.27179 0.0087832829 0.0070479351            7 
 1996000   0.45268733   -9.0694087    210.01394 0.0087681172 0.0070419605            6 
 1997000   0.45689043   -9.0756013    210.14068 0.0087690153 0.0070359942           11 
 1998000   0.45986357   -9.0767027     210.2046 0.0087672923 0.0070300333            6 
 1999000    0.4593447   -9.0791417    209.85688 0.0087484107 0.0070240787            7 
 2000000   0.44511241   -9.0794763    210.08537 0.0087535572  0.007018125            4 
 2001000    0.4630574   -9.0977506    210.09972 0.0087497799 0.0070121801            7 
 2002000   0.45431848   -9.0831356    209.95735 0.0087394835 0.0070062412            9 
 2003000   0.45930531   -9.0619599    210.14661 0.0087429941 0.0070003117            9 
 2004000   0.45627065   -9.0977206    210.11738  0.008737416 0.0069943878           11 
 2005000   0.45172843   -9.0773891     210.0571 0.0087305526 0.0069884744            8 
 2006000   0.44684397   -9.0844123    209.92325 0.0087206402 0.0069825667            8 
 2007000   0.45647836   -9.0819999    209.81795 0.0087119231 0.0069766626            6 
 2008000   0.44389963   -9.0834904    210.24603 0.0087253497 0.0069707642            6 
 2009000   0.44399547   -9.0787436    210.03306 0.0087121726 0.0069648731            5 
 2010000   0.45071493   -9.0763274    210.02207 0.0087073826 0.0069589909            6 
 2011000    0.4486316   -9.0774469    210.22776 0.0087115762 0.0069531109            7 
 2012000   0.45179051   -9.0886132    210.11644 0.0087026359 0.0069472376            9 
Loop time of 4980.33 on 48 procs for 2000000 steps with 4000 atoms

Performance: 69392.994 tau/day, 401.580 timesteps/s
99.4% CPU use with 48 MPI tasks x no OpenMP threads

MPI task timing breakdown:
Section |  min time  |  avg time  |  max time  |%varavg| %total
---------------------------------------------------------------
Pair    | 347.68     | 371.68     | 393.9      |  58.1 |  7.46
Neigh   | 33.215     | 34.611     | 36.086     |  13.5 |  0.69
Comm    | 312.57     | 338.66     | 366.01     |  69.5 |  6.80
Output  | 4.3436     | 4.3462     | 4.3772     |   0.2 |  0.09
Modify  | 4171.8     | 4187.5     | 4198.1     |   8.6 | 84.08
Other   |            | 43.49      |            |       |  0.87

Nlocal:        83.3333 ave          91 max          77 min
Histogram: 2 1 13 6 3 10 4 7 1 1
Nghost:        2243.92 ave        2264 max        2218 min
Histogram: 1 1 2 7 2 11 12 7 3 2
Neighs:        15054.9 ave       16766 max       13667 min
Histogram: 4 5 6 8 6 5 5 4 2 3
FullNghs:      30110.8 ave       32729 max       27710 min
Histogram: 1 4 7 9 5 9 3 6 2 2

Total # of neighbors = 1445320
Ave neighs/atom = 361.33000
Neighbor list builds = 106687
Dangerous builds = 0

#clear
#
#next RN
#
#jump SELF
Total wall time: 1:23:03
