
units lj                  # Use reduced LJ style units
atom_style atomic         # Uncharged point particles
atom_modify map hash      # Needed for indexing of clusters etc
                          # Used to be able to find where atoms are in relation to each other.

# Define a lattice with which to populate the simulation cell. With units
# set to 'lj' the second argument to the lattice command is the reduced
# density rho* and the spacings are multiples of that required to acheive
# that density. Also define a simulation cell called 'box' in lattice units
# and fill it with atoms. Here we're creating a box which is ten lattice
# constants in each direction.
lattice fcc 1.0 spacing 1 1 1                 # All equal sizes - gives the right reduced density.
Lattice spacing in x,y,z = 1.5874011 1.5874011 1.5874011

region box block 0 10 0 10 0 10 units lattice # Defines a region, "box", in lattice units
create_box 1 box                              # Creates a simulation box as specified above,
Created orthogonal box = (0.0000000 0.0000000 0.0000000) to (15.874011 15.874011 15.874011)
  3 by 4 by 4 MPI processor grid
                                              # with one type of atom
create_atoms 1 box                            # Creates particles on lattice points
Created 4000 atoms
  using lattice units in orthogonal box = (0.0000000 0.0000000 0.0000000) to (15.874011 15.874011 15.874011)
  create_atoms CPU = 0.003 seconds


# Set the mass of the first (and only) atom type.
mass 1 1.0

# Lennard-Jones interactions between particles, 3.5 sigma cut-off. Apply
# long range tail corrections to energy and pressure and set all coefficients
# to unity since we work in reduced units here. Note that this doesn't shift
# the potential such that it goes to zero at the cutoff. That would require
# pair_modify('shift', 'yes').
pair_style lj/cut  3.5      # non-GPU version
pair_modify tail  yes
pair_coeff 1  1  1.0  1.0   # Intearaction between 1 and 1 set with epsilon = 1 and sigma = 1

write_data data.*
System init for write_data ...
Neighbor list info ...
  update every 1 steps, delay 10 steps, check yes
  max neighbors/atom: 2000, page size: 100000
  master list distance cutoff = 3.8
  ghost atom cutoff = 3.8
  binsize = 1.9, bins = 9 9 9
  1 neighbor lists, perpetual/occasional/extra = 1 0 0
  (1) pair lj/cut, perpetual
      attributes: half, newton on
      pair build: half/bin/atomonly/newton
      stencil: half/bin/3d
      bin: standard

#############################
#   M E L T   S Y S T E M   #
#############################

velocity all create 2.4 3143649 mom yes dist gaussian # Assign velocities
                                                    # Temperature 2.4, random number seed, zero linear momentum
						                                                        # Gaussian distribution

timestep 0.002   # simulation timestep
thermo 1000       # output thermodynamic data every 1000 steps

# Define a fix  in this case with index 1 applied to all
# particles in the simulation. This fix is for simulations
# in the anisotropic NPT ensemble. Note that we use the MTK
# correction.
fix 1 all npt temp 2.4 2.4 0.1 iso 5.68 5.68 0.5 mtk yes tchain 5 pchain 5 # Use NPT ensemble
                                                                         # Set temperature and pressure and damping
                                                                         # Numbers of thermostats in chain and in barostat
run 1000         # run for 10000 steps
Per MPI rank memory allocation (min/avg/max) = 3.642 | 3.644 | 3.648 Mbytes
Step Temp E_pair E_mol TotEng Press Volume 
       0          2.4   -8.3859253            0   -4.7868253   -2.2405722         4000 
    1000    2.3556826   -4.4218277            0  -0.88918722    5.9178648    5149.9434 
Loop time of 0.228503 on 48 procs for 1000 steps with 4000 atoms

Performance: 756226.846 tau/day, 4376.313 timesteps/s
99.4% CPU use with 48 MPI tasks x no OpenMP threads

MPI task timing breakdown:
Section |  min time  |  avg time  |  max time  |%varavg| %total
---------------------------------------------------------------
Pair    | 0.094351   | 0.1001     | 0.11306    |   1.3 | 43.81
Neigh   | 0.017403   | 0.018642   | 0.021066   |   0.5 |  8.16
Comm    | 0.065404   | 0.076508   | 0.085674   |   1.9 | 33.48
Output  | 2.4705e-05 | 2.5825e-05 | 3.3284e-05 |   0.0 |  0.01
Modify  | 0.02641    | 0.031662   | 0.036478   |   1.7 | 13.86
Other   |            | 0.001566   |            |       |  0.69

Nlocal:        83.3333 ave          91 max          77 min
Histogram: 5 1 7 7 6 11 2 6 0 3
Nghost:        1399.19 ave        1422 max        1377 min
Histogram: 1 1 6 6 12 10 4 2 3 3
Neighs:        7397.58 ave        8529 max        6755 min
Histogram: 5 7 9 9 9 3 3 1 0 2

Total # of neighbors = 355084
Ave neighs/atom = 88.771000
Neighbor list builds = 86
Dangerous builds = 18

# Equilibrate just above the melting temperature to avoid step fn in T

fix 1 all npt temp 1.25 1.25 0.1 iso 5.68 5.68 0.5 mtk yes tchain 5 pchain 5
run 1000
Per MPI rank memory allocation (min/avg/max) = 3.642 | 3.644 | 3.648 Mbytes
Step Temp E_pair E_mol TotEng Press Volume 
    1000    2.3556826   -4.4218277            0  -0.88918722    5.9178648    5149.9434 
    2000    1.2718396   -5.8179173            0   -3.9106348    5.8388957    4340.7158 
Loop time of 0.220087 on 48 procs for 1000 steps with 4000 atoms

Performance: 785144.287 tau/day, 4543.659 timesteps/s
99.6% CPU use with 48 MPI tasks x no OpenMP threads

MPI task timing breakdown:
Section |  min time  |  avg time  |  max time  |%varavg| %total
---------------------------------------------------------------
Pair    | 0.092551   | 0.099633   | 0.11356    |   1.1 | 45.27
Neigh   | 0.015488   | 0.016119   | 0.018212   |   0.4 |  7.32
Comm    | 0.06494    | 0.075925   | 0.085765   |   2.0 | 34.50
Output  | 2.7027e-05 | 2.9605e-05 | 9.4498e-05 |   0.0 |  0.01
Modify  | 0.020147   | 0.026333   | 0.032998   |   2.5 | 11.96
Other   |            | 0.002048   |            |       |  0.93

Nlocal:        83.3333 ave          89 max          77 min
Histogram: 4 4 1 5 6 7 7 6 3 5
Nghost:        1554.81 ave        1572 max        1531 min
Histogram: 1 1 2 6 7 10 4 10 2 5
Neighs:        8780.42 ave        9530 max        7727 min
Histogram: 1 0 5 5 4 10 6 8 6 3

Total # of neighbors = 421460
Ave neighs/atom = 105.36500
Neighbor list builds = 74
Dangerous builds = 4


# Small amount of linear quench

fix 1 all npt temp 1.25 ${temp} 0.1 iso 5.68 5.68 0.5 mtk yes tchain 5 pchain 5
fix 1 all npt temp 1.25 1.92 0.1 iso 5.68 5.68 0.5 mtk yes tchain 5 pchain 5
run 2000
Per MPI rank memory allocation (min/avg/max) = 3.643 | 3.645 | 3.648 Mbytes
Step Temp E_pair E_mol TotEng Press Volume 
    2000    1.2718396   -5.8179173            0   -3.9106348    5.8388957    4340.7158 
    3000    1.5587673   -5.4187548            0   -3.0811884    5.6586129    4558.9767 
    4000    1.9386203   -4.9530829            0   -2.0458795    5.9528163    4797.7804 
Loop time of 0.431038 on 48 procs for 2000 steps with 4000 atoms

Performance: 801786.237 tau/day, 4639.967 timesteps/s
99.7% CPU use with 48 MPI tasks x no OpenMP threads

MPI task timing breakdown:
Section |  min time  |  avg time  |  max time  |%varavg| %total
---------------------------------------------------------------
Pair    | 0.18522    | 0.19934    | 0.22549    |   1.4 | 46.25
Neigh   | 0.031715   | 0.032671   | 0.037168   |   0.5 |  7.58
Comm    | 0.12874    | 0.14838    | 0.1645     |   1.9 | 34.42
Output  | 4.6643e-05 | 4.7798e-05 | 5.9452e-05 |   0.0 |  0.01
Modify  | 0.035582   | 0.046605   | 0.056088   |   2.8 | 10.81
Other   |            | 0.003988   |            |       |  0.93

Nlocal:        83.3333 ave          90 max          77 min
Histogram: 6 2 1 11 8 5 5 1 4 5
Nghost:        1454.15 ave        1471 max        1441 min
Histogram: 4 2 9 11 2 5 6 3 3 3
Neighs:        7925.54 ave        8677 max        7267 min
Histogram: 6 2 6 3 10 5 5 5 3 3

Total # of neighbors = 380426
Ave neighs/atom = 95.106500
Neighbor list builds = 148
Dangerous builds = 0

#############################
# F R E E Z E  S Y S T E M  #
#############################

# Define solid atoms. This closely follows ten Wolde  Ruiz-Montero and Frenkel  Faraday Discuss  1996  104  93-110
# Compute components of the per-atom q6 vector
compute q6 all orientorder/atom degrees 1 6 components 6 nnn NULL cutoff 1.3 # compute the Q6 parameter.
                                                                             # Use all neighbours within 1.3 unit cell.

# get number of connections
compute coord_number all coord/atom orientorder q6 0.5

# An atom is solid if it has 8 or more connections (of a possible 14)
variable is_solid atom c_coord_number>=8
group solid dynamic all var is_solid    # Must be dynamic to update
dynamic group solid defined

# do clustering
compute cluster solid cluster/atom 1.3 # Create a cluster where all atoms within are solid and max 1.3 units from another member

# define chunks one chunk per cluster
compute clus_chunks solid chunk/atom c_cluster nchunk every compress yes  # Says which atoms are in which chunk

# count the size of each chunk
compute size_chunks solid property/chunk clus_chunks count


# Find the maximum entry in the vector of chunk sizes
variable max_n equal max(c_size_chunks)


# Thermo style which includes this variable
thermo_style custom step temp pe vol v_max_n

thermo ${N}  # Print the thermo information every 100 steps
thermo 1000  

# Reset the npt fix at a lower temperature (below freezing)
fix 1  all npt temp  ${temp} ${temp}  0.1  iso  5.68  5.68  0.5  mtk yes tchain  5  pchain  5
fix 1  all npt temp  1.92 ${temp}  0.1  iso  5.68  5.68  0.5  mtk yes tchain  5  pchain  5
fix 1  all npt temp  1.92 1.92  0.1  iso  5.68  5.68  0.5  mtk yes tchain  5  pchain  5

dump dmp2 all dcd ${N} traj_${rand}.dcd
dump dmp2 all dcd 1000 traj_${rand}.dcd
dump dmp2 all dcd 1000 traj_462431.dcd


# fix rnuntil all halt ${N} v_max_n >= 3980 error soft message no   # Stop when solidified


run 1000000 # 5000000  # Run for this many steps
Neighbor list info ...
  update every 1 steps, delay 10 steps, check yes
  max neighbors/atom: 2000, page size: 100000
  master list distance cutoff = 3.8
  ghost atom cutoff = 3.8
  binsize = 1.9, bins = 9 9 9
  4 neighbor lists, perpetual/occasional/extra = 1 3 0
  (1) pair lj/cut, perpetual
      attributes: half, newton on
      pair build: half/bin/atomonly/newton
      stencil: half/bin/3d
      bin: standard
  (2) compute orientorder/atom, occasional
      attributes: full, newton on
      pair build: full/bin/atomonly
      stencil: full/bin/3d
      bin: standard
  (3) compute coord/atom, occasional
      attributes: full, newton on
      pair build: full/bin/atomonly
      stencil: full/bin/3d
      bin: standard
  (4) compute cluster/atom, occasional
      attributes: full, newton on
      pair build: full/bin/atomonly
      stencil: full/bin/3d
      bin: standard
Per MPI rank memory allocation (min/avg/max) = 9.328 | 9.333 | 9.338 Mbytes
Step Temp PotEng Volume v_max_n 
    4000    1.9386203   -4.9530829    4797.7804            1 
    5000    1.9090888   -4.8943439     4867.474            1 
    6000    1.9570203   -4.9005194    4854.5045            1 
    7000    1.9553866    -4.889819    4857.6428            1 
    8000    1.8961661   -4.9456842    4823.4386            1 
    9000    1.9182443   -4.8873806    4876.4348            1 
   10000    1.9325981    -4.878576    4861.5023            1 
   11000    1.8899275   -4.9041843    4887.7179            1 
   12000      1.91605   -4.9116995    4862.7188            1 
   13000    1.9505017   -4.9023645    4871.9083            1 
   14000    1.9376631   -4.9137236    4862.4459            1 
   15000    1.9283361   -4.8702899    4869.6327            1 
   16000    1.8956524   -4.8816894    4874.2978            1 
   17000    1.8878926   -4.9240885    4847.1541            2 
   18000    1.9069389    -4.848996    4854.6286            1 
   19000    1.9360093   -4.9735696    4851.6632            1 
   20000     1.876593   -4.8459484    4858.6292            1 
   21000    1.9101151   -4.9070188    4835.2869            2 
   22000    1.9412138   -4.9016805    4857.8573            1 
   23000    1.9057668   -4.8825903    4848.3926            1 
   24000    1.8913005   -4.9422549    4842.5905            1 
   25000    1.9160836   -4.9351746    4855.2465            1 
   26000    1.8864753   -4.9460699    4818.5972            1 
   27000     1.886176   -4.8684211    4886.1033            1 
   28000     1.908566   -4.9188444    4871.3121            1 
   29000    1.9540646   -4.8940878    4854.0735            1 
   30000    1.9555335   -4.8790831    4875.0095            1 
   31000    1.9050168   -4.9034154    4836.2649            1 
   32000    1.8819073   -4.9143437    4838.6879            1 
   33000    1.9411146   -4.8777384    4868.2633            1 
   34000    1.9090538   -4.8521873    4867.9876            1 
   35000    1.9019082   -4.8963496    4882.7217       -1e+20 
   36000    1.8927861   -4.8660307    4840.6174            3 
   37000    1.9482935   -4.9304384    4834.8912            1 
   38000    1.9063615   -4.9338507    4854.8115            1 
   39000    1.8662428   -4.8988051    4834.4443            1 
   40000    1.9294649   -4.8783292    4831.1324            1 
   41000    1.9328306   -4.8966349    4861.5767            1 
   42000    1.9009078   -4.8820285    4862.3438            1 
   43000    1.9351475   -4.8709609    4884.6514            1 
   44000    1.9076226   -4.8675163     4843.372            3 
   45000    1.9434494   -4.9277701    4852.8455            2 
   46000     1.905813   -4.8588208    4865.1714            1 
   47000    1.9205841   -4.9555106    4869.4949            2 
   48000    1.9301337   -4.8863476    4839.0826            1 
   49000    1.9247435   -4.9159993    4872.2741            1 
   50000    1.9401511   -4.9009555     4868.992            1 
   51000    1.9048376   -4.8539987    4843.0344            1 
   52000    1.9064512   -4.8686427     4851.448            1 
   53000    1.9113128   -4.9203647    4861.1635            1 
   54000    1.9406343   -4.9082797    4843.9494       -1e+20 
   55000    1.8954107   -4.8896375    4855.6632       -1e+20 
   56000    1.9534977    -4.884397    4877.2549            3 
   57000    1.9257336    -4.917446    4842.0031            1 
   58000    1.8957678    -4.897528    4869.0049            1 
   59000    1.9469105   -4.8668382    4857.4706       -1e+20 
   60000    1.9125157   -4.8691651    4843.2941            1 
   61000    1.9320228   -4.9369057    4861.2814            1 
   62000    1.9194878   -4.8401268    4878.6364            1 
   63000    1.9263507   -4.8217358    4854.1008            1 
   64000    1.9594366   -4.8883288    4844.3686            2 
   65000    1.9293701   -4.9197006    4820.7078            1 
   66000    1.9417415   -4.9260145    4843.9395            1 
   67000    1.9155203   -4.9212346    4832.2649            1 
   68000    1.9270066    -4.906308    4880.5634            1 
   69000    1.9426194   -4.9288069     4833.267            1 
   70000    1.9637654   -4.9043103    4880.9312            1 
   71000     1.895273   -4.8738957    4878.4922            2 
   72000    1.9058913   -4.9211291    4849.9801       -1e+20 
   73000    1.9176396   -4.8591875    4862.5753            1 
   74000    1.9483379    -4.868971    4896.1986            1 
   75000    1.9516329   -4.9346644    4856.9236            1 
   76000    1.9118902   -4.8484209    4838.4858            1 
   77000    1.9175317   -4.8548251    4879.9771            1 
   78000    1.9047295   -4.9404437     4841.703            1 
   79000    1.9452655   -4.9676725      4837.24            1 
   80000    1.9412411   -4.9258646    4856.7936            1 
   81000     1.905922   -4.8255367    4854.0733            1 
   82000    1.9012516   -4.8797749    4879.8789            1 
   83000    1.9249907   -4.8896078    4820.6692       -1e+20 
   84000    1.9223148   -4.9233829    4855.7426            2 
   85000    1.8691247   -4.8625374    4878.0847            1 
   86000    1.9237113   -4.8755217    4859.0305            1 
   87000    1.8983449   -4.9138399    4834.2487       -1e+20 
   88000    1.9407194   -4.9353337    4851.1389            1 
   89000    1.8698587    -4.912004    4837.4636            1 
   90000    1.9290573   -4.8659677    4885.8525       -1e+20 
   91000    1.9060327   -4.9092724    4883.3725            1 
   92000    1.9639542   -4.8816204    4875.5612            2 
   93000    1.9170694   -4.9202229    4859.7244            1 
   94000    1.8622223    -4.887687    4884.1979            1 
   95000     1.917698   -4.9013667     4870.635            1 
   96000    1.9042075   -4.9336071    4833.9885            1 
   97000    1.9279542   -4.9654758    4855.8271            3 
   98000     1.904284   -4.8756249    4809.1599            1 
   99000    1.9039752   -4.8849741    4858.2716            3 
  100000    1.9178054   -4.8541829    4836.9539            1 
  101000    1.9151944   -4.9702397    4840.4063            1 
  102000    1.8921434   -4.9304868    4808.4487            1 
  103000    1.9151174   -4.8889983     4857.971            1 
  104000    1.9180246   -4.8866634      4839.16            1 
  105000    1.9204743   -4.9115237    4864.4246            1 
  106000    1.9777488   -4.9035132    4871.6489            1 
  107000    1.9549868   -4.8268767    4875.8084            1 
  108000     1.935815   -4.9408896    4847.5864            3 
  109000    1.9594403   -4.8958979    4864.7685       -1e+20 
  110000    1.8891334   -4.8651829    4855.6961            1 
  111000     1.919871    -4.903848    4832.8727            2 
  112000    1.8789974   -4.8229837    4886.2893            2 
  113000    1.9122075   -4.8475841    4849.0725            2 
  114000    1.9100847   -4.8962725    4881.3857            1 
  115000    1.9180586   -4.8691247    4844.4285            1 
  116000    1.9167462     -4.88315    4864.9539            2 
  117000    1.8957599   -4.8950135    4859.5104            1 
  118000    1.9327174   -4.8707292    4879.7784            1 
  119000    1.9595322   -4.8701023    4867.0643            2 
  120000    1.9162005   -4.9019704    4840.2867            2 
  121000     1.969312    -4.879513    4904.4708            2 
  122000    1.9417809   -4.8526499    4844.2695            2 
  123000    1.9043461   -4.9342052    4861.7211            1 
  124000    1.9729058   -4.8785639    4860.3614            1 
  125000    1.9247845   -4.8796116    4884.6344            1 
  126000    1.9061347   -4.8802632    4848.8255            1 
  127000    1.8891763   -4.8618914    4857.3851            3 
  128000    1.9018727     -4.88803    4876.5495            1 
  129000    1.9276165   -4.8424614    4867.4873       -1e+20 
  130000    1.9077723   -4.8562352    4862.3125            1 
  131000    1.9009356    -4.884683    4881.2294            1 
  132000    1.9531462   -4.8982252      4846.87            1 
  133000    1.8944709   -4.9310223    4841.0144            1 
  134000    1.9329325   -4.9057835    4872.6194            2 
  135000    1.9027727    -4.919806    4863.0101            1 
  136000    1.9068511    -4.894295    4849.6401            1 
  137000     1.940498    -4.870077      4864.78            1 
  138000     1.878077   -4.8604201    4877.3675            1 
  139000    1.9491384   -4.9057235    4860.7899            1 
  140000    1.9043521   -4.9071779     4876.334            2 
  141000    1.9562411   -4.8912423    4856.7219            2 
  142000    1.9228392   -4.8863554    4841.2893       -1e+20 
  143000    1.9322535    -4.831515    4878.1906            1 
  144000    1.9337339   -4.8841456    4864.4421            1 
  145000    1.8900227   -4.9025618    4837.5359            1 
  146000     1.892331   -4.8861326    4866.5382            1 
  147000    1.9003247   -4.8869575    4848.4869            1 
  148000    1.9279432   -4.8337702    4878.1642            1 
  149000    1.8839178   -4.9385532    4854.9665            1 
  150000    1.9439498    -4.843189    4868.2545            1 
  151000    1.9187265    -4.919608    4851.4285            1 
  152000     1.931416   -4.9330129    4872.4329            2 
  153000    1.9335295   -4.8790799    4863.1051            2 
  154000    1.8728591   -4.8717914    4864.4117            1 
  155000    1.9362762   -4.8821189    4888.1654            2 
  156000     1.892698   -4.8970372    4857.5076            2 
  157000    1.9002894   -4.8520044    4890.7592            1 
  158000    1.9218755    -4.879367    4858.0216            1 
  159000    1.8995549   -4.8780643     4874.253            1 
  160000    1.9501945   -4.8959121    4867.0982            1 
  161000    1.9103778   -4.8679254    4854.6544            1 
  162000    1.9380462   -4.9099919    4871.4677            2 
  163000    1.9315319   -4.9140473    4814.9922            1 
  164000    1.9017006   -4.9252453    4826.8546            1 
  165000    1.9115439   -4.9316116    4864.8489            1 
  166000    1.9289925   -4.8654967    4821.3132            1 
  167000    1.9462272   -4.9521177    4827.0068            6 
  168000    1.9259018   -4.8931477    4846.9863            1 
  169000    1.9494099   -4.8738967    4873.6252            2 
  170000    1.9201055   -4.8866883    4869.8894            1 
  171000    1.9367377   -4.8676201    4861.7415            1 
  172000    1.9043401   -4.8914528    4826.5485            1 
  173000    1.9959294   -4.8935768    4847.3837            1 
  174000    1.9183578   -4.8990973         4878            1 
  175000    1.9082567    -4.909636    4879.3552            1 
  176000    1.9436537    -4.913915    4865.7868            2 
  177000    1.9148582   -4.8548756    4881.0595            1 
  178000      1.90494   -4.8734944    4876.3764            2 
  179000    1.9296073   -4.8908104    4889.5696            1 
  180000    1.9352063    -4.913829    4819.5056       -1e+20 
  181000    1.9368917   -4.9245458    4871.9192            1 
  182000    1.9307848   -4.9180665    4841.9258            1 
  183000    1.8903028   -4.8672713    4874.8089            1 
  184000    1.8773038   -4.8904549    4839.6716            1 
  185000     1.889022   -4.8926487    4835.4828       -1e+20 
  186000    1.8760236   -4.8489075    4860.5666            1 
  187000    1.8908762   -4.8970994    4861.7703            1 
  188000    1.9345458   -4.9123987    4873.2955            1 
  189000    1.8980592   -4.9545301    4829.1169       -1e+20 
  190000    1.9091775   -4.8986387    4845.7424       -1e+20 
  191000    1.8926892   -4.8918702    4867.9499            1 
  192000     1.950811   -4.9076266    4842.8375            1 
  193000     1.930915   -4.9148066    4860.2365            1 
  194000    1.9386096   -4.8769897    4842.0713            1 
  195000    1.9496699   -4.9345498    4858.9322            1 
  196000    1.9457889    -4.863509    4891.7289       -1e+20 
  197000    1.8953584   -4.8927713    4875.8566            1 
  198000    1.9291404   -4.8919095    4851.1665            1 
  199000     1.930887   -4.8637583    4879.7017            1 
  200000    1.9452015   -4.8984271     4863.942            1 
  201000    1.9082634   -4.9237847    4850.0311            1 
  202000    1.9038387   -4.9098459    4851.1159            1 
  203000    1.8941854   -4.9158253    4872.2252       -1e+20 
  204000     1.920671   -4.8613424    4868.1733            1 
  205000    1.8644109     -4.87545     4850.763            1 
  206000    1.9310729   -4.8970191    4874.3179            1 
  207000    1.9192314   -4.9665175    4844.0917            1 
  208000    1.9187723   -4.8770118    4874.1095            1 
  209000    1.9223006   -4.9136624    4878.8961            1 
  210000    1.9102097   -4.9166045    4881.0961            1 
  211000    1.9530463    -4.908174    4844.5753            1 
  212000     1.889923   -4.9005207    4881.1103            1 
  213000     1.930315   -4.8633268    4871.5059            1 
  214000    1.9596425   -4.8781118    4856.4326            1 
  215000    1.9278001   -4.8679004    4876.4636            1 
  216000    1.9271907   -4.8911476    4892.9256            1 
  217000    1.9241271   -4.8815074    4847.3863       -1e+20 
  218000    1.9073978   -4.8609462    4859.5623       -1e+20 
  219000    1.9061885   -4.8676872    4856.7781            1 
  220000    1.9250639   -4.9379667    4848.2326            1 
  221000    1.9232564   -4.9420862    4853.2971            1 
  222000    1.9268263    -4.862157    4866.1199       -1e+20 
  223000    1.9080281   -4.8578272    4845.9975            1 
  224000    1.9021433   -4.8995408    4844.4391            1 
  225000    1.8822371   -4.8668816    4867.9367            1 
  226000    1.9184711   -4.8696131    4897.6995            1 
  227000    1.8950523   -4.8392278    4881.1455            2 
  228000     1.923364   -4.8531294    4881.7864            1 
  229000     1.932596   -4.8893642    4866.1166            1 
  230000    1.9475668   -4.8715334    4861.5121            1 
  231000     1.929399   -4.9067472    4830.0702            1 
  232000    1.8616575    -4.885916    4907.9712            2 
  233000    1.9034129   -4.8823055    4854.0318            1 
  234000    1.9378472   -4.8794428    4851.8833            1 
  235000    1.9583536   -4.9256539    4841.1444            1 
  236000    1.9215584   -4.8984448    4845.4824            1 
  237000    1.9413756   -4.8985841    4859.4644            1 
  238000    1.8882912   -4.9004718    4881.9484            1 
  239000    1.8874417   -4.9399133     4828.447            2 
  240000    1.9049281   -4.9208028    4863.7855       -1e+20 
  241000    1.9584255   -4.9040889     4842.482            1 
  242000    1.9336609   -4.9039982    4834.5734            2 
  243000    1.8865219   -4.8891834    4868.7035            1 
  244000    1.9293383   -4.9018255    4846.6323            1 
  245000     1.899818   -4.9463146    4830.4977            1 
  246000    1.9315082   -4.8856752    4891.5313       -1e+20 
  247000    1.9229196   -4.8594454    4865.1736            1 
  248000    1.9299459    -4.908737    4850.0661            1 
  249000    1.8914073   -4.9082276    4854.7828            1 
  250000    1.9499652   -4.9033051    4864.4987            1 
  251000     1.940618   -4.8831097    4861.2022            1 
  252000    1.8824749   -4.9192355    4845.4905            2 
  253000    1.9032231   -4.9254611    4821.6079            2 
  254000    1.9036912   -4.9017213    4846.1589            1 
  255000    1.9466276   -4.8947265    4848.2429            1 
  256000     1.922381   -4.9051005    4847.7298            2 
  257000    1.9870618   -4.9289724    4862.4777            1 
  258000    1.9265197   -4.8817006    4863.4219            1 
  259000    1.9448121   -4.9291905    4848.7951            1 
  260000    1.9249448   -4.8918117     4860.938            1 
  261000    1.9178855   -4.8612041    4880.5129            1 
  262000    1.8765207   -4.8861047    4844.0001            1 
  263000    1.9420895   -4.9008793    4838.0722            1 
  264000    1.9239221   -4.9108314    4833.4615            1 
  265000    1.9288405   -4.8527054    4865.7457            3 
  266000     1.908647   -4.9012665    4871.6364            2 
  267000    1.9193075   -4.8976463    4840.7597            1 
  268000    1.8890865   -4.9344887     4836.078            1 
  269000    1.9167009   -4.8941284    4851.2419            1 
  270000    1.9498478   -4.8979076    4844.6428       -1e+20 
  271000    1.9044793   -4.8579005    4880.3732            1 
  272000     1.895436   -4.8818946    4895.4896            1 
  273000    1.8506052   -4.8956702    4891.0435            1 
  274000    1.8895781   -4.9100181    4836.2387            1 
  275000    1.9162411   -4.8954741    4840.5394            1 
  276000    1.8916388   -4.8978699    4835.1695            1 
  277000    1.9361942   -4.8450914    4885.6468            1 
  278000     1.905173   -4.9087598    4825.3733            1 
  279000    1.9073874   -4.8995475    4846.5787            1 
  280000    1.9162815   -4.9394345    4844.2129       -1e+20 
  281000    1.9229489   -4.8958937    4846.4712       -1e+20 
  282000     1.892547    -4.890839    4893.4776       -1e+20 
  283000    1.8954546    -4.924785    4846.7999       -1e+20 
  284000    1.8882597   -4.8425109    4899.0556            1 
  285000    1.9067608   -4.8996591     4852.169            1 
  286000    1.9548991   -4.8702063    4868.4139            1 
  287000    1.9221326   -4.9396798     4873.652            1 
  288000    1.9596808   -4.8646971    4851.8486            1 
  289000    1.9163165   -4.8958511    4862.5247            1 
  290000    1.9531149   -4.8573072    4901.3446            2 
  291000    1.9022491   -4.8832912    4873.2601            1 
  292000    1.9060785   -4.8718224    4859.3265            1 
  293000    1.9179292   -4.9353264     4853.194            1 
  294000    1.9225899   -4.9350137     4839.884            3 
  295000    1.9072643   -4.8733043    4852.8598       -1e+20 
  296000    1.9774139   -4.8716452    4878.7038            1 
  297000    1.9317331   -4.9463187     4848.501            2 
  298000    1.9328354    -4.916932    4860.1954            1 
  299000     1.902168   -4.8832795    4855.7942            1 
  300000    1.9577728   -4.9162735    4845.6099            1 
  301000    1.8912897   -4.9452023    4859.1698            3 
  302000    1.9159295   -4.8907562    4864.2664            1 
  303000    1.9395705   -4.8750646    4821.3621            1 
  304000    1.9263778   -4.8950031    4869.1773            1 
  305000    1.8854254   -4.8686453    4865.2885            2 
  306000    1.9454292   -4.8902538    4865.1586            2 
  307000    1.9517773   -4.9318315     4859.545            1 
  308000     1.890988   -4.9292012     4837.246       -1e+20 
  309000    1.9103111   -4.8985332    4833.9119            1 
  310000    1.9494353    -4.876206    4900.2082            1 
  311000    1.9350011   -4.8980056    4844.5975            1 
  312000    1.9078739    -4.866245    4841.5296            1 
  313000    1.9318092   -4.9014337     4896.788            1 
  314000    1.9137039   -4.9086293    4847.1246       -1e+20 
  315000    1.9665068   -4.8328731    4862.8089            1 
  316000    1.9407738   -4.8730994    4874.3048            3 
  317000    1.9388434   -4.9719642    4857.1989            1 
  318000    1.9157078   -4.8712474    4873.5638            1 
  319000    1.8916009   -4.8854465    4836.0862            1 
  320000    1.8787269   -4.8548099    4868.9116            1 
  321000    1.8823273   -4.9328859     4864.742            2 
  322000    1.9343019   -4.9253512    4849.4205            1 
  323000    1.9332523   -4.8985984    4864.4826            2 
  324000      1.92867   -4.9031946    4853.1176            1 
  325000    1.9265829   -4.8623846    4852.5101            2 
  326000    1.9422066   -4.9102374    4858.8345            1 
  327000    1.9651003   -4.8908141    4865.1448            1 
  328000    1.8779135   -4.8489201    4854.6543            1 
  329000    1.9079418   -4.9530782    4837.3671            1 
  330000    1.9103754   -4.9007096    4860.5456            1 
  331000    1.8910304   -4.9341091    4850.5228            1 
  332000     1.928662   -4.9100947    4860.8829            1 
  333000    1.9513011   -4.8659637    4864.2696            2 
  334000    1.9340099   -4.8579747     4908.548            1 
  335000    1.9552977   -4.8743539    4884.7792            1 
  336000    1.8496454    -4.820117    4892.1994            1 
  337000    1.9475633   -4.9044877    4825.7911            2 
  338000    1.9174326   -4.8708595     4844.579            1 
  339000    1.9275596   -4.8291675    4888.6671            2 
  340000    1.8954797   -4.9301405     4876.359            1 
  341000    1.8905119   -4.9379108    4822.1699            1 
  342000     1.884759   -4.9227659    4871.7622            2 
  343000    1.9108082   -4.9533247    4783.7713            1 
  344000    1.9160519   -4.9202265     4839.183            1 
  345000    1.9159617   -4.9039964    4868.9053            1 
  346000    1.9662387   -4.8902417    4878.4105            1 
  347000    1.9255222   -4.9014236    4847.6493       -1e+20 
  348000    1.8808554    -4.856207    4858.5021            1 
  349000    1.9133001   -4.8632186    4844.7285            2 
  350000    1.9199362   -4.8627493    4872.1888       -1e+20 
  351000    1.9267962   -4.9414262    4840.6144            1 
  352000    1.9187605   -4.8950791     4856.798            1 
  353000     1.948746   -4.8915053     4871.543            1 
  354000    1.9256863    -4.919647    4867.0287            1 
  355000    1.9469323   -4.9044986     4840.683            1 
  356000    1.9001687   -4.9329574    4859.7411            1 
  357000    1.9074701   -4.9067157    4867.3924       -1e+20 
  358000    1.9008223   -4.8842666    4825.0699            1 
  359000    1.9384072   -4.8957779    4834.0995            1 
  360000    1.9097251   -4.8947814    4878.3742            1 
  361000    1.9095646   -4.8624849    4863.3277            1 
  362000    1.9762335   -4.9003749    4883.0888            2 
  363000    1.9324018   -4.8518843    4856.8156            1 
  364000    1.9770048   -4.9610107    4850.6556       -1e+20 
  365000    1.8972215   -4.8596629    4885.0933            1 
  366000    1.9102372   -4.8577784    4872.0338            1 
  367000    1.9129383   -4.8994608    4855.8675            1 
  368000     1.919887   -4.8880974    4864.3093            1 
  369000    1.9161209    -4.896261      4903.22            1 
  370000    1.9471228   -4.9049669    4846.1738            1 
  371000    1.9466246   -4.9240641     4837.829            2 
  372000    1.9599221   -4.8781032    4870.2248       -1e+20 
  373000    1.8950935   -4.9509167    4821.1914            1 
  374000    1.9251728    -4.912559    4860.1459            1 
  375000    1.9226595   -4.8881651     4841.839            1 
  376000    1.9185889   -4.9124146    4894.3669            1 
  377000    1.9229795    -4.838787    4877.3943            1 
  378000    1.9057854   -4.8576881    4853.0456            1 
  379000     1.900313   -4.8611941    4853.3306            1 
  380000    1.8663282   -4.8873678    4866.4658            1 
  381000    1.9268344   -4.8985865    4871.3005            1 
  382000    1.9401436   -4.8992017    4857.9164            2 
  383000     1.861245   -4.8880051    4875.9844            1 
  384000    1.9375736    -4.890106    4867.9394            1 
  385000    1.9129101   -4.8554516    4898.5554            1 
  386000     1.923317   -4.8733723    4866.1273            1 
  387000      1.90178   -4.8933076    4895.2154            1 
  388000    2.0007444    -4.859881    4857.3649            1 
  389000    1.9571197   -4.8977234    4885.8538            2 
  390000    1.9142019   -4.8673951    4880.4973            1 
  391000    1.9858576   -4.9019472     4858.214            1 
  392000    1.8588921   -4.8958985    4870.6268            1 
  393000    1.8965459   -4.9453269    4851.4298            1 
  394000    1.9336186   -4.9227909    4864.3978            3 
  395000    1.9152589   -4.8986159    4868.0687            1 
  396000     1.961862   -4.9240293    4841.7563            1 
  397000    1.8739167   -4.8690132    4873.3008            1 
  398000    1.9188845   -4.8557351    4880.7339            3 
  399000    1.9218598   -4.8639471    4862.0012            2 
  400000    1.9440715   -4.9036912    4871.5117            1 
  401000    1.9257608   -4.9290628    4849.2158            1 
  402000    1.9189523   -4.8816419    4843.2481            1 
  403000    1.9160259    -4.927512    4818.6611            1 
  404000    1.9259398   -4.9279255    4835.9557            1 
  405000    1.9425423   -4.8666637    4868.5654            1 
  406000    1.9097033   -4.8939968    4873.3143            1 
  407000    1.9594314   -4.9641378    4817.2695            1 
  408000    1.9115996   -4.8884158     4861.554            1 
  409000     1.919299   -4.9007969    4837.5428            1 
  410000    1.9055811   -4.9008386    4858.5558            1 
  411000    1.9456918   -4.8711083    4822.1805            1 
  412000    1.8645167   -4.8726422    4891.4644            1 
  413000    1.9335499   -4.8802598    4902.9858            2 
  414000    1.9325097   -4.9492291    4844.5038            1 
  415000    1.9036421   -4.8462041    4886.1555            1 
  416000    1.9284835   -4.9561398    4858.1813            1 
  417000    1.9267384    -4.902908     4832.106            1 
  418000     1.879502    -4.933763    4862.1119            1 
  419000    1.8955106   -4.9205195     4821.087            2 
  420000    1.9457928   -4.8724351    4869.9135            1 
  421000    1.9408068   -4.8860881    4859.5259            1 
  422000    1.9242289   -4.8997605     4844.923            1 
  423000    1.9260679   -4.8839688    4921.4557       -1e+20 
  424000    1.9355491   -4.8550237    4880.0082            1 
  425000    1.9390382   -4.9098441    4876.2133            1 
  426000    1.8856435   -4.9109481    4852.4536            2 
  427000    1.9178102   -4.8743391    4867.5284            1 
  428000    1.9203086    -4.881296    4876.8284       -1e+20 
  429000     1.907901   -4.8531616    4852.4713            2 
  430000    1.9337106   -4.8899094    4857.7077            2 
  431000    1.9131175   -4.8892163     4873.764            1 
  432000    1.8949763   -4.9506481    4851.1754            1 
  433000    1.8431329     -4.91594    4864.7081       -1e+20 
  434000    1.9108814    -4.850281    4868.0291            1 
  435000    1.9146572   -4.8652554    4893.1748            2 
  436000     1.928266   -4.8548106    4877.7072            1 
  437000    1.8798516   -4.8259563    4850.7635            1 
  438000    1.9355362    -4.893052    4851.3165            1 
  439000    1.9244041    -4.918481    4861.0277            1 
  440000    1.9154277   -4.8982313    4821.9599            2 
  441000    1.9137493   -4.9648858    4830.7054       -1e+20 
  442000    1.9246963   -4.9195512    4821.0783            1 
  443000    1.9754075   -4.9264828    4874.2672            2 
  444000    1.9123369   -4.9410313    4856.7042       -1e+20 
  445000    1.9841625   -4.8921984    4852.8036            1 
  446000    1.9070597   -4.8792647     4842.217            1 
  447000    1.9063083   -4.8983563    4874.9161            1 
  448000    1.9056409   -4.8649751     4888.608            1 
  449000    1.9531631   -4.8833181    4864.0106            1 
  450000     1.945905   -4.9093923    4859.2621            1 
  451000    1.9116298   -4.8977725    4869.7021            1 
  452000    1.9479113   -4.8684217    4849.7182            1 
  453000    1.9130355   -4.9348551    4848.8853            2 
  454000    1.8888513   -4.9123127     4842.626            1 
  455000    1.9386602   -4.8746024    4896.9949            1 
  456000    1.9461908   -4.8764077    4857.8905            3 
  457000    1.9441094   -4.8845442    4842.2733            1 
  458000    1.9072873   -4.8515069    4851.8959            3 
  459000    1.9385257   -4.8889863    4864.9321            1 
  460000    1.8645624   -4.9022767    4855.6081       -1e+20 
  461000    1.8872939   -4.8763964    4893.9533            1 
  462000    1.9765853   -4.8969057    4861.9515            2 
  463000    1.9373772   -4.9133397    4888.6328            3 
  464000    1.8962798   -4.8664616    4855.0448            1 
  465000    1.9423398   -4.8905998      4861.78       -1e+20 
  466000    1.9310268   -4.9466055    4834.5683            1 
  467000    1.9152191   -4.8826685    4850.6174            1 
  468000    1.9396589   -4.9020664    4854.5436            2 
  469000     1.859007   -4.8775945    4880.1623            1 
  470000    1.9544919   -4.9343241    4869.7362       -1e+20 
  471000    1.9032903   -4.9093843    4843.1164            1 
  472000    1.9050945   -4.8733608    4894.0101            1 
  473000    1.9083243   -4.8576417    4852.0859            1 
  474000    1.9047418   -4.8803421    4883.5927            1 
  475000    1.9130936   -4.8976505     4842.135            1 
  476000     1.943281   -4.9358948    4857.6068            1 
  477000    1.9007631   -4.8836808    4830.6815            1 
  478000    1.9207072   -4.8895678    4860.2229            1 
  479000    1.9345979   -4.8350006    4898.0079            1 
  480000    1.8996775     -4.88459    4861.4887            3 
  481000    1.8890609   -4.8813089    4843.9302            1 
  482000    1.8951237   -4.9653577    4846.5658            2 
  483000    1.8899455   -4.9480144    4867.4877            1 
  484000    1.8631702   -4.8783593    4854.2373            1 
  485000    1.9368366   -4.9125731    4848.1615       -1e+20 
  486000    1.9137867   -4.8854416    4845.6169            1 
  487000    1.8945769   -4.9072797    4876.3683            1 
  488000    1.9361742   -4.9229489     4862.378            1 
  489000    1.8723996    -4.849139    4850.2285            1 
  490000    1.9403757   -4.9112039    4862.4841            1 
  491000    1.9676329    -4.883694    4877.3968            2 
  492000    1.9304867   -4.8932492    4863.8304            2 
  493000    1.9160196    -4.863465    4878.8825            1 
  494000    1.9281764   -4.9149349    4867.3075            1 
  495000    1.9370656   -4.9293963     4845.542            1 
  496000    1.9050499    -4.899241    4852.1003       -1e+20 
  497000    1.8937954   -4.9456775    4818.9291            1 
  498000    1.9361147   -4.8827224    4885.1091            1 
  499000    1.9295997   -4.9284486    4844.8049       -1e+20 
  500000    1.9537241   -4.9106814    4846.6948            1 
  501000    1.9062717   -4.8472641    4831.0667            1 
  502000    1.8904143   -4.8780779    4848.9482            2 
  503000    1.9000608   -4.9069619     4878.444            1 
  504000    1.9164168   -4.8482035    4874.1993            1 
  505000    1.9032339   -4.9211302    4857.9394            2 
  506000    1.9128384   -4.9068753    4859.2141            2 
  507000    1.9128047   -4.9017489    4867.0641       -1e+20 
  508000    1.9199792   -4.8804573    4900.1509            1 
  509000    1.9451023   -4.8707496    4844.4017            1 
  510000    1.9406371   -4.9135534     4828.752            1 
  511000     1.920936   -4.9394188    4846.0021            2 
  512000    1.9332125   -4.9278074    4855.3292            1 
  513000    1.9083143   -4.8440009    4890.7177            1 
  514000    1.8968744   -4.9226029    4841.6497            1 
  515000    1.9168968   -4.8818229    4876.3465            1 
  516000    1.9320816   -4.9168682    4869.7727            2 
  517000    1.8961102   -4.8691561    4847.3423       -1e+20 
  518000    1.9176553   -4.8938755    4868.8224            2 
  519000    1.9314558   -4.9297231    4861.3229            1 
  520000    1.9238574   -4.8986688    4835.0592            1 
  521000    1.9199318   -4.9289151    4850.1032            1 
  522000    1.8636302   -4.8736498     4866.309            1 
  523000    1.9412192   -4.8767586    4891.2751            1 
  524000    1.8454358   -4.8761843    4884.3884            1 
  525000    1.9159079   -4.8779412    4869.2362       -1e+20 
  526000    1.9427902   -4.8952599    4873.7423            1 
  527000    1.8982251   -4.8873929    4858.8115            1 
  528000    1.9222512   -4.8949819    4877.5033            2 
  529000    1.9327473   -4.8751124    4879.3737            1 
  530000    1.9226455   -4.8714027    4867.7764            1 
  531000    1.9012065   -4.8722179     4867.119            1 
  532000    1.9181026   -4.9181366    4829.4423            1 
  533000    1.8975386   -4.9198214    4861.4606       -1e+20 
  534000    1.9371694    -4.921395    4854.2751            1 
  535000    1.9383305   -4.8991082    4845.6645            1 
  536000    1.9793944    -4.885191    4869.5628            1 
  537000    1.8824115   -4.8881907    4848.8733            1 
  538000    1.8911772   -4.9140989    4883.4629            1 
  539000    1.9066074   -4.8956491    4873.7729            2 
  540000    1.9219762   -4.8888344     4878.176            1 
  541000     1.906894   -4.9105644    4842.3215            1 
  542000     1.879202   -4.9183973    4854.9042       -1e+20 
  543000    1.9685109   -4.9039189     4843.669            2 
  544000    1.9368747   -4.9052835    4865.6143            1 
  545000    1.9212275   -4.8746331    4846.1793            1 
  546000    1.8798065   -4.9707259    4842.8178            1 
  547000    1.8910601   -4.9102072    4832.3073       -1e+20 
  548000     1.915519     -4.89297    4854.9521            1 
  549000    1.9068371   -4.8897514    4865.6081            3 
  550000    1.9043213   -4.9438799    4859.1691       -1e+20 
  551000    1.9040667   -4.9290195    4864.7062            1 
  552000    1.8987436    -4.935264    4839.5996            1 
  553000    1.8923928   -4.8878924    4869.0632            1 
  554000      1.95642   -4.8947468     4871.525            1 
  555000    1.9006116   -4.8679084    4831.4754            1 
  556000    1.8983335   -4.8964687    4885.6602            2 
  557000    1.9012852   -4.8916195    4879.0628       -1e+20 
  558000    1.9550018   -4.8837145    4878.7506            1 
  559000    1.9036643   -4.8808029    4873.5243            1 
  560000    1.9237957   -4.8524994    4898.8123            3 
  561000    1.9112376   -4.9087334    4870.7311       -1e+20 
  562000    1.9042742    -4.920783    4856.4934            4 
  563000    1.8950187   -4.9156406    4880.6873            1 
  564000    1.9091116   -4.8397549    4851.8673            3 
  565000    1.9071647   -4.8733803    4875.4911            1 
  566000    1.9107556   -4.8850781    4861.3862            1 
  567000    1.9294115   -4.8253807    4873.8003            1 
  568000    1.8962873   -4.9094533    4855.7721            1 
  569000    1.9139542   -4.8701278    4875.4223            1 
  570000    1.9234822   -4.8780645    4869.0716            1 
  571000    1.9508344   -4.8919311    4871.2088            1 
  572000    1.9644008   -4.9411729    4851.4459            3 
  573000    1.9397848   -4.8764825    4878.4694            2 
  574000    1.9586582   -4.8746582    4886.9034            1 
  575000    1.8945706   -4.8736704    4873.7445            1 
  576000    1.9122825   -4.9048849    4877.5085       -1e+20 
  577000    1.9389835   -4.8832199    4860.2772       -1e+20 
  578000    1.8844091   -4.8848452    4890.9964            3 
  579000     1.949475   -4.8928053    4862.2094            2 
  580000    1.9213571   -4.8961049    4865.1089            2 
  581000     1.959871   -4.8759314    4867.1441            2 
  582000    1.9446108    -4.942347    4837.3151            2 
  583000    1.9353095   -4.9280896    4826.3526            1 
  584000    1.9195229   -4.9145661     4855.381            1 
  585000    1.9325165   -4.8572893    4875.5735            1 
  586000    1.9462217   -4.9065248    4847.9425            1 
  587000    1.9477915     -4.85761     4862.587            1 
  588000    1.9377501   -4.9033245     4846.942            1 
  589000    1.9034917   -4.8918578    4878.8099            1 
  590000    1.8967201   -4.9143249    4862.9011            1 
  591000     1.912317   -4.9201043    4874.6635            1 
  592000    1.9329007    -4.903698     4845.523            1 
  593000    1.8804638   -4.9442041    4825.7561            1 
  594000    1.9430372   -4.8654966    4838.6586            1 
  595000    1.9558379   -4.9105371    4878.0631            2 
  596000    1.9360675    -4.913294    4846.3412            1 
  597000    1.9339136   -4.8946141    4819.8802            1 
  598000    1.9646481   -4.8864403    4821.7267            1 
  599000    1.9063802   -4.8654998    4867.6282            1 
  600000    1.8934766   -4.9109559    4834.5412            1 
  601000     1.889152   -4.8681064    4884.5716            1 
  602000    1.9326831   -4.8851406    4839.0881            2 
  603000    1.9500379   -4.9328386    4855.6413            1 
  604000    1.9256049   -4.8645483    4846.0966            1 
  605000    1.9085577   -4.8873772    4839.6082       -1e+20 
  606000    1.9076022   -4.8744734    4878.6468            1 
  607000    1.8951125   -4.9029557    4867.7451            1 
  608000     1.919634   -4.8813442    4839.7335            1 
  609000    1.9402037   -4.9078516    4837.8536            1 
  610000    1.9239467    -4.922566     4852.669            2 
  611000    1.9047354   -4.8870428    4868.4446            1 
  612000    1.9357111   -4.9541657    4822.8975            1 
  613000    1.9171876   -4.8772942    4856.9006            2 
  614000     1.897332   -4.9246031    4863.7537            1 
  615000    1.9194957   -4.9082817    4847.1977            1 
  616000    1.9133346   -4.9167615    4845.7109            1 
  617000    1.8913167   -4.9038218    4860.6055            2 
  618000    1.9302582   -4.8705177    4829.6896            2 
  619000    1.9112289   -4.9191183    4848.5244            2 
  620000    1.9596118    -4.878973    4855.2405            2 
  621000    1.9460635   -4.8977375    4859.6477       -1e+20 
  622000     1.919888   -4.9187636     4831.131            1 
  623000    1.9436827   -4.8672819    4876.7711            1 
  624000    1.9054409   -4.8541206     4877.692            1 
  625000    1.9025925   -4.8294466    4886.4547            1 
  626000    1.9339194   -4.9531861    4841.6673            1 
  627000    1.9514797   -4.9146128    4839.3332            1 
  628000    1.9094173   -4.9148731    4880.2001            1 
  629000    1.9364191   -4.9439798    4871.4643            1 
  630000    1.9650268   -4.9128747    4828.6287            1 
  631000    1.9269209   -4.8832748    4868.1698            1 
  632000    1.8956694   -4.8894442    4866.2112            1 
  633000     1.932992   -4.8597257     4839.375            1 
  634000    1.9259317   -4.8730723    4876.0216            1 
  635000      1.90691   -4.9145809    4863.6218       -1e+20 
  636000    1.9478877     -4.89654     4858.238            2 
  637000    1.9292773   -4.9026992    4847.7915            1 
  638000    1.9165769   -4.9262411    4863.5332            1 
  639000    1.9360857   -4.9264736    4829.2287            1 
  640000    1.9214701   -4.9201415    4880.6407            1 
  641000    1.9342105   -4.9211176    4864.3563            1 
  642000    1.8949827   -4.9127485    4839.7568            1 
  643000    1.9318361   -4.9142011    4851.3701            2 
  644000    1.9680079   -4.8620268    4847.0198            2 
  645000    1.8960626   -4.8681928    4881.4663            2 
  646000    1.9578546   -4.9133329    4872.3795            2 
  647000    1.9317651   -4.9215118    4855.6644            1 
  648000     1.881433   -4.8939715     4879.849            1 
  649000    1.9285372   -4.8894663    4841.0801            1 
  650000     1.901765   -4.9245041    4878.5739            1 
  651000    1.9339959   -4.9102436    4862.4062            4 
  652000    1.8936543   -4.8687104    4868.7627            1 
  653000     1.914524   -4.9140704    4886.5508            2 
  654000     1.945998   -4.9120964    4818.8968            1 
  655000     1.879707   -4.8468785    4865.0208            1 
  656000    1.9362562    -4.867949    4821.8773       -1e+20 
  657000    1.9155362   -4.8887853    4864.4857            2 
  658000    1.8946928   -4.9088832    4844.9465            3 
  659000    1.9568203   -4.8542691    4895.2813            1 
  660000    1.9384719   -4.9460614    4838.3768            1 
  661000    1.9350803    -4.920176    4860.7516            1 
  662000    1.9107346   -4.8794413    4842.4919            1 
  663000    1.9114959   -4.8787823    4888.8135            1 
  664000    1.9214883   -4.9110653    4874.2259            1 
  665000    1.9251392   -4.9016485    4853.6518            1 
  666000    1.9290504   -4.9100638    4856.1516            1 
  667000    1.9600494   -4.8691618    4890.9878            1 
  668000    1.9253035   -4.8781779    4889.5173            1 
  669000    1.9138881   -4.9093682     4854.194            1 
  670000    1.9424662   -4.8843655    4870.3081       -1e+20 
  671000    1.9035723   -4.9103513    4818.6884            1 
  672000     1.910742   -4.8968706    4864.4215            3 
  673000     1.888416   -4.8667256    4853.9668            1 
  674000    1.9324733   -4.8713315    4884.3072       -1e+20 
  675000    1.9022022   -4.8997972    4842.0908       -1e+20 
  676000    1.9192279   -4.9248444    4852.7101            1 
  677000    1.9663422    -4.886887    4860.7265            1 
  678000    1.9292166   -4.9049738    4877.2858            1 
  679000    1.9528198   -4.8970635     4866.081            1 
  680000    1.9115214   -4.9254308    4833.3155            1 
  681000    1.8912862   -4.8856772    4876.3375       -1e+20 
  682000    1.9378476   -4.8584163    4866.2537       -1e+20 
  683000    1.8965446   -4.9439505    4871.0018            1 
  684000    1.9482041     -4.85432    4899.9563            1 
  685000    1.9091109   -4.9306737    4853.3792       -1e+20 
  686000    1.9630971   -4.8808724    4865.0132            1 
  687000    1.8690194   -4.8656487    4893.3413       -1e+20 
  688000    1.8750288   -4.8061719     4867.797            1 
  689000     1.929647   -4.8995917    4868.1165            1 
  690000    1.9101294   -4.8946282      4849.52            1 
  691000    1.9053846   -4.9055399    4844.6767            1 
  692000    1.9154545   -4.8838611    4875.3139            3 
  693000    1.9101438   -4.8988769     4849.682            1 
  694000    1.9473021   -4.8972001    4844.1923            1 
  695000    1.8965273   -4.8920949    4848.6357            1 
  696000    1.9443991   -4.8757236    4828.0384            1 
  697000    1.9350699   -4.9204944     4856.552            1 
  698000    1.9047082   -4.8417958    4876.9593            1 
  699000    1.9330792   -4.8988685    4855.0821            3 
  700000    1.8815116   -4.9217658    4843.4316            1 
  701000    1.9205826   -4.8648229    4882.4843            2 
  702000    1.9119546   -4.8641492    4866.8473            1 
  703000    1.9369211   -4.8980243    4850.1483            1 
  704000    1.9151985   -4.8712645    4848.7014       -1e+20 
  705000    1.9527626   -4.9134134    4851.0782            1 
  706000    1.8943081   -4.9342389    4863.9907            1 
  707000    1.9157977   -4.9031592    4865.6699            1 
  708000    1.9332707   -4.8982542    4861.8961            1 
  709000    1.9221814   -4.8947889    4845.7189            2 
  710000    1.8940061   -4.9312578    4838.4069       -1e+20 
  711000     1.947808   -4.8927318    4876.9879            1 
  712000    1.9040151   -4.8475276     4891.099       -1e+20 
  713000    1.9251218   -4.8593962    4855.0591       -1e+20 
  714000    1.9451726   -4.8920802    4890.5311            1 
  715000    1.9057184   -4.8438158    4870.1138            1 
  716000     1.946084   -4.8976347    4860.0245            1 
  717000    1.9278347   -4.9505035    4853.5836            1 
  718000      1.91039   -4.9248541    4879.2219            1 
  719000     1.908587   -4.8893723    4852.9282            2 
  720000    1.9050271   -4.9268097    4845.8348            1 
  721000    1.9144155   -4.9050767    4835.2378            1 
  722000    1.9019882   -4.9187794    4845.4788            1 
  723000    1.9059482   -4.9439859    4847.6233            1 
  724000     1.893992   -4.8827046    4844.6165       -1e+20 
  725000     1.881149   -4.8789703    4871.2371            1 
  726000     1.948424   -4.8631934    4853.6976            1 
  727000    1.9149757   -4.9362099    4845.9953            1 
  728000      1.97476   -4.9464871    4842.0829            3 
  729000    1.8965629   -4.8935508    4849.6334       -1e+20 
  730000    1.8781089   -4.8621933    4843.3394            1 
  731000    1.9307093   -4.9311443    4837.7619            1 
  732000    1.9274564   -4.9307548    4848.5126            1 
  733000    1.9213472   -4.9011894    4865.2288            2 
  734000    1.9061397   -4.8901897    4834.8806            1 
  735000    1.8878036    -4.893607    4874.4706       -1e+20 
  736000    1.9088621   -4.8906738    4875.0272            1 
  737000    1.9187998   -4.9138056    4825.2272            3 
  738000    1.9418017   -4.8872563    4824.0916            1 
  739000    1.9335606   -4.8701548    4871.1909            1 
  740000    1.8795185   -4.9274536    4863.9896            1 
  741000    1.9462009   -4.9194794     4848.197            1 
  742000    1.9491321    -4.847179    4866.0973            1 
  743000    1.8961239   -4.9491804    4822.5108            2 
  744000    1.9034023   -4.9222598    4827.9491            1 
  745000    1.8596026    -4.914818    4859.6716            1 
  746000    1.9238874   -4.8449442    4849.5246            1 
  747000    1.9020069   -4.9141284    4862.4361            1 
  748000    1.9479458   -4.9184471     4871.369            1 
  749000    1.9051183   -4.8860334    4875.0816            1 
  750000     1.915985   -4.9340827    4872.9146       -1e+20 
  751000    1.9418419   -4.8943097    4818.0826            1 
  752000     1.905808   -4.9276618    4880.7396       -1e+20 
  753000    1.9163644   -4.9180987    4828.1046            1 
  754000    1.8698671   -4.8425001    4857.2632       -1e+20 
  755000     1.939267   -4.8828611    4837.6786            2 
  756000    1.9466377   -4.9183569    4872.5053            1 
  757000    1.9141232   -4.9088079    4859.5939            1 
  758000    1.9221221   -4.8880138    4872.4705            1 
  759000    1.9265998   -4.9010359    4837.0328            1 
  760000     1.895391   -4.9149419     4871.327       -1e+20 
  761000    1.9315062   -4.9453158    4856.5936            1 
  762000    1.9102714   -4.9062825    4866.5353            4 
  763000    1.9088856   -4.8766061    4835.7587            2 
  764000    1.9569214   -4.8988541    4869.2601            1 
  765000    1.8840328   -4.8971828    4844.7256            1 
  766000    1.9926012   -4.9329087    4846.0674            1 
  767000    1.9181616   -4.8756628    4854.0858            2 
  768000    1.9633786   -4.9038182    4876.7891            1 
  769000    1.8580576   -4.9108846    4843.0838            1 
  770000    1.9172015   -4.8697559    4869.5594            1 
  771000    1.9110846   -4.8842966    4839.4994            2 
  772000    1.9327178   -4.8903336    4847.4963            1 
  773000    1.9165326   -4.9372401    4815.3969            2 
  774000    1.9462535   -4.9043983    4853.5214            1 
  775000      1.91281   -4.9106826    4879.1891            1 
  776000    1.9632702   -4.8686748    4847.4776            2 
  777000    1.9294884   -4.9353593    4837.5558            1 
  778000    1.9302046    -4.897273     4843.839            2 
  779000    1.8909025   -4.9124363    4856.4365            1 
  780000    1.8729382   -4.8967495    4874.8355            4 
  781000    1.8738699   -4.8929388    4877.7181            1 
  782000    1.9330276   -4.8966122      4861.51            1 
  783000     1.867727   -4.9406234    4858.5416            1 
  784000    1.9110104   -4.8926831     4844.002            1 
  785000    1.9064083   -4.9430625    4835.4265            1 
  786000    1.8925985   -4.9244148    4863.8546            1 
  787000    1.9197599   -4.8785951      4900.54            1 
  788000    1.9012022   -4.9142102    4846.9437            1 
  789000    1.9022543   -4.8848742    4866.3212       -1e+20 
  790000    1.8834394   -4.9087702    4851.2439            1 
  791000    1.9098708   -4.8968516    4879.0728            1 
  792000    1.9156544   -4.8980973    4840.0859            1 
  793000    1.9288387   -4.9281137    4857.5413            1 
  794000    1.9453964   -4.9152441    4879.0516            1 
  795000    1.9152849   -4.9056919     4834.985            1 
  796000     1.933198   -4.9044482    4869.3511       -1e+20 
  797000     1.871844   -4.9388195    4857.2507            1 
  798000    1.9364935   -4.9017119     4877.206            2 
  799000    1.8917426   -4.9316641    4857.9636            1 
  800000    1.9070262   -4.9133483    4872.5071            1 
  801000    1.9455238   -4.8045675    4890.4626       -1e+20 
  802000    1.9022552   -4.9474653     4868.838            2 
  803000    1.9186774   -4.9044496    4881.8504            1 
  804000     1.921567   -4.8695203    4850.7426            2 
  805000    1.9545336   -4.9387235    4866.4373            1 
  806000    1.9189441   -4.8663975    4868.4703            1 
  807000    1.8835903   -4.8947753    4837.7417            1 
  808000    1.9158212   -4.9253737    4873.7708            1 
  809000    1.9317869   -4.8839094    4878.5932            1 
  810000    1.9731848   -4.9085633     4838.631            1 
  811000     1.909598   -4.9206562    4840.7863            1 
  812000    1.8787664    -4.938022    4833.1766            1 
  813000    1.9439559   -4.8789634    4850.2019            1 
  814000    1.9252809    -4.859382    4890.2177            1 
  815000    1.8826544    -4.888565    4857.0948            1 
  816000    1.8944516   -4.9086938    4836.4456            2 
  817000    1.9057989   -4.8778749     4840.016            1 
  818000    1.9478928   -4.9160312    4852.3526       -1e+20 
  819000    1.8755939   -4.9186318    4853.2795            1 
  820000     1.944909   -4.9614403    4857.1492            1 
  821000    1.9048335   -4.8665573    4843.3134            2 
  822000    1.8861224   -4.8646877    4845.1346            1 
  823000    1.8880474   -4.9028453    4847.9644            2 
  824000    1.9115461   -4.8736451    4870.4855            2 
  825000    1.9429989   -4.8992773    4842.6646            2 
  826000    1.9228775   -4.8941384    4838.5099            1 
  827000    1.9292416   -4.8964476    4847.5625            1 
  828000    1.9119905   -4.9159869    4882.6008            1 
  829000    1.8739431   -4.8318414    4861.1212            1 
  830000    1.9117495   -4.8911015    4860.9459            1 
  831000    1.9191169    -4.925629    4879.9009            1 
  832000    1.9401441   -4.9020985    4860.9382            1 
  833000    1.9165689   -4.9305286    4861.9211            1 
  834000    1.8687432   -4.9019058    4884.5615            1 
  835000    1.9313941   -4.8806201    4860.1724            1 
  836000    1.9375481   -4.9089724    4830.6752            1 
  837000    1.9354798   -4.8857916    4866.4631            1 
  838000     1.954275   -4.8913877    4858.4602            1 
  839000    1.9267415   -4.8903272    4846.3695            1 
  840000    1.9199819   -4.9328194    4849.8862            1 
  841000    1.9030405   -4.9062824    4844.4462            1 
  842000    1.9051344   -4.8936129    4856.8153            1 
  843000    1.8986253   -4.9035165    4890.5878       -1e+20 
  844000    1.8838484   -4.8702392    4900.0637            2 
  845000    1.9219401   -4.8892005    4869.1459       -1e+20 
  846000    1.9095351   -4.8452042    4877.1391            2 
  847000    1.9671923    -4.850125    4860.5809       -1e+20 
  848000    1.9403355   -4.9209207    4840.2308            1 
  849000    1.9421481   -4.8940096    4875.4479       -1e+20 
  850000    1.9236887    -4.940607     4868.877            1 
  851000    1.9251465   -4.9211885    4855.5884            1 
  852000    1.9165361   -4.9149939    4857.6171            1 
  853000     1.913188   -4.8850516    4865.1271            1 
  854000    1.9172153   -4.8963449    4858.6848            1 
  855000    1.9389786   -4.8933931    4833.8695            2 
  856000    1.8993079   -4.8331551    4860.5905            1 
  857000    1.9494106   -4.9009726    4853.3874            1 
  858000    1.8907044   -4.9279526    4852.7199            2 
  859000    1.9545087   -4.8374105    4873.8167            1 
  860000    1.9229377    -4.894949    4859.0928            1 
  861000    1.8985718    -4.876048    4849.0019            1 
  862000    1.9168899   -4.8919868    4844.4485            1 
  863000    1.9074334   -4.9067547     4887.304            1 
  864000    1.9171294   -4.8593086    4876.4156       -1e+20 
  865000    1.9349376   -4.8700983    4873.8764            1 
  866000    1.9198994   -4.9301873    4858.4789            1 
  867000    1.8996836    -4.903707    4884.0433       -1e+20 
  868000    1.9338677    -4.881718    4856.7493            1 
  869000    1.8972163   -4.8918102    4867.8624            1 
  870000    1.9310857   -4.9209198    4853.2404       -1e+20 
  871000    1.9093676    -4.895856    4870.1454            1 
  872000    1.9674548   -4.9302985    4837.7123            1 
  873000    1.9500208   -4.8802542    4869.7522            2 
  874000     1.947697   -4.9031726    4837.6896            1 
  875000    1.8836915   -4.8909366    4855.1024            1 
  876000    1.8512632   -4.8915932    4886.9559            1 
  877000    1.8854994   -4.9128087    4851.8876            1 
  878000     1.899157   -4.8835137    4847.8407            2 
  879000    1.9053841   -4.8609982    4897.9886            1 
  880000    1.9333452   -4.9016144    4874.8919            1 
  881000    1.9482741   -4.8977325    4865.6974            1 
  882000    1.8993609   -4.9668888    4817.2266            1 
  883000    1.9363108   -4.9425083     4876.026            1 
  884000    1.9011655   -4.8881987    4816.6827            1 
  885000     1.948973   -4.8610206     4881.616            1 
  886000    1.9419022    -4.898231    4831.7276            1 
  887000      1.90717   -4.9005872    4845.5498            1 
  888000    1.9042618    -4.875858    4831.4565       -1e+20 
  889000     1.945741   -4.9207313    4862.4468            1 
  890000    1.9411772   -4.9227434    4839.9257            1 
  891000    1.9698402   -4.8803193    4849.7636            1 
  892000    1.9534944   -4.9194803    4818.7585            1 
  893000    1.9419559   -4.8596286    4851.8386            1 
  894000    1.9104118    -4.932302    4854.3595            1 
  895000    1.9274639   -4.8591428    4878.2157            1 
  896000    1.9096657   -4.8977414    4866.6044            1 
  897000    1.8676963   -4.8715687    4869.8946            1 
  898000    1.9244508   -4.8752927    4863.3679            1 
  899000    1.8969632   -4.8944966    4885.8462            2 
  900000      1.94607    -4.879264    4844.3922            1 
  901000    1.8858146   -4.8901962    4865.8201            1 
  902000    1.8874258   -4.8867637    4868.6566            1 
  903000    1.8785345   -4.9113854     4876.214            1 
  904000    1.9100433   -4.9340896    4831.6915            1 
  905000    1.9183192   -4.9144076    4880.8484            1 
  906000    1.9139867   -4.9158911    4853.8291       -1e+20 
  907000    1.9215177   -4.9033872    4864.5267            1 
  908000    1.9201414   -4.8801297    4828.7587            1 
  909000    1.9261589   -4.8866683    4839.6761            1 
  910000    1.9100816   -4.9363428     4835.456            1 
  911000     1.901296   -4.8947752    4870.7615            1 
  912000    1.8975834   -4.8954844    4854.3248            2 
  913000    1.9056213   -4.8589565    4860.0705            1 
  914000    1.9276916   -4.9269767    4826.6103            2 
  915000    1.9149511   -4.8826509    4866.5835            1 
  916000    1.8949558   -4.9099861    4829.9728       -1e+20 
  917000    1.8966428   -4.8971899    4852.3104            1 
  918000    1.8990902   -4.9361162    4872.1784            1 
  919000    1.9485911    -4.894157    4855.1379            1 
  920000    1.9211097   -4.8793659    4846.4448            2 
  921000    1.9067921   -4.8723172    4882.3174            1 
  922000    1.9410029   -4.8998574    4862.2469            1 
  923000    1.9347532   -4.9021681    4821.1025            1 
  924000    1.9707399   -4.8981722    4860.4637            1 
  925000    1.9266645   -4.8881949    4857.3572            1 
  926000    1.9348753   -4.8824519    4833.6885            2 
  927000    1.9438123   -4.9148224    4854.5414            1 
  928000    1.9413801   -4.9407242    4855.0365            1 
  929000    1.9166839   -4.8568115    4873.2068            1 
  930000    1.9720542   -4.8821592    4850.3568            1 
  931000     1.930811   -4.8539068     4857.948            1 
  932000    1.9384463   -4.8851605    4874.6236            1 
  933000    1.9705243   -4.8701196    4879.6258            1 
  934000    1.9298536   -4.8888902    4829.3791            1 
  935000    1.9256566   -4.8706612    4844.2432            1 
  936000    1.9128915   -4.8695168    4883.7231            1 
  937000    1.9627526   -4.9556522    4822.6472            1 
  938000    1.8883676   -4.8715059    4873.3744            1 
  939000    1.8924041   -4.8803221    4880.2433            1 
  940000    1.9593332   -4.8623199    4858.4298            1 
  941000    1.9015613    -4.901586    4870.4336            1 
  942000    1.9170656   -4.8529844      4845.79            1 
  943000    1.9581808   -4.9810232    4838.1589            1 
  944000    1.9733606    -4.898638    4872.6046            2 
  945000    1.9311005   -4.9243752    4860.7632            2 
  946000    1.9020324   -4.8888241    4836.6117            1 
  947000    1.8820761   -4.9313302    4863.7048            1 
  948000    1.9287771   -4.9008997    4832.7619            1 
  949000    1.9012439   -4.9117889    4856.0307            1 
  950000     1.960439   -4.8897824    4862.9277            3 
  951000    1.8911304   -4.9034431    4855.4337            1 
  952000    1.9284462   -4.8864465    4872.9822            2 
  953000      1.91554   -4.8968133    4869.3896            1 
  954000    1.9425564   -4.9273442    4843.4939            1 
  955000    1.9219222   -4.8457658    4876.8684            1 
  956000    1.8959106   -4.8622648    4867.5302            1 
  957000    1.9387923    -4.931033    4845.2015            2 
  958000    1.8937542   -4.8753881    4880.9673            1 
  959000    1.8994451     -4.86275      4878.83            1 
  960000    1.9508766   -4.9663003    4822.1022            1 
  961000    1.9058547   -4.9190354     4827.268            1 
  962000    1.9179327   -4.9561321    4827.0465            4 
  963000     1.922347    -4.868784    4865.9886            1 
  964000    1.9366251   -4.9063663    4845.9236       -1e+20 
  965000    1.9594529   -4.8430615    4898.0419            1 
  966000    1.9353089   -4.9399985    4866.1525            1 
  967000    1.9303977   -4.8998415    4834.0158            1 
  968000      1.91932   -4.8381113    4861.5848            1 
  969000    1.9193745   -4.8978863     4864.382            1 
  970000    1.9738309   -4.8768031     4894.392            2 
  971000    1.9357475   -4.8875827    4864.3156            1 
  972000    1.9164984   -4.8431266    4870.5148       -1e+20 
  973000    1.9327222   -4.9395455    4840.5889            1 
  974000    1.9325387   -4.9005945    4860.5252       -1e+20 
  975000    1.8895054   -4.8752742    4860.5417            3 
  976000    1.9058942   -4.9464265    4826.4888            1 
  977000    1.9160747   -4.8385526    4884.0312            2 
  978000    1.9715676   -4.8572362    4864.8118            1 
  979000    1.9281863   -4.8864642     4866.575            1 
  980000    1.9018291    -4.897786    4837.0654            1 
  981000     1.936994   -4.8609021    4877.2997            1 
  982000    1.9334716   -4.8905652    4851.7301       -1e+20 
  983000    1.8897167   -4.8564795    4860.0673            1 
  984000    1.9575671    -4.855477    4886.9584            2 
  985000    1.9412528   -4.9089948    4852.5573            1 
  986000    1.9290963   -4.8703227    4870.5384            2 
  987000    1.9106005   -4.8970809    4878.7573            1 
  988000    1.9167606   -4.9135626    4844.5583            1 
  989000    1.9345455   -4.9245296    4861.4879            1 
  990000    1.9464343   -4.8346567    4895.5067            1 
  991000    1.8808152   -4.8804109    4855.7313            1 
  992000    1.8939967   -4.8469901    4861.9824            1 
  993000    1.9852491   -4.9312632    4858.0047            1 
  994000    1.9111698   -4.8930233    4851.2109            1 
  995000    1.9282711   -4.8762189    4865.4033            1 
  996000    1.9463074   -4.9068943    4851.1302            2 
  997000    1.9329033   -4.8684573    4829.9809            2 
  998000    1.9199937   -4.9056695    4842.7358            1 
  999000     1.958671   -4.9127053    4837.8464            1 
 1000000    1.9640278   -4.8720409    4890.2853            1 
 1001000    1.9470923   -4.8960529    4818.7935            2 
 1002000    1.9065677   -4.8987833    4842.4686            1 
 1003000    1.8993668   -4.9079678    4835.1225            1 
 1004000    1.9786808   -4.8525881    4872.0421            1 
Loop time of 1983.34 on 48 procs for 1000000 steps with 4000 atoms

Performance: 87125.627 tau/day, 504.199 timesteps/s
99.4% CPU use with 48 MPI tasks x no OpenMP threads

MPI task timing breakdown:
Section |  min time  |  avg time  |  max time  |%varavg| %total
---------------------------------------------------------------
Pair    | 102.51     | 109.06     | 115.01     |  23.5 |  5.50
Neigh   | 19.989     | 20.236     | 20.813     |   3.6 |  1.02
Comm    | 106.19     | 114.94     | 123.13     |  34.1 |  5.80
Output  | 1.2125     | 1.2133     | 1.2307     |   0.2 |  0.06
Modify  | 1717.8     | 1726.1     | 1733.1     |   7.8 | 87.03
Other   |            | 11.76      |            |       |  0.59

Nlocal:        83.3333 ave          90 max          77 min
Histogram: 3 4 4 10 2 7 8 6 1 3
Nghost:        1444.02 ave        1469 max        1425 min
Histogram: 2 2 8 11 8 8 4 4 0 1
Neighs:        7810.69 ave        8487 max        7135 min
Histogram: 3 5 4 6 5 5 8 6 5 1
FullNghs:      15621.3 ave       16901 max       14252 min
Histogram: 3 1 9 4 5 5 6 8 3 4

Total # of neighbors = 749821
Ave neighs/atom = 187.45525
Neighbor list builds = 81898
Dangerous builds = 1735

#clear
#
#next RN
#
#jump SELF
Total wall time: 0:33:04
