
units lj                  # Use reduced LJ style units
atom_style atomic         # Uncharged point particles
atom_modify map hash      # Needed for indexing of clusters etc
                          # Used to be able to find where atoms are in relation to each other.

# Define a lattice with which to populate the simulation cell. With units
# set to 'lj' the second argument to the lattice command is the reduced
# density rho* and the spacings are multiples of that required to acheive
# that density. Also define a simulation cell called 'box' in lattice units
# and fill it with atoms. Here we're creating a box which is ten lattice
# constants in each direction.
lattice fcc 1.0 spacing 1 1 1                 # All equal sizes - gives the right reduced density.
Lattice spacing in x,y,z = 1.5874011 1.5874011 1.5874011

region box block 0 10 0 10 0 10 units lattice # Defines a region, "box", in lattice units
create_box 1 box                              # Creates a simulation box as specified above,
Created orthogonal box = (0.0000000 0.0000000 0.0000000) to (15.874011 15.874011 15.874011)
  4 by 4 by 4 MPI processor grid
                                              # with one type of atom
create_atoms 1 box                            # Creates particles on lattice points
Created 4000 atoms
  using lattice units in orthogonal box = (0.0000000 0.0000000 0.0000000) to (15.874011 15.874011 15.874011)
  create_atoms CPU = 0.002 seconds


# Set the mass of the first (and only) atom type.
mass 1 1.0

# Lennard-Jones interactions between particles, 3.5 sigma cut-off. Apply
# long range tail corrections to energy and pressure and set all coefficients
# to unity since we work in reduced units here. Note that this doesn't shift
# the potential such that it goes to zero at the cutoff. That would require
# pair_modify('shift', 'yes').
pair_style lj/cut  3.5      # non-GPU version
pair_modify tail  yes
pair_coeff 1  1  1.0  1.0   # Intearaction between 1 and 1 set with epsilon = 1 and sigma = 1

write_data data.*
System init for write_data ...
Neighbor list info ...
  update every 1 steps, delay 10 steps, check yes
  max neighbors/atom: 2000, page size: 100000
  master list distance cutoff = 3.8
  ghost atom cutoff = 3.8
  binsize = 1.9, bins = 9 9 9
  1 neighbor lists, perpetual/occasional/extra = 1 0 0
  (1) pair lj/cut, perpetual
      attributes: half, newton on
      pair build: half/bin/atomonly/newton
      stencil: half/bin/3d
      bin: standard

#############################
#   M E L T   S Y S T E M   #
#############################

velocity all create 2.4 3143649 mom yes dist gaussian # Assign velocities
                                                    # Temperature 2.4, random number seed, zero linear momentum
						                                                        # Gaussian distribution

timestep 0.002   # simulation timestep
thermo 100       # output thermodynamic data every 100 steps

# Define a fix  in this case with index 1 applied to all
# particles in the simulation. This fix is for simulations
# in the anisotropic NPT ensemble. Note that we use the MTK
# correction.
fix 1 all npt temp 2.4 2.4 0.1 iso 5.68 5.68 0.5 mtk yes tchain 5 pchain 5 # Use NPT ensemble
                                                                         # Set temperature and pressure and damping
                                                                         # Numbers of thermostats in chain and in barostat
run 1000         # run for 10000 steps
Per MPI rank memory allocation (min/avg/max) = 3.630 | 3.630 | 3.630 Mbytes
Step Temp E_pair E_mol TotEng Press Volume 
       0          2.4   -8.3859253            0   -4.7868253   -2.2405722         4000 
     100    1.2648744   -6.5290671            0   -4.6322298    5.3798688    4090.0656 
     200    1.4689665   -6.3033458            0   -4.1004469    5.9766879    4141.9478 
     300    1.5757287   -6.0115718            0   -3.6485695    5.8461614    4272.4316 
     400    1.6979232   -5.7228765            0   -3.1766284    5.8923806    4398.0373 
     500    1.7905817    -5.427445            0   -2.7422439      5.78902    4550.9794 
     600    1.8981736   -5.1583052            0   -2.3117566    5.7628382       4700.9 
     700    2.0060053   -4.8956622            0   -1.8874064    5.8620002    4837.8597 
     800     2.161964   -4.7200774            0   -1.4779421    5.9239068    4947.9616 
     900    2.2454811   -4.5521004            0   -1.1847209    5.7904219    5078.3833 
    1000    2.3595505   -4.4432956            0   -0.9048547    5.8626198    5147.5374 
Loop time of 0.244463 on 64 procs for 1000 steps with 4000 atoms

Performance: 706854.910 tau/day, 4090.596 timesteps/s
99.0% CPU use with 64 MPI tasks x no OpenMP threads

MPI task timing breakdown:
Section |  min time  |  avg time  |  max time  |%varavg| %total
---------------------------------------------------------------
Pair    | 0.059335   | 0.062843   | 0.067757   |   0.7 | 25.71
Neigh   | 0.014058   | 0.014708   | 0.015623   |   0.3 |  6.02
Comm    | 0.11983    | 0.13228    | 0.14353    |   2.1 | 54.11
Output  | 0.00035333 | 0.00036142 | 0.00041807 |   0.0 |  0.15
Modify  | 0.024031   | 0.032397   | 0.041302   |   4.0 | 13.25
Other   |            | 0.001869   |            |       |  0.76

Nlocal:        62.5000 ave          69 max          52 min
Histogram: 1 1 2 2 11 13 10 14 5 5
Nghost:        1247.56 ave        1267 max        1229 min
Histogram: 3 8 10 4 3 9 13 6 5 3
Neighs:        5551.38 ave        6501 max        4539 min
Histogram: 2 2 2 11 13 13 12 4 3 2

Total # of neighbors = 355288
Ave neighs/atom = 88.822000
Neighbor list builds = 87
Dangerous builds = 20

# Equilibrate just above the melting temperature to avoid step fn in T

fix 1 all npt temp 1.25 1.25 0.1 iso 5.68 5.68 0.5 mtk yes tchain 5 pchain 5
run 1000
Per MPI rank memory allocation (min/avg/max) = 3.631 | 3.631 | 3.631 Mbytes
Step Temp E_pair E_mol TotEng Press Volume 
    1000    2.3595505   -4.4432956            0   -0.9048547    5.8626198    5147.5374 
    1100    1.9293476   -4.6486671            0   -1.7553692    5.7282766    4999.4388 
    1200    1.7345312   -4.9601095            0   -2.3589631    5.7791767    4797.9679 
    1300    1.5644489   -5.2082186            0   -2.8621319    5.5594876    4679.9578 
    1400     1.466305   -5.4051147            0   -3.2062071    5.7438096    4550.8751 
    1500    1.3912389   -5.5752414            0   -3.4889048    5.6991581    4468.1976 
    1600    1.3078898   -5.6911598            0   -3.7298155    5.4640743    4431.8167 
    1700    1.2563777   -5.7616223            0   -3.8775269    5.4245998    4398.8172 
    1800    1.2347894   -5.7874194            0   -3.9356984    5.5426245    4376.1587 
    1900     1.276485   -5.8164585            0   -3.9022097    5.4174286    4378.1985 
    2000    1.2569289   -5.8154156            0   -3.9304936    5.6265703     4360.924 
Loop time of 0.241119 on 64 procs for 1000 steps with 4000 atoms

Performance: 716657.826 tau/day, 4147.325 timesteps/s
99.8% CPU use with 64 MPI tasks x no OpenMP threads

MPI task timing breakdown:
Section |  min time  |  avg time  |  max time  |%varavg| %total
---------------------------------------------------------------
Pair    | 0.057269   | 0.061899   | 0.067768   |   0.8 | 25.67
Neigh   | 0.012045   | 0.01278    | 0.013726   |   0.3 |  5.30
Comm    | 0.12131    | 0.13282    | 0.14441    |   2.1 | 55.08
Output  | 0.00033265 | 0.00033913 | 0.00038873 |   0.0 |  0.14
Modify  | 0.021836   | 0.030914   | 0.040461   |   4.2 | 12.82
Other   |            | 0.002371   |            |       |  0.98

Nlocal:        62.5000 ave          69 max          56 min
Histogram: 2 4 6 10 11 5 14 8 3 1
Nghost:        1404.88 ave        1424 max        1383 min
Histogram: 2 2 8 5 15 6 7 13 2 4
Neighs:        6547.39 ave        7241 max        5694 min
Histogram: 2 2 6 5 13 12 3 12 6 3

Total # of neighbors = 419033
Ave neighs/atom = 104.75825
Neighbor list builds = 75
Dangerous builds = 6


# Small amount of linear quench

fix 1 all npt temp 1.25 ${temp} 0.1 iso 5.68 5.68 0.5 mtk yes tchain 5 pchain 5
fix 1 all npt temp 1.25 1 0.1 iso 5.68 5.68 0.5 mtk yes tchain 5 pchain 5
run 2000
Per MPI rank memory allocation (min/avg/max) = 3.631 | 3.631 | 3.631 Mbytes
Step Temp E_pair E_mol TotEng Press Volume 
    2000    1.2569289   -5.8154156            0   -3.9304936    5.6265703     4360.924 
    2100    1.2286603   -5.8361977            0    -3.993668    5.6241311    4349.4792 
    2200    1.2269409   -5.8717257            0   -4.0317744    5.5180369    4342.1783 
    2300    1.1986309   -5.8700478            0   -4.0725509    5.7476716    4320.8513 
    2400    1.2093315   -5.8930263            0   -4.0794826    5.9433331    4296.8949 
    2500     1.217337   -5.9342417            0   -4.1086927    5.8397615    4290.2029 
    2600    1.1832838   -5.9311653            0   -4.1566834    5.9047498    4282.7165 
    2700    1.1570164    -5.956609            0   -4.2215183    5.7363061    4285.0066 
    2800      1.14401    -5.986361            0    -4.270775    5.4750893    4291.6279 
    2900    1.1422664   -6.0243009            0   -4.3113296    5.5836263    4268.5983 
    3000    1.1271591   -6.0429004            0   -4.3525844    5.6694572    4252.5456 
    3100    1.1129247   -6.0352464            0   -4.3662767    5.6843943     4251.916 
    3200     1.113913   -6.0486677            0   -4.3782159    5.8225948     4235.796 
    3300    1.0978287    -6.062589            0   -4.4162577     5.866144    4228.9464 
    3400    1.0990771   -6.1078638            0   -4.4596603    5.8711269    4206.8675 
    3500     1.060548   -6.1210151            0   -4.5305908    5.6917098    4214.4493 
    3600    1.0353773   -6.1444008            0   -4.5917231     5.510841    4217.0323 
    3700    1.0261355   -6.1651914            0   -4.6263729    5.4437818    4214.1577 
    3800     1.038596   -6.2104056            0   -4.6529011     5.540629    4189.9654 
    3900    1.0248888   -6.2340633            0   -4.6971144    5.6595061    4169.8522 
    4000    1.0261395   -6.2524138            0   -4.7135894    5.6886319    4161.7344 
Loop time of 0.507171 on 64 procs for 2000 steps with 4000 atoms

Performance: 681426.497 tau/day, 3943.440 timesteps/s
99.9% CPU use with 64 MPI tasks x no OpenMP threads

MPI task timing breakdown:
Section |  min time  |  avg time  |  max time  |%varavg| %total
---------------------------------------------------------------
Pair    | 0.12625    | 0.1327     | 0.14127    |   0.9 | 26.17
Neigh   | 0.022034   | 0.02283    | 0.024063   |   0.3 |  4.50
Comm    | 0.25197    | 0.27852    | 0.30387    |   3.1 | 54.92
Output  | 0.00070681 | 0.00071995 | 0.00081626 |   0.0 |  0.14
Modify  | 0.04738    | 0.066739   | 0.08692    |   6.3 | 13.16
Other   |            | 0.00566    |            |       |  1.12

Nlocal:        62.5000 ave          68 max          58 min
Histogram: 5 8 4 9 6 8 7 6 5 6
Nghost:        1443.59 ave        1464 max        1421 min
Histogram: 1 1 5 12 11 15 7 5 4 3
Neighs:        6867.22 ave        7705 max        6299 min
Histogram: 6 7 10 9 10 10 4 6 1 1

Total # of neighbors = 439502
Ave neighs/atom = 109.87550
Neighbor list builds = 127
Dangerous builds = 0

#############################
# F R E E Z E  S Y S T E M  #
#############################

# Define solid atoms. This closely follows ten Wolde  Ruiz-Montero and Frenkel  Faraday Discuss  1996  104  93-110
# Compute components of the per-atom q6 vector
compute q6 all orientorder/atom degrees 1 6 components 6 nnn NULL cutoff 1.3 # compute the Q6 parameter.
                                                                             # Use all neighbours within 1.3 unit cell.

# get number of connections
compute coord_number all coord/atom orientorder q6 0.5

# An atom is solid if it has 8 or more connections (of a possible 14)
variable is_solid atom c_coord_number>=8
group solid dynamic all var is_solid    # Must be dynamic to update
dynamic group solid defined

# do clustering
compute cluster solid cluster/atom 1.3 # Create a cluster where all atoms within are solid and max 1.3 units from another member

# define chunks one chunk per cluster
compute clus_chunks solid chunk/atom c_cluster nchunk every compress yes  # Says which atoms are in which chunk

# count the size of each chunk
compute size_chunks solid property/chunk clus_chunks count


# Find the maximum entry in the vector of chunk sizes
variable max_n equal max(c_size_chunks)


# Thermo style which includes this variable
thermo_style custom step temp pe vol v_max_n

thermo ${N}  # Print the thermo information every 100 steps
thermo 100  

# Reset the npt fix at a lower temperature (below freezing)
fix 1  all npt temp  ${temp} ${temp}  0.1  iso  5.68  5.68  0.5  mtk yes tchain  5  pchain  5
fix 1  all npt temp  1 ${temp}  0.1  iso  5.68  5.68  0.5  mtk yes tchain  5  pchain  5
fix 1  all npt temp  1 1  0.1  iso  5.68  5.68  0.5  mtk yes tchain  5  pchain  5

dump dmp2 all dcd ${N} traj_${rand}.dcd
dump dmp2 all dcd 100 traj_${rand}.dcd
dump dmp2 all dcd 100 traj_462431.dcd


# fix rnuntil all halt ${N} v_max_n >= 3980 error soft message no   # Stop when solidified


run 100000 # 5000000  # Run for this many steps
Neighbor list info ...
  update every 1 steps, delay 10 steps, check yes
  max neighbors/atom: 2000, page size: 100000
  master list distance cutoff = 3.8
  ghost atom cutoff = 3.8
  binsize = 1.9, bins = 9 9 9
  4 neighbor lists, perpetual/occasional/extra = 1 3 0
  (1) pair lj/cut, perpetual
      attributes: half, newton on
      pair build: half/bin/atomonly/newton
      stencil: half/bin/3d
      bin: standard
  (2) compute orientorder/atom, occasional
      attributes: full, newton on
      pair build: full/bin/atomonly
      stencil: full/bin/3d
      bin: standard
  (3) compute coord/atom, occasional
      attributes: full, newton on
      pair build: full/bin/atomonly
      stencil: full/bin/3d
      bin: standard
  (4) compute cluster/atom, occasional
      attributes: full, newton on
      pair build: full/bin/atomonly
      stencil: full/bin/3d
      bin: standard
Per MPI rank memory allocation (min/avg/max) = 9.327 | 9.330 | 9.336 Mbytes
Step Temp PotEng Volume v_max_n 
    4000    1.0261395   -6.2524138    4161.7344            2 
    4100    0.9879456   -6.2353977    4150.7606            4 
    4200    0.9990525   -6.2652292    4159.4305            4 
    4300    1.0332511   -6.2592944    4162.8471            4 
    4400   0.99745559   -6.2556904    4152.5301            6 
    4500   0.98697917   -6.2917584    4157.7848            5 
    4600   0.96619687   -6.2956787    4158.7243            9 
    4700   0.99363033   -6.2859064    4149.3559            5 
    4800   0.99463528   -6.2655792    4149.7153           10 
    4900     1.023398   -6.2647929    4148.9451            7 
    5000   0.98827252   -6.2675009     4148.364            5 
    5100   0.98479039    -6.291408    4146.0391            6 
    5200    1.0123859    -6.290545     4145.466           12 
    5300    1.0018471   -6.2534607    4150.2134            7 
    5400    1.0012251    -6.283515    4153.2591            5 
    5500   0.99025068   -6.3037662    4137.2562            4 
    5600    1.0023622   -6.2703168    4144.4893            5 
    5700    1.0146616   -6.2676096    4138.0301            3 
    5800    1.0190733    -6.272866    4126.3587           18 
    5900    1.0049059   -6.2581323    4149.0235            3 
    6000   0.97458601   -6.2651956    4144.7239            3 
    6100    1.0185322   -6.2761258    4156.7131           12 
    6200   0.99623744   -6.2807213    4153.9227            7 
    6300    1.0063149   -6.2913515    4148.0438            6 
    6400    1.0110151   -6.2730959    4154.4229           10 
    6500   0.99575582   -6.2488411     4159.385           13 
    6600    1.0061463   -6.2580641    4159.4065           24 
    6700   0.98722304   -6.2742707    4142.4801           11 
    6800    1.0074241    -6.291549    4145.5566           21 
    6900    1.0068081   -6.2683994    4144.1425           10 
    7000   0.99113437   -6.2857332    4140.2365            9 
    7100    1.0141256   -6.2777234    4142.8529            8 
    7200    1.0007618   -6.2487798      4158.29           15 
    7300   0.99492717   -6.2451577    4159.2572            3 
    7400   0.99671154   -6.2616643    4158.9952            5 
    7500     1.022855   -6.2677693    4158.1928            8 
    7600   0.98452894   -6.2675068    4153.7197           14 
    7700    1.0114097   -6.2739889    4162.8098            8 
    7800    1.0318271   -6.2371583    4166.2627            4 
    7900    1.0247685   -6.2795308    4149.7829            8 
    8000   0.99820012   -6.2700081    4159.3934            9 
    8100   0.99385493   -6.2596012    4158.1429            7 
    8200   0.99684293   -6.2662576    4147.0149            6 
    8300    1.0146335   -6.2450889    4157.5677            4 
    8400   0.99783814   -6.2540365     4155.745            8 
    8500   0.99818545   -6.2482477     4158.471            7 
    8600     0.984505   -6.2407747    4150.5637            5 
    8700   0.99953591   -6.3028734    4147.5318            4 
    8800    1.0146371    -6.275262    4152.7255            8 
    8900   0.99755737   -6.3010675    4150.1157            7 
    9000   0.98375541   -6.2654092    4154.0561            6 
    9100   0.98213576   -6.2648604    4154.0996           10 
    9200    1.0086951   -6.2723409    4156.2955            8 
    9300    0.9877212   -6.2606312    4161.3723            4 
    9400   0.96844682   -6.2717478     4156.956            6 
    9500   0.98453134   -6.2657756    4162.0915            5 
    9600     1.003531   -6.3017001    4158.4602            6 
    9700    1.0008041   -6.2871998    4149.2606            7 
    9800    1.0051236   -6.2469416    4146.9539            5 
    9900    1.0058771   -6.2524465    4133.2013            9 
   10000    1.0171127   -6.2656845    4134.1518            4 
   10100   0.99711971   -6.2892521    4139.4498            3 
   10200   0.99595111   -6.2862685    4141.6944            3 
   10300    1.0025401   -6.2535464    4163.9704            6 
   10400   0.99336624   -6.2393672    4159.2057            3 
   10500   0.99350844   -6.2722334    4135.3275            5 
   10600   0.99737869   -6.2537096    4145.8125           10 
   10700   0.99064955   -6.2466199    4159.8531            5 
   10800    1.0026752   -6.2472367    4166.6403            6 
   10900   0.97452755   -6.2429044    4156.4655            6 
   11000    1.0015044   -6.2347908    4158.8759            3 
   11100    1.0109564   -6.2755171    4157.4362            8 
   11200   0.98971594   -6.2637458    4140.8228            9 
   11300    1.0091941    -6.242124    4147.8788            5 
   11400   0.99659609   -6.2418561    4149.4425            6 
   11500   0.99969909   -6.2820995    4142.8493            8 
   11600    1.0174757   -6.2846856    4148.0153            6 
   11700   0.99682793   -6.2316646    4157.6577           10 
   11800    1.0198796   -6.2144604    4159.3187            9 
   11900    1.0203796   -6.2644235    4153.1841            7 
   12000   0.99759205   -6.2634126    4144.3477            5 
   12100   0.98339352   -6.2927689    4142.7959            5 
   12200   0.99550947    -6.271183    4146.0753           10 
   12300    1.0036515   -6.2673613    4163.1184           12 
   12400    1.0226057   -6.2843906    4159.4707           14 
   12500    0.9899578   -6.2694941    4148.0182            6 
   12600   0.99014121   -6.2791298    4153.7603            6 
   12700    1.0113268   -6.2755799    4151.6334            6 
   12800   0.99935677   -6.2606928    4152.5503           10 
   12900     1.016368   -6.2802734     4138.307           10 
   13000     1.001642   -6.2813351    4138.6668            8 
   13100    1.0033225   -6.2521292    4153.7067            3 
   13200     1.004689   -6.2587129    4166.1829            5 
   13300    1.0008269   -6.3022291    4150.2715            5 
   13400   0.99739455   -6.2744824    4148.4428            7 
   13500    1.0151848    -6.267472    4147.4041            6 
   13600    1.0099366   -6.2821127    4128.7907            4 
   13700   0.99097648   -6.2782427    4133.1453            5 
   13800    1.0089058   -6.2883323    4152.8206            3 
   13900   0.99295741   -6.2361967    4156.4662            4 
   14000    1.0087487   -6.2384886     4142.942            6 
   14100    1.0115041   -6.2726006    4133.1009           11 
   14200   0.99890389   -6.2583315    4142.6592            6 
   14300    1.0006181   -6.2501246    4148.9646            3 
   14400   0.99033977   -6.2687446    4138.8839            6 
   14500    1.0122138   -6.2731213    4152.7768            5 
   14600   0.97346373   -6.2556514    4158.2321            6 
   14700    1.0142638   -6.2708581    4145.2327            3 
   14800    1.0100729   -6.2645661    4147.6457            4 
   14900    1.0104175    -6.310001    4138.1363           19 
   15000   0.97830443    -6.266561    4143.6539           14 
   15100    1.0172422    -6.274645    4156.6237            6 
   15200   0.99879893   -6.2863385    4140.3109           12 
   15300   0.98944168    -6.269996     4132.686            9 
   15400   0.99210109   -6.2686657    4136.7739            7 
   15500   0.99619035   -6.2662557    4168.7508            3 
   15600   0.99762406    -6.266887    4173.4053            5 
   15700    1.0027245   -6.2980103    4145.9038            6 
   15800    1.0218566   -6.3079429    4138.3243            4 
   15900    1.0086989   -6.3217218    4132.6516            7 
   16000   0.99345644   -6.3165752    4144.7328            4 
   16100   0.98451123   -6.2770375    4154.9396            6 
   16200    1.0032739   -6.2687224    4160.4265            3 
   16300   0.98187087   -6.2873755    4151.3259            4 
   16400   0.97817099   -6.2646099    4146.9897            8 
   16500    1.0083238   -6.2700587    4154.1509           12 
   16600      0.99842   -6.2887206    4148.9518           14 
   16700   0.98097288   -6.2946582    4155.2191           16 
   16800   0.99878987   -6.2712857    4169.8112           14 
   16900    1.0019811   -6.2652297    4179.3336            8 
   17000   0.99210955    -6.250512    4170.0785            9 
   17100   0.98082463    -6.271522    4157.9054           10 
   17200   0.97438942   -6.2915331    4146.6684            8 
   17300   0.99744833   -6.2671681     4145.176            6 
   17400    1.0215665   -6.2642276     4150.333            8 
   17500   0.99296379   -6.2651537    4152.2877           14 
   17600    1.0043814   -6.2763054    4148.9548            9 
   17700    1.0127771   -6.2549331    4141.6174            8 
   17800    0.9969225   -6.2673694    4145.5954           19 
   17900    1.0004676   -6.2671076    4139.2444           11 
   18000   0.99605637   -6.2569637    4146.2897            6 
   18100   0.99943046   -6.2895428    4145.1198            8 
   18200    0.9832337   -6.2954845    4136.0785           10 
   18300   0.99036335   -6.2639239    4151.8109           16 
   18400    1.0079357   -6.2686636    4164.3104            8 
   18500   0.98469159   -6.2694998    4169.5098            5 
   18600   0.99945422   -6.2857678    4160.2377           22 
   18700   0.99114247   -6.2731251    4169.9829            8 
   18800   0.99087797   -6.2662552    4160.4087            6 
   18900   0.98240121   -6.2686721    4158.4407           10 
   19000    1.0079466   -6.2593515    4152.6055            7 
   19100   0.99450609   -6.2862067    4148.7821            6 
   19200   0.99614003   -6.2614594    4144.1565            6 
   19300    1.0062602   -6.2538722    4145.4394            3 
   19400    1.0222936   -6.2306306    4148.6779            5 
   19500    1.0171918     -6.26783    4140.1652           12 
   19600   0.99619962   -6.2919094    4140.1498            8 
   19700     1.009325   -6.2791457    4147.6043           11 
   19800    1.0062021   -6.2684756    4151.5376           10 
   19900   0.99980544   -6.2610632    4144.2422            5 
   20000    1.0163399   -6.2935366    4125.7668            3 
   20100    1.0180333    -6.247225    4123.9648            3 
   20200    1.0298128   -6.2788694    4140.0946            7 
   20300   0.98934101   -6.2706766    4139.1096            3 
   20400   0.99458611   -6.2660033    4142.8117            5 
   20500   0.99826417    -6.251219    4152.7367            5 
   20600   0.98671745   -6.2673425    4154.9122            3 
   20700    1.0218182   -6.2693598     4164.355            6 
   20800   0.98736417   -6.2580776    4156.0558            7 
   20900   0.98478965   -6.2364968    4145.0065            5 
   21000    1.0023318   -6.2874455    4137.6935            5 
   21100    1.0043634   -6.2984007    4139.9731           12 
   21200     1.020112   -6.2981877    4155.7323            7 
   21300   0.98745391   -6.2751215     4148.478            5 
   21400   0.99153834    -6.288233    4156.4994            9 
   21500    1.0146754   -6.2702146    4159.0819            5 
   21600    1.0047481   -6.2964947    4158.3212            8 
   21700    1.0101815   -6.2864619    4146.7721            8 
   21800   0.98626154   -6.2846013    4125.8142           12 
   21900   0.99606932   -6.2755941    4127.6353            9 
   22000   0.99440959   -6.3016128    4135.2382           24 
   22100    1.0028465   -6.2896077    4135.3345           15 
   22200    1.0034631    -6.284361    4139.3154           17 
   22300   0.96871624   -6.2830569    4136.9771           23 
   22400    1.0033772   -6.3188831    4134.5742            7 
   22500    1.0134482   -6.2917893    4153.1007           11 
   22600   0.99058473   -6.2873843    4153.6099            9 
   22700    1.0119996   -6.2835673    4155.8199            5 
   22800   0.99100149    -6.249642    4162.0794            6 
   22900    0.9911141   -6.2823376    4157.2856            6 
   23000   0.99312898   -6.3086574    4161.3052           17 
   23100   0.99654423   -6.2790157    4166.3503            6 
   23200   0.99065146   -6.2757096    4155.7929            6 
   23300    1.0026157   -6.2850425    4143.0768            8 
   23400     1.013147   -6.3162262    4145.0574            8 
   23500    1.0112786   -6.2995881    4163.6976            6 
   23600    1.0022253   -6.2914665    4167.0585            4 
   23700    1.0006715   -6.2936927     4164.788            4 
   23800   0.96217888   -6.2642199    4164.8615           10 
   23900    1.0073972   -6.2818543     4159.333            5 
   24000     1.007051   -6.2589025    4165.3132            5 
   24100    1.0159328     -6.23948    4162.4502            6 
   24200   0.98977845   -6.2536848    4157.5584            4 
   24300   0.99781514   -6.2822622    4157.7269            7 
   24400   0.99575877   -6.2997737     4160.605            3 
   24500   0.99288323   -6.2657332    4169.3083            5 
   24600    1.0042409   -6.2808749    4166.2782            4 
   24700   0.97640533   -6.2981566    4156.0323            2 
   24800   0.98226998   -6.3194722    4152.9717            2 
   24900   0.99871462   -6.2805505    4147.3827            7 
   25000    1.0070529   -6.2652279    4151.7084           12 
   25100    1.0430685   -6.2550596    4162.6905            5 
   25200    1.0124558   -6.2594034    4157.4724            2 
   25300   0.99843039   -6.2713996    4157.5243            6 
   25400   0.96381179   -6.2750353    4149.3866            6 
   25500   0.98436437   -6.2678611    4160.6781            7 
   25600    1.0055087   -6.2615188    4164.5774            5 
   25700   0.99893683   -6.2835348    4156.5965            3 
   25800   0.98486241   -6.2830561    4144.3836            3 
   25900    1.0017363   -6.2905078    4130.6244            3 
   26000    1.0044981   -6.2362787    4138.6238            5 
   26100     1.028087   -6.2783793     4128.632            5 
   26200   0.98557059   -6.2653946    4144.6599            5 
   26300   0.99308556   -6.2547879    4157.8027            3 
   26400     0.987381   -6.2738854    4150.0278            5 
   26500   0.99248909   -6.2946352    4151.3952           11 
   26600   0.99781173   -6.2522309    4152.3681            8 
   26700   0.99540044      -6.2532    4153.5071            5 
   26800   0.99149906   -6.2742887    4148.3673            4 
   26900    1.0073784   -6.2821079    4146.6162            5 
   27000     1.003874   -6.2647683    4148.3799            6 
   27100   0.97812895   -6.2535662    4145.5642            4 
   27200   0.98715529   -6.2370132    4151.4837            4 
   27300   0.98870153   -6.2831558    4145.3666            4 
   27400    1.0085966   -6.2951956    4144.1157            9 
   27500    1.0052353   -6.2465375    4151.2757           14 
   27600    1.0071454   -6.2744581    4156.5235           18 
   27700    1.0055133   -6.2753532    4142.0761           16 
   27800   0.99836494   -6.3022813    4145.0209           13 
   27900    1.0055839   -6.2793633    4157.5746           14 
   28000   0.98857897   -6.2738108    4155.9749           17 
   28100      0.97985    -6.285145    4156.3258            4 
   28200   0.99929489   -6.2657227    4153.0788           10 
   28300    1.0183949   -6.2798971    4160.0598            8 
   28400   0.98244959   -6.2806524    4159.2564            5 
   28500   0.99363466   -6.2513342    4160.0722            5 
   28600   0.99636293   -6.2426023    4162.8045            5 
   28700   0.98929192   -6.2694758    4156.0815            3 
   28800    1.0042795   -6.2987348    4152.9038            8 
   28900   0.98153088   -6.2790855    4148.6481            6 
   29000   0.99166474   -6.2742083     4132.508           10 
   29100    1.0089721   -6.2678426    4150.5602           10 
   29200   0.98859296   -6.2543307    4143.7723           11 
   29300   0.97063448   -6.2962734    4129.0641            5 
   29400    1.0090126   -6.3050275     4137.218            6 
   29500    1.0027249   -6.2638908    4142.6261            4 
   29600    1.0087111    -6.238873    4148.7741            9 
   29700    1.0292382   -6.2588967    4160.9892            4 
   29800   0.99454701   -6.2648931    4157.7328            4 
   29900   0.97813255   -6.2776573    4149.5076            5 
   30000   0.99500759   -6.2831347    4150.6369            5 
   30100    1.0035164   -6.2675529    4150.6577            9 
   30200   0.98425893   -6.2852403    4136.0292            9 
   30300    1.0126999   -6.3024915    4135.7901           12 
   30400    1.0135671   -6.2876391    4130.5548            7 
   30500    1.0023874   -6.2931874    4118.3385           10 
   30600    1.0171244   -6.2984946    4134.2432            9 
   30700    1.0005434   -6.2518082    4142.2377            7 
   30800   0.98972849    -6.273551    4134.6424           14 
   30900   0.99498414   -6.2690816    4136.0241           12 
   31000    1.0218391   -6.3003957    4155.5187            7 
   31100   0.99826682   -6.2793733    4144.5529           12 
   31200   0.96797189   -6.2810907    4145.0934            7 
   31300   0.98944381   -6.2666891     4142.255            8 
   31400    1.0030362   -6.2520127    4151.4002           15 
   31500    1.0060322   -6.2280087    4154.8165           12 
   31600    0.9951978   -6.2537907     4147.711            3 
   31700    0.9740339   -6.2785396    4157.5543            6 
   31800    1.0024918    -6.271413    4161.0353            3 
   31900    1.0251121   -6.2611083    4161.7847            6 
   32000    0.9900948   -6.2588929    4170.4106            5 
   32100   0.97033848   -6.2789169    4174.8741            7 
   32200   0.99798531   -6.2927483     4170.505            7 
   32300   0.99174116   -6.2776554    4165.9131            6 
   32400    1.0085441   -6.2824396    4162.0716            8 
   32500   0.98818102   -6.2243059    4163.1504            4 
   32600    1.0030806   -6.2943689     4159.699            9 
   32700   0.99468052   -6.2606977    4147.8128           12 
   32800    1.0029218   -6.2521063    4162.1417            6 
   32900   0.99350691   -6.2685956    4157.8501            6 
   33000    1.0121786    -6.263834    4153.0854           16 
   33100   0.98949412   -6.2539217    4156.4133            3 
   33200   0.99458531   -6.2765767    4154.3257            4 
   33300    0.9990899   -6.2991178    4151.9611            7 
   33400    1.0228197   -6.2968651    4166.9131            5 
   33500   0.99649703   -6.2606079    4160.8473           10 
   33600   0.98768947   -6.2649074     4148.229           11 
   33700    1.0137239   -6.2654356    4155.0346           21 
   33800    1.0031743   -6.2609892    4157.5041           16 
   33900   0.99873601   -6.2856847    4144.0607           10 
   34000     1.010494   -6.2552788     4151.998            6 
   34100     1.002635   -6.2618957    4147.1275            8 
   34200   0.99530061    -6.284618    4145.1604            2 
   34300    1.0099989   -6.2661999    4141.5769            6 
   34400    1.0210667   -6.3057732    4143.4952           14 
   34500    1.0047877   -6.2884714    4149.7471           13 
   34600    1.0174177   -6.2804457     4156.794            6 
   34700   0.99476102   -6.2982502     4147.721            5 
   34800    1.0044672   -6.2824229    4157.2167            4 
   34900   0.98604561   -6.2479945    4160.2602            3 
   35000   0.99068262   -6.2390839    4160.6815            4 
   35100    1.0135437   -6.2819326    4154.2453            6 
   35200    1.0068898   -6.2945232    4141.5955            6 
   35300   0.99823811    -6.257631     4144.884            4 
   35400    1.0107324    -6.250209    4164.4909            9 
   35500    1.0066545   -6.2589787    4159.0787            6 
   35600   0.96934048    -6.258283    4166.9603            9 
   35700    1.0252102   -6.3028096    4159.5335            8 
   35800   0.98819044   -6.2849498    4151.4119            6 
   35900    1.0110369   -6.3301323    4156.0937            6 
   36000   0.99150104   -6.3183056    4164.8367            9 
   36100   0.97475455   -6.2713056    4167.6021            5 
   36200      1.00489   -6.3015954    4158.9634            5 
   36300   0.99182752   -6.3008513    4148.8007            6 
   36400    1.0033318   -6.2907653    4154.3403           10 
   36500   0.99953372   -6.2818494    4156.2312            6 
   36600   0.98797242   -6.2884516    4136.2584           11 
   36700   0.99582951   -6.2645488    4144.1842            7 
   36800   0.98897016   -6.2478994     4153.842            6 
   36900    1.0334531   -6.2621455    4168.7614            5 
   37000   0.99722225   -6.2544256    4147.6331            6 
   37100   0.98490794    -6.257327    4144.7985            8 
   37200    1.0226764   -6.2598256    4157.4698            8 
   37300   0.99425768   -6.2541015    4158.8866            8 
   37400   0.97744772   -6.2582233    4157.2293           10 
   37500   0.97513561   -6.2600913    4153.6389            3 
   37600    1.0122238   -6.2854549    4166.8115            5 
   37700    1.0249773   -6.2495876    4174.9305            6 
   37800   0.99900321    -6.257437    4171.2428            4 
   37900    1.0057254   -6.2730609    4160.9737            5 
   38000    0.9973939   -6.2638398    4153.1273            5 
   38100    1.0138413   -6.2586197    4153.6139            5 
   38200    1.0127277   -6.2781372    4151.0641            4 
   38300   0.98610157   -6.2597011    4155.5191            5 
   38400   0.99733325   -6.2827282    4157.7992            5 
   38500    1.0093814   -6.2924443    4156.2117            7 
   38600     1.012557   -6.2595197     4167.788            4 
   38700    1.0062887   -6.2755538    4166.3606            4 
   38800   0.98297699   -6.2674361    4156.5985            5 
   38900    1.0074317   -6.2739962    4156.3548            5 
   39000    1.0053166   -6.2541288    4160.8117            4 
   39100   0.99421498   -6.2851774    4141.2324            5 
   39200   0.99382494   -6.2670871    4146.0577            4 
   39300    1.0167142   -6.2605493    4150.7976            6 
   39400   0.98598401   -6.2622012    4150.0152            5 
   39500   0.99411635   -6.2669805    4139.0734            8 
   39600    1.0011932   -6.3208792    4137.8945           10 
   39700    1.0097926   -6.2948208    4146.4384            8 
   39800    1.0037822   -6.2814606    4154.9195            7 
   39900    1.0158771   -6.2686806    4154.7332            4 
   40000    1.0029362   -6.2990951    4139.2234            6 
   40100    1.0072682   -6.2899446    4139.9498            6 
   40200    1.0042165   -6.2644991    4158.6587            9 
   40300   0.98341877   -6.2751634    4137.2182            4 
   40400    1.0131886   -6.2983113    4144.9484           10 
   40500    1.0262352   -6.3082525    4150.6966            6 
   40600   0.99065924    -6.287713      4151.73            7 
   40700    1.0087367   -6.2767259    4155.4304            7 
   40800   0.99289163   -6.2605747    4161.6587           14 
   40900   0.98231086   -6.2858485    4151.7517           10 
   41000   0.99012692   -6.2752597    4153.0219            5 
   41100     1.011748   -6.2891519    4152.3467           11 
   41200     0.975822    -6.270084    4133.1484            4 
   41300   0.99315452   -6.2634783    4141.6764           12 
   41400    1.0073843    -6.268476    4153.8696            8 
   41500    1.0232609   -6.2380076    4157.9097            9 
   41600    1.0055117   -6.2546415    4150.0178            5 
   41700   0.99337887   -6.2470657    4150.1117           17 
   41800    1.0228756   -6.2376993    4156.9756            6 
   41900    1.0105509   -6.2592423    4144.2404            5 
   42000   0.99443305   -6.2596369    4142.8443            4 
   42100    1.0134443    -6.236342    4149.5746            6 
   42200    1.0097168   -6.2338269    4151.6226            9 
   42300   0.98623852   -6.2390221    4142.2746           13 
   42400    1.0154147   -6.2650909    4149.1133           10 
   42500    1.0191309   -6.2491192    4158.2184            7 
   42600    1.0048122     -6.26543    4137.2998            4 
   42700   0.99208414   -6.2701557    4140.4257            6 
   42800   0.99458912   -6.2392003    4153.6126            4 
   42900     1.003103   -6.2534412    4152.6313            8 
   43000    1.0015379   -6.2761129    4148.7756            4 
   43100   0.99078718   -6.3059829    4145.4525            7 
   43200     1.013015   -6.2866858    4147.7157           12 
   43300    1.0064146    -6.279711    4143.9072            7 
   43400    1.0017743   -6.3029454    4146.8664            4 
   43500   0.99637185    -6.278619    4153.8396            7 
   43600    1.0199485   -6.2684199    4168.5425            4 
   43700    1.0040592   -6.2627803    4166.2269           10 
   43800   0.99872621   -6.2957535    4149.7077            6 
   43900    1.0004037   -6.2927642    4155.9064            5 
   44000    1.0043773   -6.2966062    4166.1096            5 
   44100   0.99563762   -6.2921109    4156.0669            7 
   44200   0.98022273    -6.310102    4147.8239            4 
   44300    1.0006559   -6.2875427    4143.6458            5 
   44400    1.0026444   -6.2843664    4138.7189           11 
   44500     1.019283   -6.2731672    4144.9042           14 
   44600    1.0018654   -6.2564593    4158.3377           12 
   44700   0.99505301   -6.2740923    4150.4438            8 
   44800   0.97302495    -6.268881    4149.9379            9 
   44900    1.0056691   -6.2753675    4173.2415            7 
   45000    1.0010765   -6.2877726     4157.819            8 
   45100    1.0068254   -6.2903663    4147.5753            5 
   45200   0.96713001   -6.2648527    4138.7932            9 
   45300    1.0330643   -6.3022917    4148.7401           10 
   45400   0.98470755   -6.2661472    4139.5147            4 
   45500   0.99707512   -6.3031224     4130.733            7 
   45600   0.99785573   -6.3007621    4129.9626            5 
   45700   0.99625176   -6.2845215    4150.4612            5 
   45800   0.98860246   -6.2733632    4152.7817            6 
   45900    1.0192069   -6.2625905    4158.8609           11 
   46000    1.0152411   -6.3060384    4159.0881           10 
   46100    0.9882477   -6.2694251    4148.4575            7 
   46200   0.99971727   -6.2321859    4169.4658           14 
   46300    1.0028287   -6.2707142    4162.2061            5 
   46400   0.98971379   -6.2787015    4154.7478            7 
   46500    1.0024212   -6.2591533    4151.3984           15 
   46600   0.97284537   -6.2752179    4149.4147            6 
   46700   0.99105203   -6.2702976    4149.1627            5 
   46800    1.0118245     -6.28808    4142.8076            3 
   46900   0.99675626   -6.2885404    4142.9637            4 
   47000   0.99893879   -6.2635448    4152.3142            7 
   47100    1.0024864   -6.2939963    4140.7311            9 
   47200    1.0099261   -6.2853772    4144.9438           12 
   47300    1.0030983    -6.248237    4150.6206            3 
   47400    1.0071746   -6.2703912    4149.1875            6 
   47500    1.0145349   -6.2907457    4145.7421            8 
   47600   0.98292516   -6.2864247     4146.712            7 
   47700    1.0010685   -6.2592492     4152.969            5 
   47800    1.0120781   -6.2640719    4170.7868           10 
   47900    1.0013865   -6.3012836    4152.2603            9 
   48000   0.99710223    -6.296346    4153.8358            6 
   48100   0.97073012   -6.2694615    4159.0929            6 
   48200    0.9833499   -6.2979251    4143.5782           10 
   48300    1.0093636   -6.2883118    4141.5347            6 
   48400   0.99633839   -6.2802599    4143.7757           12 
   48500   0.99164366     -6.29796    4139.9999            9 
   48600   0.99808648   -6.2788271    4155.9695           11 
   48700     1.013704   -6.2751374    4143.4132            8 
   48800   0.98579852   -6.2504126     4148.596           16 
   48900    1.0184139   -6.2698447    4151.6435            5 
   49000   0.99131853   -6.2735918    4157.5907            7 
   49100     1.001501   -6.2578985    4165.1098           12 
   49200   0.99101409   -6.2716289    4158.7197           15 
   49300   0.99301454   -6.3309986    4163.6269            8 
   49400    1.0034341   -6.2897461    4176.5885           10 
   49500    1.0054287   -6.2940959    4163.8062           11 
   49600     0.972735   -6.2541501    4162.3792            9 
   49700    1.0023209   -6.2781514    4168.3694            8 
   49800    1.0118231   -6.2581811    4168.0899            7 
   49900    1.0014384    -6.262769    4168.3367            7 
   50000   0.99762733   -6.3065225    4158.1579            6 
   50100   0.98425628   -6.3186184    4167.7801            5 
   50200   0.99017153   -6.2757847     4170.969            9 
   50300    1.0048133   -6.2644628    4163.7245            8 
   50400     1.000027   -6.2653533    4155.2515            6 
   50500   0.99299769   -6.2793742    4140.4877            8 
   50600   0.98602184   -6.2936675    4142.5158            5 
   50700    1.0029921   -6.2820528    4147.8417            6 
   50800   0.99378787   -6.2809449    4156.8522            5 
   50900    1.0139837   -6.2580934    4163.8673            9 
   51000   0.98031751   -6.2472603    4154.5308            8 
   51100    1.0269178   -6.2770109     4146.437           25 
   51200     1.013249   -6.2782158    4140.4026           14 
   51300   0.99459318   -6.2889488    4142.6878            7 
   51400   0.97780287   -6.2613063    4157.9785           17 
   51500    1.0022561   -6.2681286    4161.9532            8 
   51600    0.9957702   -6.2361287    4172.7201            8 
   51700    1.0053172   -6.2315494    4175.7258           15 
   51800    1.0061733   -6.2904342    4157.6632           14 
   51900    1.0003027   -6.3042716    4154.5569           14 
   52000   0.99653997   -6.2871785    4150.5947           15 
   52100    0.9996781   -6.2601734    4156.5474            9 
   52200    1.0384713   -6.2729579    4152.0498           18 
   52300    1.0094751   -6.2860277    4144.3029           12 
   52400   0.98265189   -6.2722572    4145.5863            7 
   52500    1.0029415   -6.2626548    4158.0574            7 
   52600   0.99722226    -6.263905     4155.015            9 
   52700   0.99438286   -6.2525388    4153.3097            6 
   52800     1.009281   -6.2665811    4166.9913            4 
   52900   0.98771564   -6.2654435    4159.7095            9 
   53000   0.99649679   -6.2487378    4153.1423            7 
   53100   0.99715764   -6.2614046    4160.0108            5 
   53200    1.0078406   -6.3007859    4146.0852            4 
   53300   0.99057895   -6.3154575    4134.2885            4 
   53400    1.0012417   -6.2825192    4154.4866            4 
   53500     1.000708   -6.2434428    4158.9489            3 
   53600   0.98072126   -6.2656158    4159.7698            5 
   53700    1.0051003   -6.2590572    4155.7589            3 
   53800   0.99347218   -6.2460827    4157.8827            9 
   53900    1.0243496    -6.272235    4151.6203            6 
   54000    1.0078216   -6.2769707    4151.2991           10 
   54100    1.0162331   -6.2786782    4155.7908            5 
   54200   0.99270092   -6.2651373    4154.4085            8 
   54300   0.98989703   -6.2727632     4149.437           17 
   54400    1.0093012   -6.2633348    4163.1604            8 
   54500   0.98490642   -6.2784406    4161.1067           10 
   54600   0.98017102   -6.2913663    4159.6429           14 
   54700   0.99714788    -6.271842    4153.0943            5 
   54800   0.99223069   -6.2626195    4140.1758            5 
   54900    1.0062593   -6.3103215    4130.1423            7 
   55000    1.0148745   -6.2948386    4143.8524           10 
   55100    1.0195253    -6.266811    4144.6108           10 
   55200    1.0082469   -6.3022085    4130.3216           11 
   55300   0.99268984   -6.2818646    4137.1348           18 
   55400    1.0010286   -6.2847897    4152.8481           15 
   55500    1.0037823   -6.2466481    4155.3717            5 
   55600   0.99530073   -6.2704285    4145.7859            3 
   55700   0.99694238    -6.277672    4149.3129            6 
   55800   0.99265913   -6.2686827     4165.711            8 
   55900   0.98829355   -6.2809199    4162.1419           12 
   56000   0.98399836   -6.2956907    4151.4812            6 
   56100   0.96447981   -6.2631575    4153.9627            9 
   56200   0.99215454    -6.259992    4152.7864            7 
   56300    1.0207201    -6.275945    4160.2001            8 
   56400    1.0051824   -6.2375922    4157.6924           10 
   56500   0.99070803   -6.2674632     4132.491            6 
   56600    1.0075748   -6.2618527    4127.3988            4 
   56700    1.0008102   -6.2480484    4140.8672            8 
   56800   0.99956867   -6.2471207    4143.1534            6 
   56900    1.0068927   -6.2908453    4140.8608            4 
   57000   0.99390987   -6.2919525    4150.3647            6 
   57100   0.99513431   -6.2653154    4157.6794            5 
   57200   0.98710363   -6.2855774    4166.6322            6 
   57300    0.9970848   -6.2589477    4163.0817            5 
   57400    1.0145392   -6.2476661     4169.702            8 
   57500   0.99275993   -6.2595881    4160.0658           11 
   57600    1.0096696   -6.2709985     4147.486            3 
   57700    0.9895598   -6.2704669    4149.1845            2 
   57800    1.0224783   -6.2596681    4153.0271            5 
   57900   0.99682168   -6.2556232    4148.8498            6 
   58000   0.99952815    -6.280562    4149.7068            7 
   58100   0.99770557   -6.2785075    4150.5217            7 
   58200    1.0239407   -6.2692801    4154.1072           13 
   58300    1.0177964   -6.2866972    4150.4005            8 
   58400   0.97823107   -6.2559223    4132.6141            6 
   58500    1.0025914   -6.2646029    4148.2438           12 
   58600    1.0189758   -6.2745014    4151.3649           13 
   58700    1.0078287   -6.2831454    4150.9756            5 
   58800    1.0090494   -6.2458564    4160.6379           14 
   58900   0.99263696   -6.2502245    4160.8444           19 
   59000    0.9838204    -6.246691    4163.2882           10 
   59100   0.99729499   -6.2629049    4158.5636            6 
   59200   0.99100543   -6.2654898    4159.3781            5 
   59300    1.0069578   -6.2525947    4163.5431            5 
   59400    1.0123982   -6.2854815     4152.181            7 
   59500   0.98820074   -6.2638544    4146.8049            6 
   59600   0.98532391   -6.2821328    4155.0373           16 
   59700    1.0005386    -6.278876    4152.5015           25 
   59800    1.0027685   -6.2882771    4165.3037           20 
   59900   0.99479574   -6.2766092    4162.1721           29 
   60000   0.98950417    -6.288617    4148.7282           27 
   60100   0.98453056   -6.2626999    4150.7263            6 
   60200    1.0024187   -6.2707455    4159.4922            6 
   60300   0.99807438     -6.29305     4159.725           15 
   60400   0.99680967   -6.2932779    4142.9528           12 
   60500    1.0221778   -6.2751099    4147.2593            7 
   60600   0.99079924   -6.2788454    4151.1038            5 
   60700     1.003049   -6.2475917    4150.6476            6 
   60800    1.0092344   -6.2389714    4159.7468           11 
   60900     1.000148   -6.2578853     4145.541            9 
   61000   0.98469162   -6.2675991    4143.8647            5 
   61100    1.0175745   -6.2897367    4151.8827            4 
   61200    1.0032249   -6.2549322    4155.6799            3 
   61300   0.99429496   -6.2711805    4140.9932            6 
   61400   0.99838196   -6.2913331    4135.9807            7 
   61500    1.0248952   -6.2703631    4146.8603            4 
   61600   0.98592943   -6.2639448    4148.5492            4 
   61700    1.0033106   -6.2682917    4156.5642            4 
   61800    1.0045371   -6.2696881    4153.0772            6 
   61900    1.0251026   -6.2899755    4147.0838            5 
   62000    1.0155311     -6.24691    4150.1496            4 
   62100    1.0110813   -6.2874861    4138.3152            9 
   62200   0.98921039   -6.2720497    4139.2733           10 
   62300    1.0140333   -6.2695844    4153.4739            5 
   62400     1.003709   -6.2986646    4142.7361            3 
   62500   0.99897955   -6.2680476    4146.2404            5 
   62600    1.0165478    -6.265095    4157.6993           10 
   62700   0.98583875   -6.2635287    4152.6762            5 
   62800    1.0051659   -6.2564961    4158.3976            6 
   62900    1.0010886   -6.2402547    4163.7347            4 
   63000   0.98973899    -6.236871    4154.6145            8 
   63100    1.0013329   -6.2693521    4154.6095            3 
   63200    0.9919391   -6.2858003    4145.7903            5 
   63300   0.99852922   -6.2842568    4137.1923            8 
   63400    1.0144536   -6.2581351    4157.3302            5 
   63500    1.0101424   -6.2849209    4150.7045            6 
   63600    0.9990187    -6.264461    4149.3559            6 
   63700    1.0386719   -6.2754383    4156.0803            8 
   63800   0.99246817   -6.2687502    4153.8738            6 
   63900    0.9984975   -6.2681956    4154.2519            7 
   64000    1.0045714   -6.2636869    4157.5084            9 
   64100   0.98350132   -6.2697285    4156.0381           11 
   64200    0.9994177    -6.276854    4156.1639            5 
   64300    1.0114678   -6.3281586    4151.0445            4 
   64400   0.98841504   -6.3067216    4148.0107           12 
   64500    1.0229375   -6.3141603    4146.4868            5 
   64600   0.99421057   -6.2484914     4151.548            4 
   64700   0.99347746   -6.2432165    4144.3019           18 
   64800    0.9976879   -6.2493508    4154.3177           12 
   64900    1.0030532   -6.2630935    4159.3563            6 
   65000   0.99964447   -6.2891855    4146.4769            5 
   65100    1.0041449   -6.2754734    4150.2359            6 
   65200    1.0034742   -6.2736118    4151.6174            5 
   65300   0.98528241   -6.2992065    4145.5284            3 
   65400    1.0004058   -6.2754219     4152.792            6 
   65500    1.0290871   -6.2673015    4142.8017            6 
   65600    1.0142057   -6.2954346    4142.2625            5 
   65700    1.0225454   -6.2715062    4145.0255            4 
   65800    1.0121338   -6.2657115    4155.2058            5 
   65900    1.0010483   -6.2811587    4148.3251            4 
   66000    1.0142154   -6.2875896     4151.849            6 
   66100   0.98345434   -6.2622169    4147.8313            4 
   66200   0.98809376   -6.2743005    4140.3843            4 
   66300    1.0129234   -6.2666729    4151.3775            4 
   66400     1.012944   -6.2520265    4137.1781            7 
   66500    1.0032576   -6.2549014    4133.7912            6 
   66600   0.98804407   -6.2827386    4138.0815           12 
   66700   0.97952782   -6.2960948    4135.3024           15 
   66800    1.0012919   -6.2752465    4148.0751            7 
   66900   0.99472671   -6.2914386    4144.4862           12 
   67000   0.98021922   -6.2828684    4148.3398            3 
   67100    1.0164609   -6.2949797     4143.119            5 
   67200   0.99802151   -6.2953256    4145.0733            9 
   67300   0.99364702   -6.2653227    4165.2001            7 
   67400   0.98994012   -6.3126184    4149.8539            6 
   67500    1.0026862   -6.2899305    4150.7397            5 
   67600   0.98446627   -6.2847711    4165.5069            5 
   67700    1.0022424   -6.2577721    4184.1985            4 
   67800    0.9965171    -6.265658    4180.4179            4 
   67900   0.99460369   -6.2827986     4166.509            4 
   68000   0.98449682   -6.2680205    4155.8472           11 
   68100   0.99256387   -6.3051108    4140.2912            7 
   68200    1.0086051   -6.2746344    4148.3127            3 
   68300    1.0034651   -6.2358421     4156.227            8 
   68400    1.0032787   -6.2524986    4159.3334            3 
   68500    1.0137693   -6.2772647    4154.0002           20 
   68600   0.97927121   -6.2756608     4144.476           10 
   68700    1.0042721   -6.2486883    4144.4904            5 
   68800   0.99677575    -6.249867    4140.2175           13 
   68900   0.99790559   -6.2936562    4143.0151            4 
   69000   0.99889152   -6.2619202    4150.6945            5 
   69100    1.0221653   -6.2599943    4152.5144            4 
   69200   0.98309676   -6.2552481    4152.6679            4 
   69300   0.99536766   -6.2297436    4160.2765            5 
   69400   0.99610807   -6.2553906       4174.9            4 
   69500    1.0028924   -6.2709768    4175.2247            6 
   69600   0.98497769   -6.2818093    4161.0697            7 
   69700     1.011703   -6.2780784    4174.8915            8 
   69800    1.0024855   -6.2823605    4157.7165            4 
   69900   0.99942586   -6.2879471    4158.1506            7 
   70000    1.0109164   -6.2644025    4160.3272           12 
   70100    1.0268334   -6.2454359    4163.7027            8 
   70200   0.98550898    -6.255948    4158.6399            3 
   70300    1.0112388   -6.2866413    4154.0526            4 
   70400   0.98222563   -6.2794144    4141.7031            6 
   70500   0.99362458   -6.2479956    4154.8257            5 
   70600    1.0195511    -6.264695    4158.2508           10 
   70700   0.99967407   -6.2432394    4141.4985           14 
   70800    1.0048926   -6.2737614     4140.428            6 
   70900    1.0268747   -6.2465092    4156.8042            8 
   71000   0.98889699   -6.2351961    4142.9016            5 
   71100    0.9959023   -6.2648374    4135.8445            9 
   71200   0.98886047   -6.2945385    4120.5125            6 
   71300   0.99370191   -6.2669604    4136.9488            6 
   71400     1.013305   -6.2672687    4139.8815            5 
   71500     1.050235    -6.275355    4145.6181            5 
   71600   0.99564775   -6.2446806     4151.317           12 
   71700   0.98605682   -6.2723333    4148.3897            6 
   71800    1.0067136   -6.2766467    4151.9682            4 
   71900    1.0197928   -6.2610737    4161.1046            9 
   72000   0.99387556   -6.2679273    4145.2996            5 
   72100    1.0047788   -6.2876134    4151.1073            5 
   72200    1.0145291   -6.2705558    4162.3558            5 
   72300   0.97249289   -6.2619501    4153.2571            8 
   72400     1.009376   -6.2784592    4150.9313            8 
   72500    1.0070394   -6.2972938      4151.67            3 
   72600   0.97668874   -6.2527326    4142.4715            6 
   72700   0.99919327   -6.2721075    4156.3252            5 
   72800    1.0152759   -6.2538097    4145.6822            7 
   72900    1.0022596   -6.2592362    4143.5745            6 
   73000    1.0008453    -6.258708     4144.827            7 
   73100   0.99150943   -6.2618149      4153.96            9 
   73200    1.0064819   -6.2494506    4151.4414            6 
   73300    1.0089953   -6.2568443    4143.4364            6 
   73400   0.99164542   -6.2393902    4151.2559            9 
   73500   0.99959188   -6.2858307    4128.8443           12 
   73600     1.010965    -6.278089    4133.4329            9 
   73700    1.0014441   -6.2478057    4136.3705            5 
   73800   0.99010873   -6.2767594    4144.0753            4 
   73900     1.002417     -6.25852    4145.1125            5 
   74000    1.0031066   -6.2735019    4160.3563            4 
   74100   0.99730419   -6.3008431    4152.1705            7 
   74200    1.0010268   -6.2732622    4142.9118            6 
   74300    1.0077355   -6.2500546    4158.1917            6 
   74400    1.0018637    -6.294618      4150.94            5 
   74500   0.98712857   -6.2652618    4150.8569            4 
   74600    1.0073039   -6.2726825    4161.1051            6 
   74700   0.98768957   -6.2909091    4161.5942           12 
   74800     0.986685   -6.3034688    4147.7615           16 
   74900   0.99316026   -6.2950017    4147.2873           10 
   75000    1.0083213   -6.2732638    4152.1734            8 
   75100   0.98129033    -6.274118    4146.3697           15 
   75200    1.0142942   -6.2714143    4153.1446           11 
   75300    1.0046666   -6.2392627    4146.8401            4 
   75400   0.99607521   -6.2796762    4135.5158            6 
   75500   0.97360861   -6.2459181    4142.2925            5 
   75600    1.0034221   -6.2582362    4158.0927           18 
   75700    1.0023797   -6.2615735    4148.5179            5 
   75800    1.0186553   -6.3004761    4129.6935            4 
   75900   0.98865062   -6.2809748    4139.8413           14 
   76000     1.021911   -6.2809403    4136.4338            6 
   76100    0.9987031   -6.2555157    4130.6292            7 
   76200    1.0128476   -6.2727727     4135.709           12 
   76300    1.0007176    -6.291034    4144.6581            8 
   76400   0.96591164   -6.2848528     4138.799            7 
   76500   0.98651502   -6.2896069     4150.213           11 
   76600   0.99776376   -6.2576146    4140.6989            5 
   76700   0.99759512   -6.2689147     4149.255           10 
   76800    1.0014582   -6.2560129    4155.9799            6 
   76900   0.99040252   -6.2774622    4146.4784            9 
   77000   0.99855858    -6.299947    4149.4923           10 
   77100    1.0043715    -6.275311    4144.3423           10 
   77200     1.033245   -6.2867374    4153.0576            7 
   77300    1.0177328   -6.3080388      4131.44           17 
   77400   0.98727642   -6.2661735    4132.5723            9 
   77500   0.99992202   -6.2547171    4147.3401           10 
   77600   0.99141928   -6.2585577    4152.6935           16 
   77700    1.0171971   -6.2574008    4158.7579           17 
   77800   0.98543446   -6.2416279    4152.2932           10 
   77900   0.99765791   -6.2499402    4147.9358           11 
   78000     1.018393    -6.265231    4138.7062            6 
   78100    1.0020688   -6.2835116    4140.5589            6 
   78200    1.0147885    -6.259051    4147.7856            4 
   78300    1.0079218   -6.2557077    4154.0319           11 
   78400    1.0068882   -6.3004911    4147.0639            5 
   78500   0.99445061   -6.2897876    4140.4474            9 
   78600   0.99497744   -6.2376694    4158.8544            6 
   78700    1.0102901   -6.2838822    4151.6498            5 
   78800   0.98962712   -6.2829885    4155.5032           13 
   78900    1.0001034   -6.2630011     4152.623           12 
   79000   0.98746281   -6.2738151    4147.5251           12 
   79100    1.0206328   -6.2899585    4151.6785           22 
   79200   0.99666735   -6.2646403    4161.4173           12 
   79300    1.0151196     -6.26486    4154.6866            9 
   79400   0.98778947   -6.2668534    4136.8067            6 
   79500     1.008738   -6.2710674    4134.5857            9 
   79600     1.023477   -6.2501139    4150.1189            8 
   79700    1.0365605   -6.2922386    4145.2122            5 
   79800    1.0010927   -6.3132667    4150.1526            4 
   79900    1.0117412   -6.2812412    4152.5044            9 
   80000      1.00688   -6.2805561    4158.2775            5 
   80100   0.99012546   -6.2692361    4155.1726           13 
   80200   0.99403193   -6.2853271    4145.0174           10 
   80300     1.020008   -6.2782027       4141.3            9 
   80400    1.0340438   -6.2477015    4152.0036            4 
   80500     1.016531   -6.2560752    4152.6702            7 
   80600   0.99116434   -6.2820832    4147.4808            5 
   80700   0.99991729   -6.2706971    4146.4369            5 
   80800    1.0175471    -6.266149    4151.5698            4 
   80900   0.99592482   -6.2629252    4144.3007            7 
   81000    1.0325214   -6.2586532    4153.0996            7 
   81100    1.0088791     -6.27758     4157.033            6 
   81200    1.0068195   -6.2988872    4144.9675            5 
   81300   0.98074975   -6.2925829    4131.4196            8 
   81400   0.99368287   -6.2739537    4141.3076            4 
   81500     1.015646   -6.3000437    4140.4643            4 
   81600    1.0129981   -6.2825186    4148.8493            5 
   81700   0.99163265   -6.2579074    4157.6149            6 
   81800    1.0215946   -6.2841548    4140.1013           11 
   81900    1.0024139   -6.2996223    4141.4387            8 
   82000    1.0017299   -6.2698858    4150.4376            7 
   82100   0.99188257   -6.2619984    4155.5179            4 
   82200     0.990744   -6.2459305    4155.3652            5 
   82300   0.98806128   -6.2863132    4144.4461            4 
   82400    1.0120177   -6.3052076    4144.8472            4 
   82500    1.0253601   -6.2790475    4153.6325            9 
   82600    1.0021008   -6.2808165    4151.6624            8 
   82700    1.0030581   -6.2534453    4152.5603            5 
   82800    1.0072978   -6.2518874    4156.2298            3 
   82900   0.99813669   -6.2668673     4141.877            5 
   83000   0.99784424   -6.3135543    4131.7485            6 
   83100   0.99313039   -6.2695135    4137.5081            7 
   83200    1.0170912   -6.2867738    4137.1557            9 
   83300   0.99592752   -6.2957136    4128.3651            5 
   83400    1.0158965   -6.2667378    4126.6719            8 
   83500     1.026079   -6.2834604    4136.0649            6 
   83600   0.98500215   -6.2851086    4136.6079            7 
   83700   0.99777299   -6.2992012    4150.5803           10 
   83800    1.0109289   -6.2773556    4161.5331            6 
   83900    1.0030755   -6.2770187    4165.6806            7 
   84000    0.9757435   -6.2676108     4154.584            7 
   84100   0.99420924   -6.2677655    4152.3218           13 
   84200   0.99335552   -6.3122941    4143.6378            4 
   84300    1.0125503   -6.3245446    4146.1167            6 
   84400    1.0054007   -6.3098457    4152.6531            8 
   84500    1.0092813   -6.2792607    4157.1853            8 
   84600   0.97855733   -6.2894205    4162.6466            6 
   84700    1.0070578   -6.2866438    4164.5652           11 
   84800   0.99381719   -6.2667003    4171.8763            5 
   84900    1.0015739   -6.2860603    4154.2681            4 
   85000   0.99052383    -6.278401    4145.5579            5 
   85100   0.98932176   -6.2451088    4159.8086            4 
   85200    1.0068582    -6.269694    4152.6905            3 
   85300   0.97945939   -6.2703559    4141.4561            8 
   85400    1.0218066   -6.2965826    4147.6615            8 
   85500   0.96985447   -6.2854701    4155.2254            6 
   85600   0.98407286   -6.3128245    4142.9427            6 
   85700    1.0086252   -6.2874149    4149.0378            9 
   85800   0.99780908   -6.3016697    4146.5309            9 
   85900   0.98186284   -6.2967514    4144.3963            4 
   86000    0.9974406   -6.2884031     4154.708            4 
   86100    1.0055061   -6.2861551    4155.0323           14 
   86200    1.0013057   -6.2634803    4156.0137           13 
   86300   0.99398336   -6.2800974     4139.723           10 
   86400    1.0243025   -6.2952206    4139.9828            5 
   86500    0.9844921   -6.2865187    4136.1508           10 
   86600   0.99970323   -6.3007193    4133.2397            8 
   86700   0.98746303   -6.2727853    4143.8466           12 
   86800    1.0105918   -6.2588808    4142.5087            4 
   86900    1.0127259    -6.293542    4139.9816            7 
   87000   0.97229223   -6.2760651    4140.2909            5 
   87100    0.9882366   -6.2491582    4154.3445            3 
   87200    1.0220161   -6.2769176    4153.8247            3 
   87300   0.97801082   -6.2615594     4152.942            4 
   87400    1.0000875   -6.2557379    4150.2205            3 
   87500    1.0041864   -6.2802514    4154.1957            8 
   87600     1.012951   -6.2766388     4161.587            6 
   87700    1.0113946   -6.2572012    4173.8983            6 
   87800    1.0034085   -6.2433865    4180.1115            4 
   87900   0.99974172    -6.257708    4170.9776            4 
   88000    1.0003889   -6.2747862    4158.7954            5 
   88100    1.0106835   -6.2991943     4152.334            9 
   88200    1.0085679   -6.2803922    4153.6892            7 
   88300    1.0053857     -6.25336    4157.8849            8 
   88400    1.0006968   -6.2922829     4153.269            5 
   88500    1.0061722   -6.2714703    4153.3033            5 
   88600   0.97327881   -6.2744392    4155.8238            7 
   88700    1.0143495   -6.2757286    4157.8664            6 
   88800   0.98366818   -6.2338821    4144.8676            8 
   88900    1.0059001   -6.2594447    4155.8323            6 
   89000   0.98804739   -6.2516645    4164.4442            6 
   89100   0.97560157   -6.2769808     4167.975            6 
   89200   0.97293089   -6.3123959    4139.5374            5 
   89300   0.98802021   -6.2839996    4140.2044           10 
   89400    1.0046315    -6.267977     4148.356            5 
   89500    1.0142771   -6.2515654     4145.193            4 
   89600    1.0037076   -6.2625502    4156.4862            6 
   89700    1.0045808   -6.2475058    4163.1729            5 
   89800   0.98143362   -6.2520499    4162.2959            6 
   89900    1.0012747   -6.3030941    4155.1556            4 
   90000   0.99025123   -6.2778732     4147.808            3 
   90100     1.006866   -6.2635356    4142.4727            5 
   90200    1.0042353   -6.2761256    4128.2531            4 
   90300   0.98675712   -6.2949562    4121.2902            4 
   90400    1.0078082    -6.298141    4140.8043            3 
   90500    1.0090102   -6.2947524     4150.183            4 
   90600    1.0067136   -6.3139549    4150.6012            3 
   90700   0.99279195   -6.3204697    4152.6721            9 
   90800    1.0047964   -6.3044299    4156.9892            7 
   90900    1.0151587   -6.2835123    4154.9986            6 
   91000   0.98457316   -6.2857766    4151.5983            4 
   91100    1.0168498   -6.2711311    4147.6288            7 
   91200    1.0125556   -6.2617237    4158.1658            7 
   91300   0.99195833   -6.2453897    4160.1369            8 
   91400    1.0086849   -6.2783754    4163.5524            8 
   91500    0.9797648   -6.2629749    4165.0463            4 
   91600    1.0043554   -6.2649285    4156.5689            4 
   91700   0.99954955   -6.2643017    4143.6041            8 
   91800   0.99037384     -6.26952    4142.1939            7 
   91900    1.0226506   -6.2595017    4148.4274            3 
   92000   0.99446183   -6.2361722    4143.8019            3 
   92100    1.0185468   -6.2470158     4160.554            3 
   92200   0.99608803   -6.2624913    4158.3395            2 
   92300    1.0267166   -6.2828211    4150.1444            2 
   92400   0.97824761   -6.2437204    4142.9295            4 
   92500    1.0273841   -6.2639635    4145.9792            8 
   92600   0.99434945   -6.2461309    4158.3052            7 
   92700    1.0092121   -6.2793989    4163.1664            8 
   92800   0.96468466   -6.2661519    4164.2801            5 
   92900    1.0108523    -6.302234    4167.4937            5 
   93000   0.97838314   -6.2760886    4165.8762           17 
   93100    1.0004258   -6.2873561    4173.5398           11 
   93200   0.99970386   -6.2478873    4172.2301            6 
   93300    1.0103436   -6.2623034     4154.517           14 
   93400    1.0124505    -6.281606    4152.3907           10 
   93500   0.97451636   -6.2849351    4159.2855            9 
   93600   0.97941089    -6.256999    4147.3991           16 
   93700    1.0156592   -6.2731089    4153.1069            9 
   93800   0.99286759   -6.2722205     4142.613           18 
   93900    1.0053291   -6.2438588     4147.887            7 
   94000   0.99471634   -6.2238686    4143.0846            6 
   94100    1.0039979   -6.2694336     4123.452            4 
   94200    1.0232285   -6.3265002     4121.061            5 
   94300   0.99135979   -6.3077749    4135.6566            6 
   94400   0.98774135   -6.2652114    4148.3428            7 
   94500    1.0073909   -6.2517927    4153.2968           13 
   94600    1.0175722   -6.2209746    4157.4228            8 
   94700    1.0131243   -6.2558939    4143.1031            6 
   94800   0.99453797    -6.245962    4138.1377            6 
   94900    1.0140346   -6.2401363    4147.0718            5 
   95000    1.0301202   -6.2481632    4151.1981            4 
   95100     0.998993   -6.2680335    4152.8281            6 
   95200     1.010096    -6.252894    4155.5403           10 
   95300    1.0280872    -6.240375    4148.8352            4 
   95400    1.0084381   -6.2680322    4147.5749            6 
   95500   0.98795342   -6.2893212    4151.7787            9 
   95600    1.0009556    -6.278388    4147.6309           13 
   95700   0.99839215   -6.2986971     4143.582            7 
   95800   0.98291794   -6.3032755     4130.761            6 
   95900    1.0104692   -6.3015388    4140.7213            3 
   96000   0.99998126   -6.2894681    4144.4573            9 
   96100   0.99166219   -6.3218386    4138.8218           10 
   96200    0.9998374   -6.3126412    4149.4193            3 
   96300   0.99771239   -6.2859262    4156.6832            6 
   96400   0.98191077   -6.2959536    4143.2463            8 
   96500     1.016496   -6.2965995    4138.0237            7 
   96600   0.98737341   -6.2070391    4150.6859            4 
   96700    1.0075196   -6.2362846    4155.4153            6 
   96800     1.001976   -6.2556158    4146.4912            6 
   96900    1.0084449   -6.2766476    4127.2567            8 
   97000    1.0000484   -6.2204444    4142.3001            4 
   97100   0.99799438   -6.2547756    4155.0708            7 
   97200    1.0421008   -6.2611734    4159.5887            4 
   97300    1.0011662   -6.2476402    4157.4402            4 
   97400    0.9954256   -6.2675949    4147.9981           12 
   97500   0.99045598   -6.2692222    4142.4448            7 
   97600     1.008307   -6.2600797    4152.7326            5 
   97700   0.99674603   -6.2789165    4161.0757            8 
   97800   0.98571501   -6.2887654    4136.8317            6 
   97900    1.0115914   -6.2818334    4153.0121            4 
   98000    0.9873773   -6.2714811    4149.7902           15 
   98100    1.0156224   -6.2753647    4147.5254            6 
   98200   0.99129911    -6.273685    4141.4059            9 
   98300    1.0001585   -6.2968133     4134.622            3 
   98400   0.99582161     -6.27011    4140.8908            6 
   98500    1.0033232   -6.2521456    4138.8944            7 
   98600    1.0222259   -6.2904938    4131.9769            5 
   98700   0.99518623   -6.2875721    4121.5918            4 
   98800    1.0370846   -6.3000819    4142.5408            7 
   98900   0.98227897   -6.2548817    4147.4747           10 
   99000    1.0212292   -6.2584553    4159.1715            7 
   99100    1.0140511   -6.2676271    4146.0976            6 
   99200    1.0047158   -6.2708377    4151.9209            6 
   99300    1.0048456   -6.2874858     4157.594            9 
   99400   0.98028505   -6.2798759    4142.6313           10 
   99500    1.0083582   -6.2923133    4154.7869            7 
   99600   0.99681486   -6.2647622    4160.2593            6 
   99700   0.99874518   -6.2630803    4165.3866           10 
   99800   0.99950783   -6.2580017    4160.5966            8 
   99900   0.99049607   -6.2770435    4147.2042            6 
  100000    1.0120559   -6.2760471    4143.5144            9 
  100100    1.0077847   -6.2457392    4153.4081            7 
  100200    1.0121558   -6.2528722    4155.8348            6 
  100300   0.98707545   -6.2743973    4153.6261            7 
  100400   0.99158611   -6.2441056    4162.1369            6 
  100500    1.0241712   -6.2793483     4152.803            8 
  100600   0.99542544   -6.2617781    4151.5516            8 
  100700    1.0290808   -6.2867441    4157.4108            5 
  100800   0.97898457    -6.259716     4150.841           10 
  100900    1.0248192   -6.2751062    4152.2961            9 
  101000    0.9834811   -6.2738001    4155.6332            7 
  101100   0.98590992   -6.2881664    4159.2639           10 
  101200   0.98658113   -6.2908665    4161.2401           10 
  101300   0.99824319   -6.2863533    4171.9898           15 
  101400   0.98243518   -6.2660983    4163.7461            7 
  101500   0.98763949   -6.2684723    4153.6761           10 
  101600    1.0090264   -6.2642746    4155.2617            7 
  101700   0.99116783    -6.273444    4146.4679            6 
  101800    1.0146326   -6.2823851    4144.9833            6 
  101900    1.0151222   -6.2347606    4153.0252            6 
  102000    1.0095298   -6.2673549    4165.7874            5 
  102100   0.99046025   -6.2787898    4163.4447            7 
  102200   0.98053165   -6.3027091    4173.1645            3 
  102300    1.0027489   -6.2876961    4172.3658            8 
  102400   0.99918377    -6.250203     4167.885            8 
  102500    1.0269425   -6.2486185    4153.1147           11 
  102600   0.98852069   -6.2546551     4141.778            6 
  102700       1.0335   -6.2978136    4152.2743            5 
  102800    1.0151996   -6.2985499    4156.8771            5 
  102900   0.99188953   -6.2696107    4153.6076            8 
  103000    1.0147935   -6.2541168    4155.8187            9 
  103100   0.98268099   -6.2452145     4155.584           22 
  103200   0.98248456    -6.285334     4152.065            8 
  103300   0.98651115   -6.2969178    4147.3768            3 
  103400    1.0199212    -6.297284    4143.8854            8 
  103500    1.0064695   -6.2871278    4147.3711            5 
  103600    1.0208354   -6.2481751    4138.7363            5 
  103700   0.99201868   -6.2541841    4156.2271            5 
  103800   0.98553358   -6.2574832    4156.4656            5 
  103900     1.007571   -6.2865512    4150.4276            7 
  104000    0.9930628   -6.2692693    4141.6947            8 
Loop time of 134.286 on 64 procs for 100000 steps with 4000 atoms

Performance: 128680.125 tau/day, 744.677 timesteps/s
99.9% CPU use with 64 MPI tasks x no OpenMP threads

MPI task timing breakdown:
Section |  min time  |  avg time  |  max time  |%varavg| %total
---------------------------------------------------------------
Pair    | 7.4195     | 7.5198     | 7.8199     |   2.4 |  5.60
Neigh   | 1.0857     | 1.0975     | 1.1098     |   0.6 |  0.82
Comm    | 15.063     | 16.814     | 19.594     |  25.0 | 12.52
Output  | 4.8326     | 4.834      | 4.845      |   0.1 |  3.60
Modify  | 94.366     | 100.36     | 104.19     |  23.8 | 74.73
Other   |            | 3.663      |            |       |  2.73

Nlocal:        62.5000 ave          70 max          57 min
Histogram: 6 1 10 20 6 7 5 6 1 2
Nghost:        1446.75 ave        1465 max        1431 min
Histogram: 2 2 11 7 11 16 7 3 4 1
Neighs:        6913.69 ave        7913 max        6240 min
Histogram: 4 8 8 12 16 4 4 6 1 1
FullNghs:      13826.8 ave       15806 max       12507 min
Histogram: 5 5 12 14 9 6 5 5 2 1

Total # of neighbors = 884916
Ave neighs/atom = 221.22900
Neighbor list builds = 5945
Dangerous builds = 0

#clear
#
#next RN
#
#jump SELF
Total wall time: 0:02:15
