
units lj                  # Use reduced LJ style units
atom_style atomic         # Uncharged point particles
atom_modify map hash      # Needed for indexing of clusters etc
                          # Used to be able to find where atoms are in relation to each other.

# Define a lattice with which to populate the simulation cell. With units
# set to 'lj' the second argument to the lattice command is the reduced
# density rho* and the spacings are multiples of that required to acheive
# that density. Also define a simulation cell called 'box' in lattice units
# and fill it with atoms. Here we're creating a box which is ten lattice
# constants in each direction.
lattice fcc 1.0 spacing 1 1 1                 # All equal sizes - gives the right reduced density.
Lattice spacing in x,y,z = 1.5874011 1.5874011 1.5874011

region box block 0 10 0 10 0 10 units lattice # Defines a region, "box", in lattice units
create_box 1 box                              # Creates a simulation box as specified above,
Created orthogonal box = (0.0000000 0.0000000 0.0000000) to (15.874011 15.874011 15.874011)
  2 by 4 by 4 MPI processor grid
                                              # with one type of atom
create_atoms 1 box                            # Creates particles on lattice points
Created 4000 atoms
  using lattice units in orthogonal box = (0.0000000 0.0000000 0.0000000) to (15.874011 15.874011 15.874011)
  create_atoms CPU = 0.002 seconds


# Set the mass of the first (and only) atom type.
mass 1 1.0

# Lennard-Jones interactions between particles, 3.5 sigma cut-off. Apply
# long range tail corrections to energy and pressure and set all coefficients
# to unity since we work in reduced units here. Note that this doesn't shift
# the potential such that it goes to zero at the cutoff. That would require
# pair_modify('shift', 'yes').
pair_style lj/cut  3.5      # non-GPU version
pair_modify tail  yes
pair_coeff 1  1  1.0  1.0   # Intearaction between 1 and 1 set with epsilon = 1 and sigma = 1

write_data data.*
System init for write_data ...
Neighbor list info ...
  update every 1 steps, delay 10 steps, check yes
  max neighbors/atom: 2000, page size: 100000
  master list distance cutoff = 3.8
  ghost atom cutoff = 3.8
  binsize = 1.9, bins = 9 9 9
  1 neighbor lists, perpetual/occasional/extra = 1 0 0
  (1) pair lj/cut, perpetual
      attributes: half, newton on
      pair build: half/bin/atomonly/newton
      stencil: half/bin/3d
      bin: standard

#############################
#   M E L T   S Y S T E M   #
#############################

velocity all create 2.4 6583654 mom yes dist gaussian # Assign velocities
                                                    # Temperature 2.4, random number seed, zero linear momentum
						                                                        # Gaussian distribution

timestep 0.002   # simulation timestep
thermo 100       # output thermodynamic data every 100 steps

# Define a fix  in this case with index 1 applied to all
# particles in the simulation. This fix is for simulations
# in the anisotropic NPT ensemble. Note that we use the MTK
# correction.
fix 1 all npt temp 2.4 2.4 0.1 iso 5.68 5.68 0.5 mtk yes tchain 5 pchain 5 # Use NPT ensemble
                                                                         # Set temperature and pressure and damping
                                                                         # Numbers of thermostats in chain and in barostat
run 1000         # run for 10000 steps
Per MPI rank memory allocation (min/avg/max) = 3.660 | 3.660 | 3.660 Mbytes
Step Temp E_pair E_mol TotEng Press Volume 
       0          2.4   -8.3859253            0   -4.7868253   -2.2405722         4000 
     100    1.2691967   -6.5422289            0   -4.6389098    5.3378653    4090.7551 
     200    1.4787625   -6.3158233            0   -4.0982341    6.0374862    4137.2558 
     300    1.5708342   -6.0123056            0   -3.6566434    5.8269752    4273.6084 
     400    1.6935755   -5.7191311            0    -3.179403    5.9540602    4395.1747 
     500    1.7875886   -5.4095267            0   -2.7288141    6.0322401    4536.9038 
     600    1.8873111   -5.1521313            0   -2.3218724    5.7297832     4702.884 
     700    2.0258918   -4.9144312            0   -1.8763532    5.9082203    4824.8495 
     800    2.1522544   -4.7292823            0   -1.5017078    5.7781683    4963.9277 
     900     2.239714   -4.5446635            0   -1.1859323    5.7477122    5090.6319 
    1000    2.3765823   -4.4738755            0  -0.90989327    5.6796077     5154.488 
Loop time of 0.257073 on 32 procs for 1000 steps with 4000 atoms

Performance: 672182.261 tau/day, 3889.944 timesteps/s
99.5% CPU use with 32 MPI tasks x no OpenMP threads

MPI task timing breakdown:
Section |  min time  |  avg time  |  max time  |%varavg| %total
---------------------------------------------------------------
Pair    | 0.13477    | 0.13923    | 0.14485    |   0.6 | 54.16
Neigh   | 0.025651   | 0.026434   | 0.027247   |   0.3 | 10.28
Comm    | 0.062254   | 0.069092   | 0.074996   |   1.2 | 26.88
Output  | 0.00019884 | 0.00020367 | 0.00026872 |   0.0 |  0.08
Modify  | 0.018234   | 0.020174   | 0.021913   |   0.8 |  7.85
Other   |            | 0.001938   |            |       |  0.75

Nlocal:        125.000 ave         138 max         116 min
Histogram: 1 2 6 7 6 8 0 1 0 1
Nghost:        1666.91 ave        1703 max        1646 min
Histogram: 3 5 7 4 5 4 1 0 2 1
Neighs:        11088.0 ave       12468 max       10095 min
Histogram: 1 2 5 8 9 2 2 1 1 1

Total # of neighbors = 354817
Ave neighs/atom = 88.704250
Neighbor list builds = 86
Dangerous builds = 20

# Equilibrate just above the melting temperature to avoid step fn in T

fix 1 all npt temp 1.25 1.25 0.1 iso 5.68 5.68 0.5 mtk yes tchain 5 pchain 5
run 1000
Per MPI rank memory allocation (min/avg/max) = 3.661 | 3.661 | 3.661 Mbytes
Step Temp E_pair E_mol TotEng Press Volume 
    1000    2.3765823   -4.4738755            0  -0.90989327    5.6796077     5154.488 
    1100    1.9625951   -4.6989107            0   -1.7557541    5.6812496    4983.8841 
    1200    1.7289901   -4.9599136            0   -2.3670769    5.8142104    4790.1519 
    1300    1.5792657   -5.2249024            0   -2.8565961    5.6289859    4660.4039 
    1400    1.4517319   -5.4215948            0   -3.2445414    5.5197346    4561.4045 
    1500     1.364265   -5.5680033            0   -3.5221174    5.5958139    4483.3542 
    1600    1.3084699   -5.6759595            0   -3.7137453    5.6057769    4426.4503 
    1700    1.2550401   -5.7394736            0   -3.8573841    5.7381181    4381.4433 
    1800    1.2507956   -5.8140506            0   -3.9383263    5.7576039    4349.7766 
    1900    1.2205858   -5.8218536            0   -3.9914327    5.7234503    4347.2659 
    2000    1.2599896   -5.8219529            0    -3.932441    5.7139167    4350.4536 
Loop time of 0.249804 on 32 procs for 1000 steps with 4000 atoms

Performance: 691741.468 tau/day, 4003.133 timesteps/s
99.7% CPU use with 32 MPI tasks x no OpenMP threads

MPI task timing breakdown:
Section |  min time  |  avg time  |  max time  |%varavg| %total
---------------------------------------------------------------
Pair    | 0.13415    | 0.13815    | 0.14361    |   0.7 | 55.30
Neigh   | 0.022692   | 0.023207   | 0.024222   |   0.2 |  9.29
Comm    | 0.058028   | 0.066728   | 0.07166    |   1.3 | 26.71
Output  | 0.00019911 | 0.00020398 | 0.00026545 |   0.0 |  0.08
Modify  | 0.017369   | 0.019261   | 0.02152    |   0.9 |  7.71
Other   |            | 0.002258   |            |       |  0.90

Nlocal:        125.000 ave         130 max         115 min
Histogram: 1 0 0 2 4 3 6 7 4 5
Nghost:        1853.16 ave        1868 max        1832 min
Histogram: 1 0 2 6 2 5 3 6 3 4
Neighs:        13129.4 ave       13744 max       12058 min
Histogram: 1 0 2 3 3 2 5 8 5 3

Total # of neighbors = 420140
Ave neighs/atom = 105.03500
Neighbor list builds = 75
Dangerous builds = 9


# Small amount of linear quench

fix 1 all npt temp 1.25 ${temp} 0.1 iso 5.68 5.68 0.5 mtk yes tchain 5 pchain 5
fix 1 all npt temp 1.25 2 0.1 iso 5.68 5.68 0.5 mtk yes tchain 5 pchain 5
run 2000
Per MPI rank memory allocation (min/avg/max) = 3.661 | 3.662 | 3.662 Mbytes
Step Temp E_pair E_mol TotEng Press Volume 
    2000    1.2599896   -5.8219529            0    -3.932441    5.7139167    4350.4536 
    2100    1.2782743   -5.8382031            0    -3.921271    5.7120884    4344.1116 
    2200    1.2756842   -5.7714414            0   -3.8583935    5.6444263    4374.6453 
    2300     1.348357   -5.7639457            0   -3.7419159    5.6686537    4382.9032 
    2400    1.3638097   -5.6918563            0   -3.6466532    5.6965173    4413.6041 
    2500    1.4202785   -5.6831838            0   -3.5532987    5.5734195    4432.5255 
    2600    1.4401443   -5.5949488            0   -3.4352724    5.7920883    4453.4844 
    2700    1.4792608   -5.5616884            0   -3.3433519    5.6968424    4479.7988 
    2800     1.524435   -5.5229551            0   -3.2368743    5.5423506    4519.8779 
    2900    1.5270822   -5.4210462            0   -3.1309956    5.6613352    4552.8358 
    3000    1.5804526   -5.3890162            0     -3.01893    5.5695398    4585.3728 
    3100    1.6129874   -5.2873014            0   -2.8684252    5.9322205    4597.7553 
    3200    1.6592096   -5.2618753            0   -2.7736831    5.5648742    4652.1699 
    3300    1.7189201   -5.2537316            0    -2.675996    5.3628403    4684.0058 
    3400    1.7430822   -5.1740601            0   -2.5600905    5.4197099    4722.6645 
    3500    1.7816543   -5.1221012            0   -2.4502878    5.5483629     4737.138 
    3600    1.8152742   -5.0423729            0   -2.3201424    5.7715364    4756.8348 
    3700    1.8626911   -4.9771744            0   -2.1838363    6.1067469    4753.5118 
    3800     1.863984   -4.9381964            0   -2.1429194    5.6967664    4830.0162 
    3900    1.9184586   -4.9026678            0   -2.0256993    5.6170301    4861.6114 
    4000    1.9498418   -4.8041255            0    -1.880094    5.8942595    4887.0416 
Loop time of 0.50139 on 32 procs for 2000 steps with 4000 atoms

Performance: 689284.151 tau/day, 3988.913 timesteps/s
99.8% CPU use with 32 MPI tasks x no OpenMP threads

MPI task timing breakdown:
Section |  min time  |  avg time  |  max time  |%varavg| %total
---------------------------------------------------------------
Pair    | 0.26388    | 0.27421    | 0.28183    |   0.8 | 54.69
Neigh   | 0.044942   | 0.04638    | 0.047666   |   0.3 |  9.25
Comm    | 0.12537    | 0.13591    | 0.14549    |   1.4 | 27.11
Output  | 0.00040514 | 0.00041122 | 0.00053781 |   0.0 |  0.08
Modify  | 0.035916   | 0.039926   | 0.042916   |   1.1 |  7.96
Other   |            | 0.004557   |            |       |  0.91

Nlocal:        125.000 ave         132 max         116 min
Histogram: 1 3 2 1 2 8 6 4 3 2
Nghost:        1724.56 ave        1740 max        1699 min
Histogram: 1 1 2 1 3 4 6 7 2 5
Neighs:        11701.4 ave       12441 max       10779 min
Histogram: 2 2 2 0 5 6 7 3 1 4

Total # of neighbors = 374444
Ave neighs/atom = 93.611000
Neighbor list builds = 149
Dangerous builds = 0

#############################
# F R E E Z E  S Y S T E M  #
#############################

# Define solid atoms. This closely follows ten Wolde  Ruiz-Montero and Frenkel  Faraday Discuss  1996  104  93-110
# Compute components of the per-atom q6 vector
compute q6 all orientorder/atom degrees 1 6 components 6 nnn NULL cutoff 1.3 # compute the Q6 parameter.
                                                                             # Use all neighbours within 1.3 unit cell.

# get number of connections
compute coord_number all coord/atom orientorder q6 0.5

# An atom is solid if it has 8 or more connections (of a possible 14)
variable is_solid atom c_coord_number>=8
group solid dynamic all var is_solid    # Must be dynamic to update
dynamic group solid defined

# do clustering
compute cluster solid cluster/atom 1.3 # Create a cluster where all atoms within are solid and max 1.3 units from another member

# define chunks one chunk per cluster
compute clus_chunks solid chunk/atom c_cluster nchunk every compress yes  # Says which atoms are in which chunk

# count the size of each chunk
compute size_chunks solid property/chunk clus_chunks count


# Find the maximum entry in the vector of chunk sizes
variable max_n equal max(c_size_chunks)


# Thermo style which includes this variable
thermo_style custom step temp pe vol v_max_n

thermo ${N}  # Print the thermo information every 100 steps
thermo 100  

# Reset the npt fix at a lower temperature (below freezing)
fix 1  all npt temp  ${temp} ${temp}  0.1  iso  5.68  5.68  0.5  mtk yes tchain  5  pchain  5
fix 1  all npt temp  2 ${temp}  0.1  iso  5.68  5.68  0.5  mtk yes tchain  5  pchain  5
fix 1  all npt temp  2 2  0.1  iso  5.68  5.68  0.5  mtk yes tchain  5  pchain  5

dump dmp2 all dcd ${N} traj_${rand}.dcd
dump dmp2 all dcd 100 traj_${rand}.dcd
dump dmp2 all dcd 100 traj_462431.dcd


# fix rnuntil all halt ${N} v_max_n >= 3980 error soft message no   # Stop when solidified


run 100000 # 5000000  # Run for this many steps
Neighbor list info ...
  update every 1 steps, delay 10 steps, check yes
  max neighbors/atom: 2000, page size: 100000
  master list distance cutoff = 3.8
  ghost atom cutoff = 3.8
  binsize = 1.9, bins = 9 9 9
  4 neighbor lists, perpetual/occasional/extra = 1 3 0
  (1) pair lj/cut, perpetual
      attributes: half, newton on
      pair build: half/bin/atomonly/newton
      stencil: half/bin/3d
      bin: standard
  (2) compute orientorder/atom, occasional
      attributes: full, newton on
      pair build: full/bin/atomonly
      stencil: full/bin/3d
      bin: standard
  (3) compute coord/atom, occasional
      attributes: full, newton on
      pair build: full/bin/atomonly
      stencil: full/bin/3d
      bin: standard
  (4) compute cluster/atom, occasional
      attributes: full, newton on
      pair build: full/bin/atomonly
      stencil: full/bin/3d
      bin: standard
Per MPI rank memory allocation (min/avg/max) = 9.394 | 9.398 | 9.401 Mbytes
Step Temp PotEng Volume v_max_n 
    4000    1.9498418   -4.8041255    4887.0416            1 
    4100    1.9960039   -4.7976163    4910.1646            1 
    4200    2.0027752   -4.7764625    4931.9407       -1e+20 
    4300    1.9773759   -4.8148791    4947.6841            1 
    4400    2.0155459   -4.7905488    4886.2447            1 
    4500    2.0036329   -4.7586132    4970.9154            1 
    4600    1.9470489   -4.7333223    4938.6487            1 
    4700    2.0321557   -4.8099672    4903.9717            1 
    4800    1.9538888    -4.814511    4912.9804            2 
    4900    1.9883605    -4.761935    4923.0621            1 
    5000    2.0236456   -4.7440441    4950.1251            1 
    5100    2.0069275   -4.7675414    4953.0041            1 
    5200    2.0097044   -4.8031247    4928.3062            2 
    5300    1.9917465   -4.8089776    4908.2751            2 
    5400    1.9523633    -4.805961    4911.8893            1 
    5500    2.0340525   -4.8095467    4887.8395            1 
    5600    1.9841235   -4.7814357    4943.3349            3 
    5700    1.9938044   -4.7748071    4956.2669            1 
    5800    2.0687841   -4.7934351    4879.6596            1 
    5900    1.9873628    -4.842655    4910.9492            1 
    6000     1.970381   -4.8361624    4911.7329            1 
    6100    2.0546599   -4.8387507    4905.1024       -1e+20 
    6200    1.9754243   -4.8011313    4925.0821            1 
    6300    2.0521413   -4.7819182    4919.6096       -1e+20 
    6400    1.9862872    -4.791655    4937.2866            2 
    6500    1.9675976   -4.7846559    4925.0783            2 
    6600    2.0197984   -4.7852698    4930.1817            1 
    6700    1.9964994   -4.7855144     4935.459            1 
    6800    2.0183879   -4.7747316    4929.1664            1 
    6900    2.0053186   -4.7978935    4896.0603            1 
    7000    1.9809764   -4.8190328    4928.7124            2 
    7100    2.0011804   -4.7883071    4912.5168            1 
    7200    1.9921502   -4.7929138    4888.9835            1 
    7300    1.9808521   -4.8079038    4931.0434       -1e+20 
    7400      2.01758   -4.7675667    4919.1006            1 
    7500    1.9847579   -4.8024028    4907.9347            1 
    7600    2.0023564       -4.823    4907.6136       -1e+20 
    7700     2.019156   -4.8085887    4906.4237            1 
    7800    1.9828496    -4.818051    4914.4091            1 
    7900    2.0093284   -4.7999862    4904.0322            1 
    8000    1.9892359     -4.78696    4931.4428            1 
    8100    2.0275624   -4.8482157    4931.8149            1 
    8200    1.9766912   -4.7646515    4917.6564       -1e+20 
    8300    2.0382902   -4.8022654    4934.1264            2 
    8400    2.0189294   -4.8181057    4934.3185       -1e+20 
    8500    1.9956399   -4.7959657    4917.2314            1 
    8600    2.0013123   -4.7911881    4915.2955            1 
    8700    2.0089223   -4.7826025    4969.0144            1 
    8800    1.9930067   -4.7405207    4915.3762       -1e+20 
    8900    1.9794058   -4.7479654    4938.1176            1 
    9000    2.0383548   -4.8296429    4937.8502            1 
    9100    2.0064602   -4.8044407    4925.1003            1 
    9200    1.9587265   -4.8370227    4908.2334       -1e+20 
    9300    1.9863549   -4.8138551    4879.7227            1 
    9400    2.0015685   -4.7867215       4925.5            1 
    9500    2.0049901   -4.8285361     4943.577            1 
    9600      2.00392   -4.8110505    4885.2296            2 
    9700    1.9537324   -4.8046412    4919.7757            1 
    9800    2.0167758    -4.818322    4932.9095            1 
    9900    2.0270976   -4.8070303    4901.0391            4 
   10000    1.9743401   -4.8296201    4917.5609            1 
   10100      2.00841    -4.801487    4922.1621            2 
   10200    2.0139087   -4.8143262    4907.6906            1 
   10300    1.9798989   -4.8556427    4877.3401            1 
   10400    1.9844376   -4.8703956    4907.7782            2 
   10500    2.0249741   -4.8217093    4907.2013            1 
   10600    1.9814876   -4.7927682    4914.7755            1 
   10700    2.0016619   -4.7924316    4923.4995            1 
   10800    1.9845935   -4.8227166    4903.8598            1 
   10900    1.9996754   -4.8426957    4898.3141            1 
   11000    1.9713042   -4.7687356     4926.382            1 
   11100    1.9773313   -4.7472656    4927.2095            2 
   11200    2.0495074     -4.75459    4938.8099            1 
   11300    1.9895591   -4.7689695      4957.28            1 
   11400     1.972523   -4.7992789    4916.7335            2 
   11500    2.0037871   -4.8063138     4896.906            1 
   11600    1.9934383   -4.8014219    4934.1481            1 
   11700    2.0217044     -4.79572    4902.4522            2 
   11800    1.9998997    -4.822689    4926.0008            2 
   11900    1.9683957   -4.8081571    4929.7884            1 
   12000    2.0224004    -4.750883    4886.8898       -1e+20 
   12100    1.9527918   -4.8051646    4932.4267            1 
   12200    2.0153097   -4.7859047    4898.0181            1 
   12300    2.0290624   -4.8485665    4920.5098            2 
   12400    1.9838732   -4.7873481     4948.233            1 
   12500    2.0177513   -4.8086649    4901.3923            1 
   12600    2.0024503   -4.8291324    4915.2105            1 
   12700    1.9481814   -4.8011693    4903.0809            1 
   12800    2.0368852   -4.8483387    4876.2363            1 
   12900    1.9632082   -4.8121432    4943.9801            1 
   13000    2.0430448   -4.8267913    4920.9432            1 
   13100    1.9679563    -4.748514    4926.4107            1 
   13200    1.9915082   -4.7323841    4934.0595            2 
   13300    2.0003318    -4.800178    4907.5957            1 
   13400    2.0222369   -4.8121019    4962.5352       -1e+20 
   13500    2.0248751   -4.7861782    4918.4787            1 
   13600      2.00488   -4.8371598    4897.3373            1 
   13700    1.9906551   -4.8486711    4902.8309            1 
   13800     2.012081   -4.8021871    4927.9673            1 
   13900    2.0032255   -4.7791472    4936.9693            1 
   14000    2.0135502   -4.7204889    4968.2418            1 
   14100    1.9734915   -4.7566197    4946.1546            1 
   14200    2.0326907   -4.8246352    4930.9984            1 
   14300      1.99677   -4.8278576    4910.5385            1 
   14400    1.9831465   -4.7992916    4901.0673            1 
   14500    2.0013614   -4.7634005    4942.3185            1 
   14600    1.9929132    -4.836624    4919.1124            1 
   14700    2.0113685   -4.8290586    4877.3877            1 
   14800     1.968133   -4.8256517    4879.8137            1 
   14900    2.0068325   -4.8433201    4944.1298            1 
   15000    2.0331603   -4.7665095    4922.6989            1 
   15100    2.0048629   -4.7885755    4923.2516            1 
   15200    1.9713599   -4.8394389    4922.4544            1 
   15300    2.0043144   -4.8798014    4857.6676            1 
   15400     1.978869   -4.8281352    4906.9223            1 
   15500    2.0171046   -4.8407895    4893.3462            1 
   15600    1.9944095   -4.7900232    4906.0208            1 
   15700    2.0082115   -4.8363549    4923.8081            1 
   15800    1.9782921   -4.8073323    4887.3431            1 
   15900    2.0062659   -4.8054955    4925.3474            1 
   16000    1.9782129    -4.814161    4900.7781            2 
   16100    2.0235348   -4.8295384    4918.1854            1 
   16200    2.0069591   -4.8234143    4931.3801            2 
   16300    2.0109876   -4.8170451    4907.8321            1 
   16400    2.0134712   -4.7997022    4939.4685            2 
   16500    1.9905243   -4.7808531    4928.5863            1 
   16600    1.9994183   -4.7698201    4925.5701            1 
   16700    1.9829804   -4.8086859    4933.4749            1 
   16800    1.9702231    -4.801649    4898.8979       -1e+20 
   16900    2.0309371   -4.7829104    4895.7365            2 
   17000     1.975904   -4.8339298    4947.5171            1 
   17100    2.0152459   -4.8026402    4899.6784            1 
   17200    1.9727241   -4.7722368    4906.3841            1 
   17300    1.9880405   -4.7716514    4956.8181            1 
   17400    1.9882525   -4.8005909    4920.4785            1 
   17500    2.0180007   -4.8111422    4893.7939            2 
   17600    1.9822584    -4.803751    4942.9406            1 
   17700     1.989577   -4.7904574    4912.2659            1 
   17800    2.0020774   -4.7716516    4901.9003            2 
   17900    1.9914322   -4.7870917    4983.0639            1 
   18000    2.0328268   -4.8082273    4919.2333            1 
   18100    1.9880464   -4.7814313    4921.6343            1 
   18200    2.0183481   -4.7821658    4941.1422            2 
   18300    1.9846198   -4.8234802     4915.008            1 
   18400    2.0189285   -4.8086565    4921.7306            1 
   18500    1.9993039   -4.7777364    4919.2544            1 
   18600    1.9585366   -4.7454168    4935.2049            2 
   18700    2.0150065   -4.7552631    4952.3017            1 
   18800    1.9982691   -4.7339637    4931.8983            1 
   18900    1.9944049   -4.7591123    4950.9427       -1e+20 
   19000    1.9814256   -4.7345973    4951.2448            1 
   19100    1.9616899   -4.7570251    4880.9163       -1e+20 
   19200    2.0195322   -4.8257791    4921.2603            1 
   19300    1.9946357   -4.8233775    4932.0909            1 
   19400    2.0224877    -4.821524    4892.4646            1 
   19500    1.9388152   -4.7995532    4887.2282            1 
   19600    2.0159129   -4.8369759    4898.1687            1 
   19700    1.9636944   -4.8345521    4895.7046            1 
   19800    1.9751737   -4.8256723    4869.9952            1 
   19900    1.9885194   -4.7932533    4912.1543            1 
   20000    1.9738005   -4.7697401    4936.9449            2 
   20100    2.0299103   -4.7458812    4959.7314            1 
   20200    2.0227185   -4.8029161    4920.2907       -1e+20 
   20300    1.9955862   -4.8248848    4904.4024            1 
   20400    2.0503454   -4.8399155    4937.7025       -1e+20 
   20500     2.015626   -4.7785089    4937.2514            1 
   20600    1.9668007   -4.7849685    4904.3391            1 
   20700    2.0173122   -4.7916847    4918.3096            1 
   20800    1.9870403    -4.788441    4942.4427            1 
   20900    2.0227327   -4.8115477     4919.276            1 
   21000    1.9894316   -4.8116176    4915.0681            1 
   21100    1.9794012   -4.7651254    4955.8937            1 
   21200    2.0466821   -4.7771155    4906.2442            2 
   21300    1.9638666   -4.7857687    4922.6745            1 
   21400    1.9548012   -4.8086597    4897.5758            1 
   21500    2.0110568   -4.8129579    4883.0943            1 
   21600    1.9813651   -4.8254036    4934.4897       -1e+20 
   21700    2.0411097   -4.8145488    4927.3949            1 
   21800    2.0189643   -4.8095802    4906.3086       -1e+20 
   21900    1.9404906   -4.8131856    4931.8576            1 
   22000    2.0212683   -4.7996274    4905.9197            1 
   22100    2.0018653   -4.7796086    4930.4157            1 
   22200    2.0017626    -4.840376    4930.3775            2 
   22300    1.9880797   -4.7930896    4891.5099            1 
   22400     2.020647   -4.7921382    4914.2426            1 
   22500    1.9844252   -4.8413076     4926.041            1 
   22600    2.0073054   -4.7878825    4909.0377            2 
   22700    2.0008302    -4.818189    4925.2644            1 
   22800    1.9917606   -4.8095734    4929.4598            1 
   22900    2.0237075   -4.7952158    4878.0813            1 
   23000    1.9369534   -4.7871801    4928.6182            2 
   23100    1.9836896   -4.7843948    4932.8272            1 
   23200    2.0242083   -4.7567377    4927.5166            1 
   23300    2.0141421   -4.8089131    4952.7832       -1e+20 
   23400    1.9320395   -4.7375239    4911.1784            1 
   23500    2.0088131   -4.7821688    4937.5961            1 
   23600    1.9965308   -4.7956905    4937.9771            1 
   23700    1.9810658   -4.8254101    4887.0849            1 
   23800    1.9758626   -4.7988446    4899.8824            1 
   23900    1.9928898   -4.8229987    4920.1539            1 
   24000    2.0323798   -4.7887005    4931.6822            1 
   24100    2.0280677   -4.7848893    4926.0982            1 
   24200    1.9835232   -4.7955762    4929.1782            2 
   24300    2.0213848   -4.8415813    4912.2946            1 
   24400    1.9716088   -4.7949408    4916.5748       -1e+20 
   24500    2.0032612    -4.771205    4938.1104            1 
   24600    2.0101408   -4.8275647    4912.0201            1 
   24700    1.9969497   -4.8235359    4910.0102            1 
   24800    2.0375987   -4.8022862    4933.3933            1 
   24900    1.9949368   -4.8136484    4935.3398            1 
   25000    1.9871056   -4.8137041    4898.4148            1 
   25100    1.9893506   -4.8191882     4895.266            1 
   25200    1.9978998   -4.7599838    4929.2829            1 
   25300    1.9749591   -4.7506814    4929.9494            1 
   25400    2.0452397   -4.8137868    4930.9042            1 
   25500     1.983634   -4.7781255    4938.3696            1 
   25600    1.9837065   -4.7907152    4899.8777       -1e+20 
   25700    1.9570391   -4.8201603    4884.5066            1 
   25800    1.9941511    -4.801199    4916.5366            1 
   25900    1.9812194   -4.7807547    4916.0825            1 
   26000    1.9926254     -4.82111    4909.2863       -1e+20 
   26100    1.9944002   -4.7973816    4906.1793            1 
   26200     2.020621    -4.845772    4920.4101            1 
   26300    1.9761894   -4.8017016    4920.7182            1 
   26400    2.0012507   -4.8392952    4878.9086            1 
   26500    2.0166203   -4.8035326    4913.6582            1 
   26600     1.988574   -4.8417421    4934.8448            1 
   26700    2.0230701   -4.7930277      4914.72            1 
   26800    1.9843615   -4.7783309    4914.9945            2 
   26900     1.982407   -4.7823102    4952.6897            1 
   27000    2.0537814   -4.7818736     4901.765            1 
   27100    1.9817039   -4.8166846    4938.2122            1 
   27200    2.0248063   -4.8052829    4911.9072       -1e+20 
   27300    2.0115137   -4.8180019    4934.7549            1 
   27400    2.0138924   -4.8061827    4938.2763            2 
   27500    1.9949657   -4.7958446    4909.5736       -1e+20 
   27600    1.9700228   -4.8189223    4902.8774            3 
   27700     2.000267   -4.8194013       4930.5            2 
   27800    2.0311939   -4.8056729    4914.3815            2 
   27900    1.9703336   -4.7807811    4934.8339            1 
   28000    2.0084155   -4.7765094    4902.9077            1 
   28100    1.9928329   -4.7942199    4938.4857            1 
   28200     1.998093   -4.7938235    4949.2698       -1e+20 
   28300    1.9816568   -4.7947606    4897.9496            1 
   28400    1.9863615   -4.7849175    4917.9475            1 
   28500    2.0449452    -4.829679    4930.1995            1 
   28600    1.9706583   -4.7879936     4940.875            1 
   28700    2.0459473   -4.7811276    4913.0863            1 
   28800    1.9747419    -4.800449    4927.5075            1 
   28900    1.9796514   -4.7991773    4920.1099            1 
   29000    2.0013995   -4.8237885    4884.8945            1 
   29100    1.9954917   -4.8085323    4902.5449       -1e+20 
   29200    2.0310022    -4.811134    4942.6339            2 
   29300    1.9884535   -4.7802918    4930.1202            1 
   29400    1.9821306   -4.7282082    4926.7516            1 
   29500     1.978677   -4.7871943    4894.4168            1 
   29600    1.9741518   -4.8349307    4900.6591       -1e+20 
   29700    1.9910618   -4.8039256    4913.5896            1 
   29800    1.9941919   -4.7636641    4934.0948            1 
   29900    1.9969965   -4.8091131    4926.7913            1 
   30000    2.0063313   -4.8081609    4915.4369            1 
   30100    1.9834003   -4.7509463    4944.4686            1 
   30200    2.0287351   -4.7812301    4932.9017            1 
   30300    1.9796196   -4.7964141     4907.899            2 
   30400    2.0024911   -4.7557473    4923.5013            1 
   30500    2.0361291   -4.7694587    4970.4639            1 
   30600    1.9902225   -4.7604561    4947.7008            1 
   30700    2.0398507   -4.7968009    4925.0925            1 
   30800    1.9849895   -4.8205126    4929.8769            1 
   30900    2.0066933    -4.821084    4901.2185            1 
   31000    1.9760564   -4.7870133     4905.148            1 
   31100    1.9794681   -4.7592565    4919.6517            1 
   31200    2.0205391   -4.7296671     4938.465            1 
   31300    1.9826325   -4.7930721    4958.7345            1 
   31400    1.9825282   -4.8141199    4908.8652            1 
   31500     2.028253   -4.8314984    4872.2073            1 
   31600    1.9961429   -4.7547492    4949.6045            1 
   31700    2.0368032   -4.6937602     4967.294            1 
   31800    1.9938575   -4.7415015    4965.6985            1 
   31900    2.0017328   -4.7687346     4907.171            1 
   32000     1.965349   -4.7577812     4939.496            1 
   32100    2.0176568   -4.7886792    4916.9543            2 
   32200    1.9537426   -4.7576033     4916.326            1 
   32300    2.0008649   -4.7677054    4936.5014       -1e+20 
   32400     1.987732   -4.8076879    4924.0147            1 
   32500    1.9392106   -4.8276071    4883.1035            1 
   32600     2.008819   -4.8540202    4903.1212            1 
   32700    2.0029011   -4.8063195    4916.8293            1 
   32800    2.0172701   -4.7398023    4957.2669            2 
   32900    1.9948585   -4.7536103    4936.8575            1 
   33000    1.9683354   -4.7825422     4916.831            1 
   33100    1.9771054   -4.8094158    4900.7952       -1e+20 
   33200    2.0165212   -4.7927567    4939.6916            2 
   33300    1.9873024   -4.7627172    4922.8884            1 
   33400    1.9771304   -4.8113576    4890.5561            1 
   33500    1.9942866   -4.7832375    4920.5286       -1e+20 
   33600    2.0220923   -4.7672586    4975.6384            1 
   33700    2.0441365   -4.7636597    4928.1722            2 
   33800    1.9736564   -4.8013044    4934.6032       -1e+20 
   33900    2.0135141   -4.8492283    4897.0189       -1e+20 
   34000    1.9870427   -4.8173636    4911.4598            1 
   34100    1.9971352   -4.8056816    4923.5389            1 
   34200    2.0456743   -4.7810405    4920.7264            1 
   34300    1.9745877   -4.7843649    4931.7241            1 
   34400    1.9872074    -4.794783    4906.5256            1 
   34500    1.9638325   -4.8239699    4883.3235            2 
   34600    1.9745745   -4.7913367    4915.9332            1 
   34700    2.0145956   -4.8417479    4893.9597            1 
   34800    1.9985202   -4.8771639     4887.926       -1e+20 
   34900     1.988634   -4.8186001     4924.645       -1e+20 
   35000    1.9946767   -4.7541283    4919.0226            1 
   35100    1.9946013   -4.8074714    4902.2923       -1e+20 
   35200    1.9792368   -4.8529512      4895.11            1 
   35300    2.0273722    -4.843332    4925.3341            1 
   35400    2.0044145   -4.8051031    4924.0534            1 
   35500    2.0001539   -4.7712991    4916.6794            1 
   35600    1.9255171    -4.796553    4921.2298            1 
   35700    2.0029663   -4.8266033    4895.5083            2 
   35800    1.9952237   -4.7877319    4917.8073            1 
   35900    2.0207489    -4.788035    4931.4359            1 
   36000    1.9878112   -4.7990805    4938.8522       -1e+20 
   36100    1.9987194   -4.8333123    4914.2759            1 
   36200    1.9915587   -4.8183618    4902.0295            1 
   36300    1.9917554   -4.7773213    4945.7343            1 
   36400    2.0298984   -4.8367327    4937.3328            1 
   36500    1.9850898   -4.7802548    4910.8208            1 
   36600    2.0310179   -4.7814661    4971.9744            1 
   36700    2.0063122   -4.7840302    4914.0476            1 
   36800    2.0067195   -4.8034108    4904.7039            1 
   36900    1.9652939   -4.8034951    4948.1749            1 
   37000    2.0179982   -4.7663767    4902.7046            1 
   37100    2.0021806   -4.7739521    4904.1993            1 
   37200    1.9398121   -4.7847993    4952.1776            1 
   37300    2.0401678   -4.7873126    4895.6843            1 
   37400    1.9783255   -4.7991887    4948.2724            1 
   37500    2.0207793   -4.7743653    4928.1329            1 
   37600     2.012558   -4.7961939    4898.0498            1 
   37700    1.9434014   -4.8027843    4916.3764       -1e+20 
   37800    2.0044372    -4.807027    4913.9311            1 
   37900    2.0367578   -4.7973801    4928.0064            1 
   38000    2.0051781   -4.7319906    4951.8271            1 
   38100    2.0068387   -4.7663409    4918.8457            1 
   38200    1.9497257   -4.8155396    4918.5681            1 
   38300    2.0270845   -4.8419332    4893.7395       -1e+20 
   38400    1.9745816   -4.7819638    4915.7848            1 
   38500    2.0211461   -4.8071826    4953.8347       -1e+20 
   38600    1.9992482   -4.8350917    4907.9816            1 
   38700    1.9875771   -4.8194559    4881.8689            1 
   38800    2.0064114   -4.8103066    4951.5565            1 
   38900    2.0123663    -4.760737    4921.5187            1 
   39000    2.0061403   -4.7969679     4891.989            1 
   39100    1.9020861   -4.7782468    4957.7901            2 
   39200    2.0290723    -4.758602    4904.4487       -1e+20 
   39300    1.9758066   -4.7619623     4944.179            1 
   39400    2.0012354   -4.7636657    4951.4487            2 
   39500    1.9991552   -4.7702558    4899.3013            1 
   39600    1.9906534   -4.8341536    4921.3107            1 
   39700    2.0206915   -4.8345195    4913.8102       -1e+20 
   39800    2.0081631   -4.8238714    4917.2689            1 
   39900    1.9986566   -4.8269297    4887.2654       -1e+20 
   40000    1.9526874   -4.7518314    4933.2147            1 
   40100    2.0252244   -4.7889893     4932.506            1 
   40200    1.9295969   -4.7333161    4930.6637       -1e+20 
   40300    2.0415085   -4.8124082    4920.0106            1 
   40400    2.0367566   -4.7903521    4931.9723            1 
   40500    1.9809453   -4.8233866    4896.4662            1 
   40600    1.9971455   -4.7653663    4923.7704            1 
   40700    2.0001981   -4.8335538    4919.5143            1 
   40800    2.0003886   -4.7813106    4923.3894            1 
   40900     2.036084    -4.846146    4910.6809            1 
   41000    1.9943751   -4.8528879    4913.7854            1 
   41100    2.0355919   -4.8172996    4901.0578            1 
   41200     1.963698   -4.8002905    4918.7822            2 
   41300    2.0157257   -4.8218771    4934.4014            1 
   41400     2.062336   -4.7707831    4907.1353            1 
   41500    1.9814772   -4.8080429    4933.8108            1 
   41600    2.0263228   -4.8292264    4921.0876            1 
   41700    2.0181717   -4.8357815    4903.4751            1 
   41800    1.9788258    -4.825502    4913.9318            1 
   41900    2.0271277   -4.8221209    4899.0661            1 
   42000    2.0059898   -4.7896917    4945.6231            1 
   42100    1.9985608   -4.8144753     4929.028            1 
   42200    1.9828806   -4.8356091    4886.9044            2 
   42300    1.9656468    -4.762755    4938.8916       -1e+20 
   42400    2.0292807   -4.7863734    4911.8789            1 
   42500    1.9924482   -4.7865015    4930.0573            1 
   42600    2.0589076   -4.8241503    4940.6334            1 
   42700    1.9911486   -4.8086367    4947.4311       -1e+20 
   42800     2.030164   -4.8401761    4897.3766       -1e+20 
   42900    1.9676041   -4.8003873    4915.1015            1 
   43000    2.0081974   -4.7953677     4912.645            1 
   43100    1.9994722    -4.805996    4913.0788            1 
   43200    1.9428121   -4.8162253    4912.6227       -1e+20 
   43300    1.9999154   -4.7932187    4912.7961            1 
   43400    2.0049645   -4.7686108    4915.4355            1 
   43500    1.9968189   -4.7831036    4946.7905            1 
   43600    1.9922176   -4.7910976    4890.2704       -1e+20 
   43700    1.9451676   -4.8216495    4900.3707            1 
   43800    1.9687942   -4.8100028    4932.9839            1 
   43900    2.0368621   -4.7728707    4890.5746            1 
   44000    1.9943302   -4.8245658    4944.9401            1 
   44100    2.0192175    -4.808836    4950.9856            1 
   44200    2.0432452   -4.8129177    4897.0659            1 
   44300    2.0204191   -4.8760324    4915.9166            1 
   44400    1.9792393   -4.7961729    4918.9565            1 
   44500    2.0073417   -4.7184501    4917.4547       -1e+20 
   44600     1.967573   -4.7801917    4922.6493            1 
   44700     1.953979   -4.8527147    4895.0878            2 
   44800    1.9894058   -4.7998579    4891.8707            1 
   44900    2.0032705   -4.7729871    4941.3436            1 
   45000    1.9794784   -4.7787499    4941.2685            1 
   45100     2.013844   -4.7829166    4916.7195            1 
   45200    1.9532314   -4.7548597    4898.0086            2 
   45300    1.9892653   -4.8779986     4895.039            1 
   45400    1.9999964   -4.8144961    4928.7767            1 
   45500    2.0197821   -4.7948685    4916.1381            2 
   45600     1.979619   -4.8204937    4919.7413            1 
   45700    2.0157811    -4.853151    4897.2932       -1e+20 
   45800    1.9701365   -4.7843963    4920.9515            1 
   45900    1.9951081   -4.8178471    4865.6498       -1e+20 
   46000    1.9530658   -4.8397349    4892.6579            1 
   46100    2.0143562   -4.8484207    4905.0896            1 
   46200    2.0198425   -4.8048297    4925.5842            1 
   46300    1.9893287   -4.8035514    4930.4252            1 
   46400    2.0029795   -4.7806995     4894.881            1 
   46500    1.9818643   -4.8380429    4929.6753            1 
   46600    2.0125243   -4.8389504      4951.19            3 
   46700    2.0422663    -4.780946    4932.1293            1 
   46800    1.9981117   -4.7886213    4921.3894            2 
   46900    1.9806454   -4.7965179    4945.6583            1 
   47000    2.0377949   -4.7696975    4945.1968            1 
   47100    1.9779987   -4.7170475    4939.0808            3 
   47200    2.0082457   -4.7848677    4901.2318            1 
   47300    1.9748055   -4.8266716    4939.9571            1 
   47400    2.0462024   -4.8217128    4911.6256            1 
   47500     1.987278   -4.7943492    4932.7966            1 
   47600    2.0268184   -4.7888216    4931.5876            1 
   47700    1.9965214    -4.818161    4936.7971            1 
   47800    2.0239667    -4.774652    4908.4785            1 
   47900    1.9596094   -4.7769854    4914.3437       -1e+20 
   48000    2.0134341   -4.7902158    4934.5071            1 
   48100    2.0008592   -4.7762216    4942.3583            1 
   48200    2.0499899   -4.8298222    4882.3666       -1e+20 
   48300    1.9552218   -4.8474021    4923.8202            1 
   48400    2.0146126    -4.835497    4914.4222            2 
   48500    2.0177378   -4.7650307     4931.168            1 
   48600    1.9668427   -4.7930992    4939.4494            2 
   48700    2.0294042   -4.8507071    4908.5477            1 
   48800    2.0310681   -4.7935988    4933.1075       -1e+20 
   48900    1.9863635   -4.7766086    4932.1018            1 
   49000     2.012282   -4.8020047    4880.8188            1 
   49100    1.9640677   -4.8093047    4897.9215       -1e+20 
   49200    1.9737373   -4.7738158    4919.2921            1 
   49300    2.0231661   -4.8118195    4908.3918            1 
   49400    1.9708368   -4.7900735    4928.6843            1 
   49500    1.9938232   -4.8273319    4898.7403            1 
   49600    2.0086995   -4.8312544    4906.3857            1 
   49700    2.0136191   -4.8465977    4911.2447            1 
   49800     2.005859   -4.8567712    4900.9587       -1e+20 
   49900    2.0169184   -4.8087255    4941.5346            1 
   50000    1.9911335   -4.7978053    4892.5345       -1e+20 
   50100    1.9642877   -4.7975682    4910.9625            2 
   50200    1.9814216   -4.7676773    4930.5825            1 
   50300    1.9804491   -4.7219765    4918.3211            1 
   50400    1.9604828   -4.8065966    4931.8562            1 
   50500    1.9591816   -4.8456858    4851.1876            2 
   50600    1.9629926   -4.8350438     4880.454            2 
   50700    1.9885456   -4.8343576    4925.9652            2 
   50800     2.007027   -4.7898807    4917.9538            1 
   50900    2.0219539   -4.7860348    4921.5003            1 
   51000     1.971926   -4.8549552    4930.5176            1 
   51100    2.0195019    -4.836807    4909.6097            1 
   51200      2.02307   -4.7435041     4925.503            1 
   51300    1.9960144   -4.7776655    4948.4876            2 
   51400    2.0095763   -4.7710551    4945.4242            1 
   51500    1.9589524   -4.7475738    4900.0477            1 
   51600    1.9880033   -4.7925776    4923.3419       -1e+20 
   51700    1.9838245   -4.7533874    4949.1613            1 
   51800    2.0390645   -4.7724812    4937.6507            1 
   51900    1.9830747   -4.8052174    4930.1243       -1e+20 
   52000    1.9742239   -4.7636955    4922.9831            1 
   52100    2.0356773   -4.7869385    4883.0899            2 
   52200    1.9455429   -4.8320699    4951.6688            3 
   52300    2.0208764   -4.8185195    4908.1493       -1e+20 
   52400    2.0130674   -4.7814709    4916.7613            2 
   52500    2.0151774   -4.7968855    4956.4536       -1e+20 
   52600    1.9977256   -4.7861121    4909.8251            1 
   52700    2.0397146   -4.7423337    4951.4211            2 
   52800    2.0029176   -4.7894693    4934.5774            1 
   52900    1.9843425   -4.8099727    4915.5795            1 
   53000    2.0419352   -4.7732474    4925.0735            1 
   53100    2.0106982   -4.7888795    4935.8024            1 
   53200    1.9847886   -4.8257003    4912.5788            1 
   53300    2.0240164   -4.8478014    4896.0497            1 
   53400    1.9753782   -4.8321185    4897.4041            1 
   53500    1.9860645   -4.8331041    4902.9821            1 
   53600    2.0218112   -4.8045045    4916.8291            1 
   53700    1.9877368   -4.8182964    4924.2868            1 
   53800     2.030318   -4.8169052    4935.7755            1 
   53900    2.0436582   -4.7411046    4941.7621            1 
   54000    1.9736376   -4.7737005    4964.2915       -1e+20 
   54100    2.0050004   -4.7721273    4927.1275            1 
   54200    1.9973515   -4.7652106    4917.1656            1 
   54300    2.0118221   -4.8086409    4933.4505            1 
   54400    1.9974278   -4.7882103    4918.4733            1 
   54500    1.9889277   -4.8023532    4906.9173            1 
   54600    2.0111001   -4.8261516    4913.0674            1 
   54700    2.0095888    -4.795365    4976.3031            2 
   54800    2.0040032   -4.8034156    4911.3564            1 
   54900    2.0174419   -4.7948621    4886.7234            1 
   55000    1.9372441   -4.8135148    4926.0946            1 
   55100    2.0134078   -4.8079528    4911.2996            1 
   55200    2.0247961   -4.7954965    4919.3066            1 
   55300    1.9632923   -4.8014485    4931.7901            1 
   55400    1.9886052   -4.7829128    4905.3656            1 
   55500    2.0642923    -4.779138     4932.745            1 
   55600    2.0046895   -4.7968527    4939.9729       -1e+20 
   55700    2.0222008   -4.7516678    4938.5438            1 
   55800    1.9827769   -4.8176341    4928.8593       -1e+20 
   55900    1.9960055    -4.853523    4917.0072            1 
   56000    2.0646036   -4.8266606    4915.3343            2 
   56100    1.9925204   -4.8260811     4924.669            1 
   56200    1.9605148   -4.7661504    4908.0664            1 
   56300    2.0160479   -4.7386956    4918.9085            2 
   56400    1.9818894   -4.7818879    4933.1349       -1e+20 
   56500    2.0095973   -4.8105851    4918.2451            1 
   56600    1.9585266   -4.8252898    4899.8567            2 
   56700    2.0195345   -4.8796785    4889.4893            1 
   56800    1.9986749   -4.8412986    4902.8396            1 
   56900    2.0062509   -4.7812917    4897.5885            1 
   57000    2.0050356   -4.7867713    4948.3065            1 
   57100    2.0091305   -4.7903692     4932.147       -1e+20 
   57200    2.0308897   -4.7987866    4919.6274            1 
   57300      1.97086   -4.8127541    4912.2612       -1e+20 
   57400    1.9949101   -4.7828774    4916.5652            1 
   57500    2.0111061   -4.7632267    4922.4378            1 
   57600    1.9710429   -4.8008912    4920.8863            1 
   57700    2.0328383   -4.8410698    4912.6928            3 
   57800    2.0157926   -4.7607195    4960.5003            1 
   57900    1.9908907   -4.7631604    4930.3362            1 
   58000    2.0211559   -4.7914251    4933.3744            1 
   58100    1.9399924    -4.811309    4940.2707            1 
   58200    2.0072176   -4.7651503     4875.309            1 
   58300    1.9883957   -4.7262801     4954.088            1 
   58400    2.0000791   -4.7999216    4927.4758            1 
   58500    2.0071848   -4.8230999    4917.1802            1 
   58600    2.0337581   -4.7817495    4922.3608            1 
   58700    1.9817451    -4.786482     4936.228            1 
   58800    1.9946743   -4.8025117    4913.2256            1 
   58900    2.0208166   -4.8152077    4904.9364            1 
   59000    1.9859757    -4.836239    4933.8138            1 
   59100    2.0125075   -4.7734097    4941.4599            1 
   59200    1.9874909   -4.8009254    4890.6185            1 
   59300    2.0052216   -4.8482012    4923.5017            1 
   59400     1.982446   -4.7494709    4932.6349            1 
   59500    2.0699883   -4.7712472    4948.0048            1 
   59600    2.0145945    -4.802208    4945.8431            1 
   59700    1.9999168   -4.8083411     4934.096            3 
   59800    2.0328187   -4.8243135    4915.7773            2 
   59900    1.9776687   -4.8145378     4918.923            1 
   60000    1.9768466    -4.865114    4882.7151            1 
   60100    2.0241691   -4.8287909    4907.9812            1 
   60200    1.9772537   -4.8245531    4920.4695            1 
   60300    2.0156948   -4.8052921    4900.4528            1 
   60400    2.0263202   -4.7858072    4947.4539            1 
   60500    1.9537086   -4.8276451    4971.0827            1 
   60600    2.0506484   -4.7921775    4901.2179            1 
   60700     1.975184   -4.7782764     4927.474            1 
   60800    2.0437025   -4.7695285    4934.0053            1 
   60900     1.999512   -4.7837277    4915.8937            2 
   61000    1.9637353   -4.7654986    4942.4412            1 
   61100    2.0459674   -4.7978621    4944.9298            1 
   61200    2.0138781   -4.8031347    4928.4745            1 
   61300    1.9689021   -4.7761731    4921.3013            1 
   61400    2.0365964   -4.7562089    4937.7666       -1e+20 
   61500    1.9890606   -4.7433988    4945.5358            1 
   61600    1.9705651    -4.800802    4934.8042            1 
   61700    2.0487058   -4.7813472    4916.5962            2 
   61800    1.9651453   -4.7637276    4923.0146            1 
   61900    1.9919012   -4.7584154    4945.2852            2 
   62000    2.0199586   -4.7699427    4920.2165            1 
   62100    1.9680336   -4.7779039    4923.2894            1 
   62200    2.0227584   -4.7835113    4945.1136       -1e+20 
   62300    2.0194234   -4.8002094    4929.5247            1 
   62400    2.0039743   -4.8272113    4893.2033            1 
   62500    2.0117188    -4.881736    4909.3383       -1e+20 
   62600    2.0160253   -4.8199224    4923.1865            2 
   62700    2.0147558    -4.751379    4922.1796            1 
   62800    1.9933003   -4.8031582    4924.7172            1 
   62900    1.9730477   -4.8142006     4905.728            1 
   63000    2.0337724   -4.7913464    4927.3861            1 
   63100    1.9708191    -4.768603    4932.5035       -1e+20 
   63200    1.9476799   -4.8077222    4886.6594            4 
   63300    1.9800703   -4.7998492    4922.1771            1 
   63400    1.9896131   -4.7866549    4901.5457            2 
   63500    1.9680104   -4.8077264    4912.7383            1 
   63600    2.0273499    -4.821712    4934.1948            1 
   63700    1.9852645   -4.8400251    4926.9843            1 
   63800    2.0621063    -4.810035    4900.7254            1 
   63900    1.9794133    -4.779277     4939.352            1 
   64000    2.0130965   -4.7671469    4943.1045            2 
   64100    2.0092377   -4.7883504    4888.0577            1 
   64200    1.9448155   -4.8558357    4902.1577            4 
   64300    1.9737873   -4.8346901    4890.1963            1 
   64400    2.0145084   -4.8308649    4909.1739            1 
   64500    1.9806322   -4.8077309    4932.2212            2 
   64600    2.0383123   -4.7886244    4934.4439            1 
   64700    1.9976232   -4.8271613    4909.2923            1 
   64800    1.9781638   -4.7952318    4924.4522            1 
   64900    2.0259101   -4.7688175    4923.6184            1 
   65000    1.9596634   -4.7985376    4925.5361       -1e+20 
   65100    1.9925644   -4.7853852    4913.8243            1 
   65200    1.9885701   -4.7683767    4888.2888            1 
   65300    1.9664975   -4.7779586    4937.2207            1 
   65400    2.0221944   -4.8131439    4903.3696       -1e+20 
   65500    1.9940096   -4.7919695    4931.6865            1 
   65600     1.966907   -4.7713792    4919.3687            1 
   65700    2.0351827   -4.7899143    4942.8583            1 
   65800    1.9848726   -4.7860997    4927.1878            1 
   65900     2.038749   -4.8665628    4917.8061            1 
   66000     1.971955   -4.8061588    4921.5115            1 
   66100    2.0286788   -4.7852025    4915.6771       -1e+20 
   66200    1.9675094    -4.785865    4929.6983            1 
   66300     2.004183   -4.7784824    4915.7164            1 
   66400     1.975156   -4.8204231    4892.2093            1 
   66500    2.0001588   -4.8436237    4932.0234            1 
   66600    1.9841395   -4.8018896    4895.7107       -1e+20 
   66700    2.0232147   -4.8042938    4905.7029            3 
   66800    1.9584443   -4.7849409    4930.4779            3 
   66900    2.0601263   -4.8015949    4898.7109            1 
   67000    1.9843142   -4.7822562    4970.0162            1 
   67100    1.9733697   -4.7747694    4901.8581       -1e+20 
   67200    1.9828255   -4.8389057    4889.4679            1 
   67300    1.9970516   -4.8212465    4938.6959            1 
   67400    2.0553464   -4.7979645    4904.7472            1 
   67500    1.9808931   -4.8227599    4912.8654            1 
   67600    2.0076044   -4.8477805    4923.3041            1 
   67700    2.0251559   -4.7670564    4913.5859            2 
   67800    1.9839894   -4.8005642    4928.8707            1 
   67900    2.0118749   -4.8182885    4911.0683            2 
   68000    1.9880139   -4.7898152    4895.7682            1 
   68100    1.9711294   -4.8421434     4898.417            1 
   68200    1.9947063     -4.80929    4884.4144            1 
   68300    2.0150079   -4.8141212    4923.7854       -1e+20 
   68400    1.9708791   -4.8221324     4927.948            1 
   68500    2.0437312   -4.8031159    4885.5208            1 
   68600    1.9991693   -4.8005951      4950.66            2 
   68700    1.9789507   -4.8020507    4932.8899            1 
   68800     2.000603   -4.7433504    4926.3673       -1e+20 
   68900    2.0039394   -4.7645331    4943.9062            1 
   69000    1.9833069   -4.8074005    4913.5221            1 
   69100    1.9527382   -4.8207002    4904.7904       -1e+20 
   69200    2.0320883   -4.8015755    4896.7717            4 
   69300    1.9757703   -4.8314972    4929.6461            1 
   69400    2.0111459   -4.7849013    4924.3427       -1e+20 
   69500    2.0442706   -4.7987472    4914.5203            1 
   69600    1.9909101   -4.8587171    4924.8173            1 
   69700    2.0039128   -4.7902399    4921.7246            1 
   69800    1.9830266   -4.7581989    4907.4916            2 
   69900    1.9437973   -4.8042745    4907.7347            1 
   70000    2.0099814   -4.8291462     4915.897            1 
   70100    2.0214676   -4.7707271    4908.8042            2 
   70200    1.9689443    -4.801617    4964.8872            1 
   70300    2.0596489   -4.8166555    4889.1144            1 
   70400    1.9837231    -4.796411     4915.797            1 
   70500    1.9964158   -4.8185669    4932.4365            1 
   70600    1.9985312   -4.7854095    4897.8134            1 
   70700    2.0126539   -4.7839583    4940.1905            1 
   70800    1.9900208   -4.8011551     4917.729       -1e+20 
   70900    2.0001443   -4.7993552    4910.8102            1 
   71000    2.0423008   -4.7778636    4934.3098            1 
   71100    2.0082282   -4.7933548    4961.3381            1 
   71200    2.0077645    -4.842027    4906.1713       -1e+20 
   71300    2.0014468   -4.8516787     4900.319       -1e+20 
   71400    1.9934808   -4.7766563     4953.178            1 
   71500    2.0000453   -4.7088656    4944.4182            1 
   71600    1.9498064   -4.7479163     4931.763            3 
   71700    2.0099749   -4.8314824    4901.3463            1 
   71800    1.9681199   -4.8573248    4884.8397       -1e+20 
   71900    1.9824599    -4.803639    4896.2162            1 
   72000    2.0113585   -4.8138538    4911.4446            1 
   72100    1.9430517   -4.7996798    4914.6781            2 
   72200    2.0037476   -4.7789231    4912.6053            1 
   72300    2.0090161   -4.7761875    4939.1574            1 
   72400    2.0234273   -4.8081331    4955.3167            1 
   72500    2.0062749   -4.8201905    4903.2767            1 
   72600    2.0131791   -4.8342257    4928.8221            1 
   72700    1.9680096   -4.8400516    4922.8617       -1e+20 
   72800    2.0511386   -4.8572859    4860.2462            1 
   72900    1.9461539   -4.7830282     4926.392            1 
   73000    1.9986482   -4.7858543    4940.8265            1 
   73100    2.0429991   -4.7804131    4914.8957       -1e+20 
   73200    1.9928645   -4.8389167     4926.696            1 
   73300    2.0182189   -4.8123708    4900.1935            1 
   73400    1.9715904   -4.8366836    4891.3906            1 
   73500    2.0014333   -4.7922319    4923.0329            1 
   73600    2.0284907    -4.794606    4944.6968            1 
   73700    1.9881523   -4.7768836    4914.5437       -1e+20 
   73800    2.0248141   -4.8047007    4929.1115       -1e+20 
   73900    1.9700135   -4.8071525    4920.6377            1 
   74000    2.0267133   -4.8372863    4916.0718            2 
   74100    1.9927567    -4.792081    4931.0218            1 
   74200    2.0365787   -4.7860178    4940.8729            1 
   74300    1.9697472   -4.7670351    4931.7129       -1e+20 
   74400    1.9792076   -4.7927716    4904.3248            1 
   74500    1.9972244   -4.8390069    4876.3419            1 
   74600    2.0021004    -4.826256     4936.747            1 
   74700    2.0148557   -4.7968919    4925.9536            2 
   74800    1.9811648    -4.811199     4861.101            3 
   74900    1.9564912   -4.8151932    4913.1131            2 
   75000    1.9912101   -4.7966072    4916.5162            1 
   75100    2.0318225   -4.8140798    4919.4977            1 
   75200    1.9802686   -4.8247323    4937.9797       -1e+20 
   75300    1.9953939   -4.8104906    4904.7552            1 
   75400    1.9954551   -4.7610347    4918.9028            1 
   75500    1.9989939   -4.7701767    4952.4644            1 
   75600    2.0066088   -4.7771762    4913.2427            1 
   75700    2.0031188    -4.829441    4904.5653            1 
   75800    1.9743233   -4.8385742     4900.442            1 
   75900     2.015053   -4.8025983    4899.6004       -1e+20 
   76000    2.0018436   -4.7987786    4956.5769            2 
   76100    2.0200193   -4.8054104    4946.8295            3 
   76200    1.9829615   -4.7720942    4894.8978            1 
   76300     2.010589   -4.7931698    4936.0373            2 
   76400    1.9930483   -4.8202512      4930.19            2 
   76500    1.9908428    -4.800034    4893.2666            1 
   76600    1.9935881   -4.7851579    4911.5111            1 
   76700    1.9841509   -4.8197628    4929.9449            1 
   76800    2.0113681   -4.7346646    4920.5504            1 
   76900      2.00322   -4.8407805    4908.5488            1 
   77000    1.9565975    -4.817494    4911.8765            1 
   77100    2.0286873    -4.827942    4912.9222            1 
   77200    1.9996177   -4.8049248    4929.3922       -1e+20 
   77300    2.0096554   -4.7949745    4932.0974            1 
   77400    1.9768291   -4.7704625    4911.9811            2 
   77500    2.0222122   -4.8529141    4906.7601            1 
   77600     2.015288   -4.7756283    4967.1117            1 
   77700    2.0246758   -4.7799258    4924.0504       -1e+20 
   77800    1.9928673   -4.7943578    4919.6648            1 
   77900    1.9692633   -4.8316801    4880.0711            1 
   78000    2.0005651    -4.821938     4896.292            2 
   78100    1.9822086   -4.8085067    4944.3135            1 
   78200    2.0405801   -4.8011749    4925.5715            1 
   78300    2.0102554   -4.7938182    4936.2517            1 
   78400    1.9904749   -4.7473551    4953.9982            1 
   78500    1.9888692   -4.7692353    4921.6683            1 
   78600    1.9997618   -4.8320687    4906.2141       -1e+20 
   78700    1.9934872   -4.8363664    4915.3948            1 
   78800    1.9920595   -4.7741026    4959.8946            1 
   78900    2.0298883   -4.7479614     4897.035            1 
   79000    1.9745125   -4.7605754    4939.9389            1 
   79100    1.9919856   -4.8082704    4926.4542       -1e+20 
   79200    1.9938905   -4.8193531    4876.1746            2 
   79300    1.9988435   -4.8112966    4904.7266       -1e+20 
   79400    2.0011656   -4.8110837    4933.4281       -1e+20 
   79500    1.9824575   -4.8394119    4880.4944            1 
   79600    1.9821405   -4.8297699    4908.5767            1 
   79700    1.9788017   -4.7591901    4924.8454            1 
   79800    2.0064386   -4.7526839    4937.3526            1 
   79900    1.9952401   -4.7764431    4916.8733            1 
   80000    1.9751785   -4.8236668    4921.3866            1 
   80100    2.0114051   -4.8200971    4903.1165            2 
   80200    2.0102196   -4.7350877    4916.9065            1 
   80300    1.9764858   -4.7925063     4964.755            1 
   80400    2.0621473   -4.7736502    4920.0263            2 
   80500    1.9906412   -4.7946304    4929.9242            1 
   80600    1.9596713   -4.8070886    4919.2972            1 
   80700    2.0059012   -4.7871617    4880.7219            1 
   80800    1.9562965   -4.7783678    4913.4796            1 
   80900    2.0323599   -4.8079911    4923.0027       -1e+20 
   81000    1.9786297   -4.8037114    4890.8903       -1e+20 
   81100    1.9933398   -4.7785074    4932.8778            1 
   81200    1.9778138   -4.7554106    4937.5952            2 
   81300    1.9779822   -4.7661929    4913.6037            1 
   81400    2.0339478   -4.8030432     4930.741            1 
   81500     2.000279   -4.8358614    4929.3205            1 
   81600    2.0282514   -4.8364095    4897.9251            1 
   81700    1.9627805   -4.8414365    4881.2433            1 
   81800     1.995191   -4.8605315    4920.5939            1 
   81900    2.0267397   -4.7652359    4903.1425            1 
   82000    1.9939176    -4.813607    4936.2315            1 
   82100     1.979754   -4.8037919    4919.6808            2 
   82200     2.080445   -4.8657998    4893.5512            1 
   82300    1.9603973   -4.8366046    4931.8198            1 
   82400    2.0086178   -4.8153702    4910.6808            1 
   82500    1.9892404   -4.7722697    4939.6245            2 
   82600    1.9988816   -4.7795836    4936.3538            1 
   82700    2.0372895   -4.7312597    4941.9815            1 
   82800    1.9787015   -4.7417465    4941.7102            1 
   82900     2.004939   -4.7949194    4931.9778            1 
   83000    2.0193186   -4.7648223    4939.2937            1 
   83100     1.998606   -4.8132549    4948.8247            1 
   83200      1.99477   -4.8083196    4892.6868            1 
   83300    1.9403515    -4.809018    4897.8194            1 
   83400    1.9937292   -4.8282341    4923.1413            1 
   83500    2.0304289   -4.7709601    4914.4869            1 
   83600    1.9664105    -4.811591    4941.5304            1 
   83700    1.9920256   -4.7724145    4911.1351       -1e+20 
   83800    1.9950789   -4.7830413    4918.8168            1 
   83900    1.9798509   -4.7950167    4919.1144            2 
   84000    2.0063986   -4.8120292    4898.7786            2 
   84100    2.0059159   -4.7538176    4957.5185            1 
   84200    2.0475223   -4.8254578    4937.1633            1 
   84300    1.9707588   -4.8107245    4931.5663            1 
   84400    2.0329808   -4.7578377    4900.2128            2 
   84500    1.9767351   -4.8066717    4930.9048            1 
   84600    2.0231272   -4.7949561    4923.1765            2 
   84700    1.9830589    -4.814144    4904.0641            1 
   84800    1.9971462   -4.7568908    4936.1073       -1e+20 
   84900    2.0218412   -4.7637706    4909.0405            1 
   85000    1.9916819   -4.8180325    4916.5432            1 
   85100    2.0189195   -4.7379588    4937.8478            1 
   85200    2.0160406   -4.7841084    4932.1015            2 
   85300    1.9808859   -4.8021095    4906.6879            1 
   85400    1.9947936   -4.8042767    4903.2226            1 
   85500    2.0002998   -4.7780123    4935.6679       -1e+20 
   85600    2.0412737   -4.8262002    4924.5623            1 
   85700    1.9548066   -4.7818609    4945.9365            1 
   85800    2.0680831   -4.8145047    4899.9442            1 
   85900    2.0533916   -4.7598837    4976.8304            2 
   86000    2.0308504   -4.8176211     4926.824            1 
   86100    2.0160805    -4.817219    4913.2633       -1e+20 
   86200    1.9724994   -4.8762226    4915.1404            1 
   86300    2.0208297   -4.8521066    4885.8316            1 
   86400    1.9783605   -4.7968105    4892.6098            1 
   86500    2.0008625   -4.7836657    4940.4128            2 
   86600    2.0096271   -4.7739199    4935.0923            1 
   86700    2.0096426   -4.7914619    4935.0502            1 
   86800    2.0014472   -4.7608561    4942.0376       -1e+20 
   86900    1.9842326   -4.7622908    4918.6258            2 
   87000    2.0087278   -4.8148496    4899.3577            1 
   87100    1.9610397    -4.802458    4921.6671            2 
   87200    1.9896166   -4.7754778     4922.371            1 
   87300    2.0239445   -4.8071929    4906.5995       -1e+20 
   87400    2.0011018   -4.8326127    4925.8907            1 
   87500    2.0612089   -4.8278653    4941.7608       -1e+20 
   87600    1.9830252   -4.7477872    4920.8011            1 
   87700    2.0152728   -4.8285872    4898.6405            1 
   87800    1.9785494   -4.8195687    4919.9906            1 
   87900    2.0107826   -4.7683019    4932.6388            1 
   88000    2.0322108   -4.7768727    4919.6525            1 
   88100     1.961103   -4.8188677    4924.7516            1 
   88200      2.00968   -4.8181954    4903.6007            3 
   88300    1.9833385   -4.8193425    4902.3723            1 
   88400    2.0032643   -4.8277454    4960.5061            1 
   88500    2.0086163   -4.8030328    4904.5159            1 
   88600    1.9848393   -4.7924741    4916.4841            2 
   88700    2.0172245   -4.8393781    4937.3552            2 
   88800    2.0106848   -4.7656278    4918.6454            1 
   88900    1.9745816   -4.7924905    4912.1225            2 
   89000    1.9767644   -4.8631212    4911.2383       -1e+20 
   89100    2.0087965   -4.8026956    4915.4717            1 
   89200    2.0216704   -4.7934606    4927.7744            1 
   89300    1.9852122    -4.806869    4929.7819            1 
   89400    1.9663995   -4.7874885     4898.584            1 
   89500     2.040556    -4.808499    4921.1588            1 
   89600     1.967741   -4.7705544    4944.1699            1 
   89700    2.0110419   -4.7732276     4903.453            1 
   89800    1.9838679   -4.7916385    4932.8987            1 
   89900    2.0025352   -4.8047307    4890.1187            1 
   90000    1.9888776   -4.8225435    4926.3315            1 
   90100    1.9734698   -4.7659592    4933.8819            1 
   90200      2.03774    -4.765441    4920.0316            1 
   90300    1.9796139   -4.8088988    4950.0166            1 
   90400    2.0235527   -4.8077914    4921.2435            1 
   90500    1.9959352    -4.822214    4924.9858            1 
   90600    2.0079718   -4.7589877    4941.8045       -1e+20 
   90700    2.0101032   -4.8112631     4936.795            1 
   90800    2.0067309   -4.8136293    4924.9362            1 
   90900    2.0090871   -4.7553978     4961.381            3 
   91000    2.0450704   -4.7784416     4943.486            1 
   91100    1.9909472   -4.7999546    4912.6337            1 
   91200     2.000076   -4.7720513    4955.5231            1 
   91300    1.9986413   -4.7790098    4923.5946            1 
   91400    2.0144236   -4.8053173    4889.5346            1 
   91500    1.9644485   -4.7940996    4921.0885            2 
   91600    1.9967646   -4.8047654    4924.3747       -1e+20 
   91700    2.0384514   -4.8010316    4933.6604            1 
   91800     2.001961   -4.8152733    4957.7614            2 
   91900    1.9662014   -4.8222045    4904.4753            2 
   92000    2.0244407    -4.818685    4896.2769            2 
   92100    1.9695988   -4.8456693    4915.4625       -1e+20 
   92200    2.0186646   -4.8193506    4879.4177            2 
   92300      2.02085   -4.7826328    4938.9171            1 
   92400    1.9810765   -4.7750992    4928.2011            1 
   92500    2.0038246   -4.7772875    4907.3817            1 
   92600    1.9921142   -4.8127596    4926.4704            1 
   92700    1.9754803   -4.8421207    4902.0842            1 
   92800    2.0516194   -4.8597172    4918.9706            2 
   92900    1.9652875   -4.8082393    4942.1959            1 
   93000    2.0931836   -4.8291678    4902.7123            1 
   93100    1.9744905   -4.7822133    4909.9127            2 
   93200    2.0246231   -4.8117826     4963.064            2 
   93300    2.0223781   -4.7553702    4911.8927            1 
   93400     1.987922   -4.8129533    4922.9388            1 
   93500    2.0257136   -4.7876152    4933.5091            1 
   93600    2.0047224   -4.7288396    4963.2551            1 
   93700    1.9794159   -4.7875436    4937.0769            1 
   93800    1.9598324   -4.8216541    4906.4273       -1e+20 
   93900    2.0373088   -4.8275142    4923.3115            1 
   94000    1.9842795   -4.8191018    4912.6731            1 
   94100    1.9982553   -4.7451275    4940.5002            1 
   94200    2.0123773   -4.7473682     4924.473            1 
   94300    1.9604468   -4.8170257    4935.5508       -1e+20 
   94400    2.0193572   -4.8463537    4934.3124            1 
   94500    2.0418055    -4.803861    4927.2326            1 
   94600    1.9532405   -4.7781508    4940.3407            1 
   94700    2.0405303   -4.8084191    4895.0151            1 
   94800    1.9395177   -4.8007844    4926.4323            1 
   94900    1.9784309    -4.754248    4934.4281       -1e+20 
   95000    2.0760556   -4.8083192    4912.5282            2 
   95100    1.9863078   -4.8391999    4935.6766            1 
   95200    2.0621967   -4.8441067    4893.4646            1 
   95300     1.978127   -4.8362496    4919.2789            2 
   95400    1.9994153    -4.814209     4913.367       -1e+20 
   95500    1.9383382   -4.8361601    4880.2653            1 
   95600    1.9948216   -4.8558815    4896.5884            1 
   95700    1.9788543   -4.7927854    4905.8315            2 
   95800    2.0048988    -4.792195    4905.1873            1 
   95900    2.0183692   -4.8091483    4932.7401            1 
   96000    1.9678719   -4.8151943    4907.2332       -1e+20 
   96100    2.0140728    -4.742781    4928.2157            1 
   96200    2.0086453   -4.7925478    4924.8918            1 
   96300    1.9466189   -4.8250938    4924.4403            1 
   96400    2.0141904   -4.8173368    4895.3247            1 
   96500    2.0017741    -4.750257    4920.3911            1 
   96600    1.9995915   -4.8489287    4917.7222            1 
   96700    2.0196216    -4.871926    4896.0463            1 
   96800     1.995958   -4.7874853    4915.5528            1 
   96900    1.9861801   -4.7806986    4926.5345            2 
   97000    1.9911359   -4.8027998    4913.6753            2 
   97100    2.0221147   -4.7722902    4954.4157            1 
   97200    2.0044348   -4.7608146    4918.0613            1 
   97300     1.992302   -4.8062791    4913.2637            1 
   97400    2.0316346   -4.7676751    4939.9817            2 
   97500    2.0106219    -4.769501    4938.8662            1 
   97600    2.0006277   -4.8352486     4927.797       -1e+20 
   97700    2.0081637   -4.7962391    4892.9659            1 
   97800    2.0150117   -4.8662819    4905.3234            1 
   97900    1.9328991   -4.8361614      4896.23            1 
   98000    2.0352786   -4.8507687    4889.0116       -1e+20 
   98100    2.0075629   -4.8214601    4928.6021       -1e+20 
   98200    1.9700794   -4.8515835    4936.2409            2 
   98300    2.0452749   -4.8115926    4877.4558            2 
   98400    1.9370654   -4.7866027    4914.9785            1 
   98500    2.0076003   -4.8178383    4920.6692            1 
   98600    2.0073635   -4.8042102    4923.4916            1 
   98700    2.0049171   -4.8088156    4917.5599            1 
   98800    1.9640832   -4.8038038    4910.3986            1 
   98900    2.0169992   -4.7867947    4905.9978            1 
   99000    1.9775713   -4.7827189    4943.3344            1 
   99100    2.0379418   -4.7996688    4930.6798            1 
   99200     1.984959   -4.7605463    4900.1536            1 
   99300    1.9410178    -4.813042    4924.5428            1 
   99400    1.9904247   -4.9061361    4846.7952            2 
   99500    1.9662459   -4.8429708    4933.4875            1 
   99600    2.0076366   -4.7702396    4911.4973       -1e+20 
   99700    1.9981118   -4.7717366    4908.0476            1 
   99800    1.9356997   -4.8007116    4923.2212       -1e+20 
   99900    1.9906668    -4.787081    4905.3898            1 
  100000     1.996685   -4.7705392    4919.0351            1 
  100100    1.9715449   -4.8100292    4929.4546            1 
  100200     2.078233   -4.8566842    4886.4881            3 
  100300    1.9605422    -4.853163      4938.62            1 
  100400    1.9828055   -4.8204118    4884.7196            1 
  100500     2.003906   -4.7803998    4901.6804       -1e+20 
  100600    1.9724481   -4.7912789    4929.4491            1 
  100700    1.9612327   -4.8166962    4890.6291            2 
  100800    2.0298386   -4.8439157    4901.4817            1 
  100900     1.998344   -4.8210191    4936.2817            1 
  101000    2.0445088   -4.7720703     4918.695            3 
  101100    1.9709806   -4.7402434    4934.8665            1 
  101200    2.0461942   -4.8202937     4958.858            1 
  101300    1.9798809   -4.7710972    4902.6589            1 
  101400    1.9703818   -4.8428637    4894.1993       -1e+20 
  101500    2.0003738   -4.8783152    4878.9466            2 
  101600    2.0122042   -4.8344362    4922.6339            1 
  101700    1.9899789   -4.8592358    4902.3729            1 
  101800    2.0134618   -4.8273766    4908.9579            1 
  101900      1.97619   -4.7761975     4910.744            1 
  102000    2.0491937   -4.7892756    4921.6598            1 
  102100    1.9713469   -4.7603703    4947.1892            1 
  102200    1.9647778   -4.8379788    4886.3846            1 
  102300    1.9886216   -4.8326452    4883.4253            1 
  102400    1.9786583   -4.7712808    4940.4959            1 
  102500    2.0124059   -4.7722114    4921.3671            1 
  102600    1.9756601   -4.8378894    4921.4436            1 
  102700    1.9650739   -4.8001563    4898.1592            1 
  102800    2.0194449   -4.7961829    4927.5792            1 
  102900    1.9894593   -4.8416977    4933.2837            1 
  103000    2.0277541   -4.8926908    4882.2823            2 
  103100    2.0042975   -4.8006416    4921.1941            2 
  103200     2.002682   -4.7798785    4921.7613            1 
  103300    1.9548029   -4.7831733    4913.3643            1 
  103400     2.050973    -4.811478    4920.8907            1 
  103500     1.966605   -4.7660258    4921.7842            1 
  103600    2.0333886   -4.8205608    4910.2102            2 
  103700    1.9532471   -4.8050404    4924.6108       -1e+20 
  103800    1.9869664   -4.7747439    4921.3545       -1e+20 
  103900    2.0262342   -4.7808099     4919.027            1 
  104000    2.0025717    -4.845882    4958.0184            1 
Loop time of 169.124 on 32 procs for 100000 steps with 4000 atoms

Performance: 102173.523 tau/day, 591.282 timesteps/s
99.7% CPU use with 32 MPI tasks x no OpenMP threads

MPI task timing breakdown:
Section |  min time  |  avg time  |  max time  |%varavg| %total
---------------------------------------------------------------
Pair    | 13.1       | 13.211     | 13.357     |   2.1 |  7.81
Neigh   | 2.5601     | 2.5765     | 2.6107     |   0.7 |  1.52
Comm    | 8.512      | 9.6452     | 11.098     |  22.7 |  5.70
Output  | 3.7287     | 3.7292     | 3.7409     |   0.1 |  2.21
Modify  | 136.69     | 138.61     | 139.84     |   7.8 | 81.96
Other   |            | 1.353      |            |       |  0.80

Nlocal:        125.000 ave         135 max         118 min
Histogram: 3 5 3 2 7 6 3 1 1 1
Nghost:        1703.53 ave        1722 max        1686 min
Histogram: 4 1 4 6 3 2 4 2 4 2
Neighs:        11506.2 ave       12623 max       10406 min
Histogram: 1 0 6 3 6 5 6 3 1 1
FullNghs:      23011.5 ave       25355 max       21395 min
Histogram: 3 5 3 3 6 7 2 2 0 1

Total # of neighbors = 736369
Ave neighs/atom = 184.09225
Neighbor list builds = 8368
Dangerous builds = 352

#clear
#
#next RN
#
#jump SELF
Total wall time: 0:02:50
