
units lj                  # Use reduced LJ style units
atom_style atomic         # Uncharged point particles
atom_modify map hash      # Needed for indexing of clusters etc
                          # Used to be able to find where atoms are in relation to each other.

lattice fcc 1.0 spacing 1 1 1
Lattice spacing in x,y,z = 1.5874011 1.5874011 1.5874011
region box block 0 10 0 10 0 10 units lattice
create_box 2 box
Created orthogonal box = (0.0000000 0.0000000 0.0000000) to (15.874011 15.874011 15.874011)
  3 by 4 by 4 MPI processor grid
create_atoms 1 box
Created 4000 atoms
  using lattice units in orthogonal box = (0.0000000 0.0000000 0.0000000) to (15.874011 15.874011 15.874011)
  create_atoms CPU = 0.002 seconds
set type 1 type/fraction 2 0.29 78393
Setting atom values ...
  1200 settings made for type/fraction
mass 1 1.0
mass 2 1.0
pair_style lj/cut  3.5
pair_modify tail  yes
pair_coeff 1  1  1.0  1.0   # Intearaction between 1 and 1 set with epsilon = 1 and sigma = 1
pair_coeff 1  2  1.5  0.8
pair_coeff 2  2  0.5  0.88

write_data data.0
System init for write_data ...
Neighbor list info ...
  update every 1 steps, delay 10 steps, check yes
  max neighbors/atom: 2000, page size: 100000
  master list distance cutoff = 3.8
  ghost atom cutoff = 3.8
  binsize = 1.9, bins = 9 9 9
  1 neighbor lists, perpetual/occasional/extra = 1 0 0
  (1) pair lj/cut, perpetual
      attributes: half, newton on
      pair build: half/bin/atomonly/newton
      stencil: half/bin/3d
      bin: standard
WARNING: Not all mixed pair coeffs generated from mixing. Use write_data with 'pair ij' option to store all pair coeffs. (../write_data.cpp:312)


#############################
#   M E L T   S Y S T E M   #
#############################

velocity all create 2.4 9622624 mom yes dist gaussian # Assign velocities
                                                    # Temperature 2.4, random number seed, zero linear momentum
                                                                                # Gaussian distribution

timestep 0.002   # simulation timestep
thermo 1000       # output thermodynamic data every 1000 steps bf 100

# Define a fix  in this case with index 1 applied to all
# particles in the simulation. This fix is for simulations
# in the anisotropic NPT ensemble. Note that we use the MTK
# correction.
fix 1 all npt temp 2.4 2.4 0.1 iso 5.68 5.68 0.5 mtk yes tchain 5 pchain 5 # Use NPT ensemble
                                                                         # Set temperature and pressure and damping
                                                                         # Numbers of thermostats in chain and in barostat
run 10000          # run for 10000 steps
Per MPI rank memory allocation (min/avg/max) = 3.642 | 3.644 | 3.648 Mbytes
Step Temp E_pair E_mol TotEng Press Volume 
       0          2.4   -6.4756105            0   -2.8765105   -3.9602485         4000 
    1000    2.3656187   -4.9817283            0   -1.4341874    5.5566859    4180.2839 
    2000    2.3886953   -4.9790548            0   -1.3969076    5.7296951    4165.9082 
    3000    2.3731826   -5.0168527            0   -1.4579688    5.6528572    4151.5581 
    4000    2.4042634    -4.960189            0   -1.3546956     6.094857    4150.9157 
    5000    2.3458626   -4.9607893            0   -1.4428751    5.7686128    4175.6801 
    6000    2.4111513   -4.9499806            0   -1.3341578    5.8690025    4163.2268 
    7000    2.3604256   -4.9864384            0   -1.4466852     5.396711    4199.1218 
    8000    2.3905407   -4.9853864            0   -1.4004718    5.6507223    4171.9935 
    9000    2.4320775   -4.9453053            0    -1.298101    6.0622605    4156.8507 
   10000    2.3932458   -4.9336534            0   -1.3446822    5.6389075    4204.0108 
Loop time of 2.42537 on 48 procs for 10000 steps with 4000 atoms

Performance: 712467.553 tau/day, 4123.076 timesteps/s
99.6% CPU use with 48 MPI tasks x no OpenMP threads

MPI task timing breakdown:
Section |  min time  |  avg time  |  max time  |%varavg| %total
---------------------------------------------------------------
Pair    | 1.0147     | 1.1051     | 1.2513     |   3.5 | 45.57
Neigh   | 0.20294    | 0.21066    | 0.23438    |   1.2 |  8.69
Comm    | 0.69459    | 0.83084    | 0.9701     |   6.0 | 34.26
Output  | 0.00024113 | 0.00024684 | 0.00031535 |   0.0 |  0.01
Modify  | 0.20167    | 0.26361    | 0.32443    |   6.9 | 10.87
Other   |            | 0.01488    |            |       |  0.61

Nlocal:        83.3333 ave          93 max          76 min
Histogram: 2 8 7 4 7 9 4 6 0 1
Nghost:        1587.88 ave        1615 max        1561 min
Histogram: 2 2 5 5 8 9 10 5 1 1
Neighs:        9077.12 ave       10402 max        7841 min
Histogram: 1 5 6 5 9 6 9 3 3 1

Total # of neighbors = 435702
Ave neighs/atom = 108.92550
Neighbor list builds = 907
Dangerous builds = 221

# Equilibrate just above the melting temperature to avoid step fn in T

fix 1 all npt temp 1.25 1.25 0.1 iso 5.68 5.68 0.5 mtk yes tchain 5 pchain 5
run 2000
Per MPI rank memory allocation (min/avg/max) = 3.643 | 3.645 | 3.649 Mbytes
Step Temp E_pair E_mol TotEng Press Volume 
   10000    2.3932458   -4.9336534            0   -1.3446822    5.6389075    4204.0108 
   11000    1.2445967   -6.8379859            0   -4.9715576    5.7646162    3358.5674 
   12000    1.2501878   -6.8399549            0    -4.965142    5.5103711    3368.1585 
Loop time of 0.56487 on 48 procs for 2000 steps with 4000 atoms

Performance: 611822.400 tau/day, 3540.639 timesteps/s
99.6% CPU use with 48 MPI tasks x no OpenMP threads

MPI task timing breakdown:
Section |  min time  |  avg time  |  max time  |%varavg| %total
---------------------------------------------------------------
Pair    | 0.24641    | 0.26844    | 0.30519    |   2.3 | 47.52
Neigh   | 0.03662    | 0.039308   | 0.044036   |   0.7 |  6.96
Comm    | 0.17202    | 0.20711    | 0.23077    |   2.9 | 36.66
Output  | 5.048e-05  | 5.2119e-05 | 6.6992e-05 |   0.0 |  0.01
Modify  | 0.038516   | 0.04535    | 0.049578   |   1.6 |  8.03
Other   |            | 0.004613   |            |       |  0.82

Nlocal:        83.3333 ave          91 max          75 min
Histogram: 1 3 4 5 4 13 11 3 3 1
Nghost:        1846.33 ave        1871 max        1831 min
Histogram: 3 2 12 9 9 7 3 2 0 1
Neighs:        11331.8 ave       12769 max       10316 min
Histogram: 3 10 5 6 8 4 4 3 4 1

Total # of neighbors = 543925
Ave neighs/atom = 135.98125
Neighbor list builds = 143
Dangerous builds = 15

#############################
# L I N E A R  Q U E N C H  #
#############################

# Define solid atoms. This closely follows ten Wolde  Ruiz-Montero and Frenkel  Faraday Discuss  1996  104  93-110
# Compute components of the per-atom q6 vector
compute q6 all orientorder/atom degrees 1 6 components 6 nnn NULL cutoff 1.3 # compute the Q6 parameter.
                                                                             # Use all neighbours within 1.3 unit cell.

# get number of connections
compute coord_number all coord/atom orientorder q6 0.5

# An atom is solid if it has 8 or more connections (of a possible 14)
variable is_solid atom c_coord_number>=8
group solid dynamic all var is_solid    # Must be dynamic to update
dynamic group solid defined

# do clustering
compute cluster solid cluster/atom 1.3 # Create a cluster where all atoms within are solid and max 1.3 units from another member

# define chunks one chunk per cluster
compute clus_chunks solid chunk/atom c_cluster nchunk every compress yes  # Says which atoms are in which chunk

# count the size of each chunk
compute size_chunks solid property/chunk clus_chunks count


# Find the maximum entry in the vector of chunk sizes
variable max_n equal max(c_size_chunks)


# Thermo style which includes this variable
# thermo_style custom step temp pe vol v_max_n

thermo ${N}  # Print the thermo information every 100 steps
thermo 1000  

# Reset the npt fix at a lower temperature (below freezing)
fix 1  all npt temp  ${temp} ${temp}  0.1  iso  5.68  5.68  0.5  mtk yes tchain  5  pchain  5
fix 1  all npt temp  0.45 ${temp}  0.1  iso  5.68  5.68  0.5  mtk yes tchain  5  pchain  5
fix 1  all npt temp  0.45 0.45  0.1  iso  5.68  5.68  0.5  mtk yes tchain  5  pchain  5

dump dmp2 all dcd ${N} traj.dcd
dump dmp2 all dcd 1000 traj.dcd


compute msd all msd com yes
variable twopoint equal c_msd[4]/6/(step*dt+1.0e-6)
fix 9 all vector 10 c_msd[4]
variable fit equal slope(f_9)/6/(10*dt)
thermo_style custom step temp pe c_msd[4] v_twopoint v_fit v_max_n

fix 1 all npt temp 1.25 ${temp} 0.1 iso 5.68 5.68 0.5 mtk yes tchain 5 pchain 5
fix 1 all npt temp 1.25 0.45 0.1 iso 5.68 5.68 0.5 mtk yes tchain 5 pchain 5
run 5000000 # 5000000  # Run for this many steps
Neighbor list info ...
  update every 1 steps, delay 10 steps, check yes
  max neighbors/atom: 2000, page size: 100000
  master list distance cutoff = 3.8
  ghost atom cutoff = 3.8
  binsize = 1.9, bins = 8 8 8
  4 neighbor lists, perpetual/occasional/extra = 1 3 0
  (1) pair lj/cut, perpetual
      attributes: half, newton on
      pair build: half/bin/atomonly/newton
      stencil: half/bin/3d
      bin: standard
  (2) compute orientorder/atom, occasional
      attributes: full, newton on
      pair build: full/bin/atomonly
      stencil: full/bin/3d
      bin: standard
  (3) compute coord/atom, occasional
      attributes: full, newton on
      pair build: full/bin/atomonly
      stencil: full/bin/3d
      bin: standard
  (4) compute cluster/atom, occasional
      attributes: full, newton on
      pair build: full/bin/atomonly
      stencil: full/bin/3d
      bin: standard
Per MPI rank memory allocation (min/avg/max) = 9.809 | 9.814 | 9.819 Mbytes
Step Temp PotEng c_msd[4] v_twopoint v_fit v_max_n 
   12000    1.2501878   -6.8399549 8.4230623e-31 5.8493486e-33 8.3333333e+20            1 
   13000    1.2752843   -6.8520365   0.50035069 0.0032073761  0.040208924            2 
   14000    1.2589259   -6.8682632   0.98112904 0.0058400536  0.039570003            1 
   15000    1.2631651   -6.8435412    1.4804438 0.0082246874  0.040344317            2 
   16000    1.2541587   -6.8541702    1.9835566  0.010331024  0.041098566            2 
   17000    1.2345213    -6.847969     2.496459  0.012237544  0.041419304            1 
   18000    1.2166259   -6.8777881    3.0294145  0.014025067  0.041758792            1 
   19000    1.2464106   -6.8668056    3.5038864  0.015367922  0.041982887            2 
   20000    1.2587579   -6.9019258    3.9349571  0.016395654  0.041650913            2 
   21000    1.2434678     -6.83807    4.5139426   0.01791247  0.041662425            1 
   22000     1.236291   -6.8303998      5.07102  0.019208409  0.041866312            2 
   23000    1.2355849   -6.8673523    5.6743627  0.020559285  0.042335597            1 
   24000    1.2227866   -6.8742018     6.139941  0.021319239  0.042702855            2 
   25000    1.2472177    -6.866578    6.6666155  0.022222051  0.042835567            1 
   26000    1.2448534   -6.8639445    7.1325182  0.022860635  0.042862205            2 
   27000    1.2311367   -6.8539007    7.4725452  0.023063411   0.04264558            1 
   28000    1.2418148    -6.849218    8.0199767  0.023868978  0.042344188            1 
   29000    1.2305199   -6.8493827    8.4101798  0.024167183  0.042069171            2 
   30000    1.2703611   -6.8462795    8.8778161    0.0246606  0.041824118            1 
   31000    1.2561196   -6.8297235     9.328333  0.025076163  0.041551051            1 
   32000    1.2752739   -6.8346465    9.7941486  0.025505595   0.04130394            1 
   33000    1.2573144   -6.8752552    10.381089   0.02621487  0.041188309            1 
   34000    1.2337307    -6.870589    10.967042  0.026880005  0.041174438            1 
   35000    1.2887582   -6.8618419    11.440983  0.027240435   0.04118368            1 
   36000    1.2416266    -6.840778    11.827725  0.027378994  0.041134995            1 
   37000    1.2447349    -6.850362    12.204841  0.027488381  0.041004906            1 
   38000    1.2374347   -6.8465527    12.672796  0.027791219  0.040857446            1 
   39000    1.2317382    -6.891751    13.178939  0.028160125  0.040753444            1 
   40000     1.245805   -6.8567206    13.699627  0.028540889  0.040685831            1 
   41000    1.2634186   -6.8898637    14.087752  0.028633642  0.040630016            2 
   42000    1.2484671   -6.8917128    14.677648  0.029122317  0.040587387            2 
   43000     1.273932   -6.8770408    15.194331  0.029446377  0.040581483            1 
   44000    1.2749107   -6.8493946    15.616739  0.029577157  0.040557772            1 
   45000    1.2338691   -6.8765804    16.089054  0.029794545  0.040493135            1 
   46000    1.2428786   -6.8610749    16.693075  0.030241077  0.040480976            1 
   47000    1.2527311   -6.8596116    17.314577  0.030699604  0.040514594            2 
   48000    1.2359344   -6.8878872    17.712091  0.030750157  0.040539992            1 
   49000    1.2304698   -6.8421561    18.208847  0.030967426  0.040572909            1 
   50000    1.2588416   -6.8514473    18.678853  0.031131422  0.040588165            4 
   51000    1.2497309   -6.8759541    19.267664  0.031483111  0.040628588            1 
   52000     1.220868   -6.8817837    19.720123   0.03160276  0.040665363            1 
   53000    1.2345097   -6.9417054    20.210512  0.031777534  0.040706197            1 
   54000    1.2615269   -6.8781019    20.533586  0.031687633   0.04070433            2 
   55000    1.2219228    -6.811749    20.983375  0.031792992  0.040686753            1 
   56000    1.2408443   -6.8751488    21.522314  0.032027253  0.040667771            1 
   57000     1.259009   -6.8816449    22.143748  0.032373901  0.040663894            1 
   58000    1.2381542   -6.8595482    22.454404  0.032262075  0.040662654            3 
   59000    1.2455124   -6.8579284     22.97271  0.032447331  0.040668185            3 
   60000    1.2684055   -6.8363938    23.508734  0.032651019  0.040664212            1 
   61000    1.2507307   -6.8776495    23.903554  0.032655128  0.040648223            1 
   62000    1.2140398   -6.8802408    24.322793  0.032691926  0.040625196            2 
   63000      1.24459   -6.9031471    24.884411  0.032915888  0.040593061            1 
   64000    1.2442803   -6.9010379     25.18947  0.032798789    0.0405664            1 
   65000    1.2240193   -6.8456435    25.574323  0.032787593  0.040520399            2 
   66000    1.2550769   -6.8789015    25.980787  0.032804024  0.040472775            1 
   67000    1.2460598   -6.8694392    26.467047  0.032919212  0.040411967            1 
   68000     1.232595   -6.8951238    26.915217  0.032984334   0.04034992            3 
   69000    1.2422515   -6.8656177    27.569941   0.03329703  0.040311747            2 
   70000    1.2344399   -6.8578783    28.006128  0.033340629  0.040276351            1 
   71000    1.2337795   -6.8952759    28.357671  0.033283652  0.040245648            1 
   72000    1.2458784   -6.8500054    28.771225  0.033300028  0.040195307            1 
   73000    1.1995608   -6.9164574     29.18996  0.033321872  0.040147466            1 
   74000    1.2116937   -6.8481831    29.846917  0.033611393  0.040104137            1 
   75000    1.2291101   -6.8793663    30.172979  0.033525532  0.040071169            2 
   76000    1.2099026   -6.8428768    30.791161  0.033762238  0.040040069            1 
   77000    1.2138248    -6.880255     31.03407  0.033586656  0.040006354            1 
   78000    1.2422383    -6.899337    31.519949  0.033675159  0.039960073            1 
   79000    1.2643229    -6.881832    32.006608  0.033762245  0.039916512            2 
   80000    1.2448065   -6.8848051    32.574993  0.033932284   0.03987965            1 
   81000    1.2178888    -6.868603    32.975181  0.033925083  0.039847924            1 
   82000    1.2396143    -6.864234    33.481394  0.034025807  0.039824098            1 
   83000    1.2286589   -6.8868782    33.902886  0.034039042   0.03979436            1 
   84000    1.2532409   -6.9482305    34.394897  0.034121921  0.039761095            4 
   85000    1.2287613   -6.8713995    34.957666  0.034272222  0.039732009            3 
   86000    1.2328194   -6.8861932    35.516543  0.034415254  0.039715158            2 
   87000    1.2485366   -6.8915203    35.837374  0.034326986  0.039695791            2 
   88000    1.2264432   -6.9005179    36.396435  0.034466321  0.039685877            1 
   89000    1.2495857   -6.8481547    37.080395  0.034719471  0.039674261            1 
   90000    1.2440862   -6.8904532    37.464383  0.034689243  0.039672793            2 
   91000    1.2209414   -6.8605943    38.034352  0.034829993  0.039667673            2 
   92000    1.2429212   -6.8434296    38.437543  0.034816615  0.039668058            1 
   93000     1.241407   -6.8541271    38.745604  0.034718283  0.039655782            3 
   94000    1.2403315   -6.9184368    39.295004  0.034835996  0.039642235            2 
   95000    1.2402547   -6.8599916    39.717688  0.034840077   0.03964091            1 
   96000     1.227456   -6.8701645    40.274077  0.034960137  0.039637901            2 
   97000    1.2807025   -6.8755373    40.716065  0.034979437  0.039637372            3 
   98000     1.242614   -6.9269298    41.160904  0.035000768  0.039634572            1 
   99000     1.224354   -6.9092513    41.745105  0.035138977  0.039635025            2 
  100000    1.2194497    -6.885842    42.306626  0.035255522  0.039644126            1 
  101000    1.2341829   -6.8168411    43.189021  0.035634506  0.039660046            1 
  102000    1.2226206   -6.8365811    43.573022  0.035598874  0.039684216            2 
  103000    1.2217107   -6.9019847    43.933545  0.035544939  0.039700658            2 
  104000    1.2275818   -6.8920585    44.310325  0.035505068  0.039708643            1 
  105000    1.2438924   -6.8838758    44.594388  0.035392371  0.039712559            2 
  106000    1.2209745   -6.8968445    45.341091  0.035645512  0.039718368            1 
  107000    1.2570611   -6.8651796    45.985189   0.03581401  0.039738167            2 
  108000    1.2360284   -6.8913713    46.562986   0.03592823  0.039762943            1 
  109000    1.2474858   -6.8894722    47.279971  0.036146767  0.039794836            2 
  110000    1.2399597   -6.8669729    47.842687  0.036244459  0.039828248            1 
  111000    1.2406868   -6.9001035    48.228137   0.03620731  0.039863772            3 
  112000    1.2398695   -6.9352777    48.534984  0.036112339  0.039886821            1 
  113000    1.2283254   -6.9240471    48.971186  0.036114444  0.039906108            1 
  114000    1.2609127   -6.8864217    49.392874  0.036105902  0.039920145            2 
  115000    1.2252874   -6.8781676    49.655508  0.035982252  0.039931332            1 
  116000    1.2146109   -6.9389358    50.212755  0.036072381  0.039938783            2 
  117000    1.2184452   -6.8961709    50.677175  0.036094854  0.039944374            1 
  118000    1.2610119   -6.9075295    51.283646  0.036217264  0.039949952            2 
  119000    1.2196691   -6.8933119    51.703067  0.036206629  0.039957805            1 
  120000    1.2270123   -6.8726534     52.11149  0.036188535  0.039963002            3 
  121000    1.2400336   -6.8992737    52.449103  0.036121972  0.039963185            1 
  122000    1.2243124    -6.893358    53.058205  0.036241943  0.039963911            1 
  123000    1.2298667   -6.9084631    53.746064  0.036413323  0.039969714            2 
  124000    1.2538367   -6.9243849    54.057648  0.036329064  0.039978108            1 
  125000    1.2265956   -6.9159271    54.476549  0.036317699  0.039983648            1 
  126000    1.2350554   -6.9066578    55.059032  0.036414704  0.039987552            1 
  127000    1.2162884   -6.8989164    55.696772  0.036546438  0.039995738            1 
  128000    1.2295964   -6.9124079    56.384989  0.036708977  0.040006878            2 
  129000    1.2442916   -6.8879914    56.623306  0.036578363  0.040016064            1 
  130000    1.2456018   -6.9107081    57.137756  0.036626766   0.04002763            2 
  131000    1.2095156   -6.9354011    57.558593  0.036614881  0.040034942            1 
  132000    1.2383084   -6.9036588    57.807663  0.036494736  0.040038282            1 
  133000    1.1975566   -6.9217401    58.023822  0.036355778  0.040036957            1 
  134000    1.2068562   -6.9382571    58.564314  0.036420593  0.040031722            1 
  135000    1.2337214   -6.9399638    59.234422  0.036564458  0.040030154            3 
  136000    1.2248669   -6.9232596    59.644368  0.036546794  0.040030037            1 
  137000    1.2253298   -6.8770866    60.174354  0.036602405  0.040022883            2 
  138000    1.2313525   -6.8719741    60.611665  0.036601247  0.040020274            1 
  139000    1.2402788   -6.8251431    61.518163  0.036881393  0.040020627            1 
  140000    1.2249814   -6.9510621    61.350015  0.036517866    0.0400206            1 
  141000    1.2059607   -6.8930934    62.270658  0.036802989  0.040018102            1 
  142000    1.2205304    -6.913231    62.603306  0.036739029  0.040017826            3 
  143000    1.2286717   -6.8720884    63.139007  0.036794293   0.04001863            2 
  144000    1.2400638    -6.914395    63.770834  0.036904418  0.040020174            1 
  145000    1.2017552   -6.9500333    63.907002  0.036728162  0.040021956            1 
  146000    1.2389012   -6.8581982    64.582371  0.036862084  0.040020291            3 
  147000    1.2044321   -6.8542791      65.1103  0.036910601  0.040022541            1 
  148000    1.2269423   -6.8828874    65.573309  0.036921908  0.040024985            1 
  149000    1.2354313   -6.9088872    66.118327   0.03697893  0.040026588            2 
  150000    1.2637462   -6.9139153    66.475997  0.036931109  0.040024819            1 
  151000    1.2386948   -6.9307486      67.0352  0.036995143  0.040023154            3 
  152000    1.2203754   -6.9065855    67.275266  0.036883369  0.040021238            2 
  153000    1.2240329   -6.8969979    67.390612  0.036705126  0.040013806            2 
  154000    1.2352502   -6.9333485    67.907775  0.036746631  0.040000637            1 
  155000    1.2267898    -6.871518    68.375072  0.036760791  0.039990637            1 
  156000    1.2449682   -6.9178626    69.015139  0.036867061  0.039980106            3 
  157000    1.2234051    -6.916043      69.4013  0.036837208  0.039970876            3 
  158000    1.2348664   -6.9274361    69.632118    0.0367258  0.039959874            1 
  159000    1.2461401   -6.9212969    70.382445  0.036888074  0.039948535            2 
  160000    1.2279604   -6.8895305    70.646808  0.036795212  0.039936761            3 
  161000    1.2360952     -6.95823    70.845151  0.036669333  0.039920702            3 
  162000    1.2180232   -6.9109395    71.261397  0.036657097  0.039901234            1 
  163000    1.2369858   -6.8974906    71.857436   0.03673693   0.03988255            2 
  164000    1.2035948   -6.8720904    72.429912  0.036803817  0.039864295            2 
  165000     1.258023   -6.9145322    72.592984  0.036663123   0.03984753            2 
  166000    1.2343929   -6.9170339    73.112699  0.036703162  0.039831857            1 
  167000    1.2340286   -6.9149772    73.015588  0.036434924  0.039809162            2 
  168000    1.2243876   -6.9000628    73.435125  0.036426153  0.039783959            2 
  169000    1.2062671    -6.919218    73.898139  0.036438925  0.039758685            2 
  170000    1.2262869   -6.9436944    74.725878  0.036630332  0.039735432            1 
  171000    1.2323643   -6.8789886    75.106229  0.036601476  0.039713395            1 
  172000    1.2178896   -6.9106153    75.933564  0.036789517  0.039695297            2 
  173000    1.2392861   -6.9070532    76.202531  0.036706421  0.039677624            1 
  174000    1.2488494    -6.894856    76.499569  0.036637725  0.039659352            1 
  175000    1.2087819   -6.9401572    77.214973  0.036769034  0.039642649            1 
  176000     1.228528   -6.9020931    77.789346  0.036832077  0.039625702            2 
  177000    1.2256339   -6.9663485    77.977419  0.036712532  0.039610683            3 
  178000    1.1897539   -6.9400207    78.564136  0.036780962  0.039595652            1 
  179000    1.2083049   -6.9309264    78.965929  0.036762537  0.039579385            2 
  180000    1.2222932   -6.9245897    79.408602  0.036763242  0.039563704            2 
  181000    1.2577086   -6.9114943    79.742881  0.036714033  0.039549321            2 
  182000    1.2263479   -6.9239623     80.42824  0.036826117  0.039534881            1 
  183000    1.1847068   -6.8944998    80.794225  0.036791541  0.039522134            1 
  184000    1.2129847   -6.9070546    81.303108   0.03682206  0.039507138            1 
  185000    1.2270592   -6.9306616    81.377352  0.036656465  0.039491613            1 
  186000    1.2434822   -6.8711753    82.550558  0.036985017  0.039476972            1 
  187000    1.2176181   -6.8885793    82.708065  0.036857427  0.039463705            4 
  188000    1.2274886   -6.9193624     83.12444   0.03684594  0.039449659            1 
  189000    1.1997859    -6.922579    83.110627  0.036644897   0.03943521            3 
  190000     1.224707   -6.9303642    83.781233  0.036746155  0.039419317            1 
  191000    1.2534325   -6.9408848    84.418213  0.036831681  0.039404962            1 
  192000    1.2147754   -6.9508041      84.7225  0.036771918  0.039388271            2 
  193000    1.2095771   -6.9012554    85.587202   0.03695475  0.039376548            2 
  194000    1.2480821   -6.9475518    85.514614  0.036733081  0.039364538            1 
  195000    1.2399852   -6.8894889    86.017748  0.036759721  0.039348279            2 
  196000    1.2209321   -6.9383261    86.562498  0.036803783  0.039331448            1 
  197000    1.2108366   -6.9066807    87.102086  0.036845214  0.039317373            2 
  198000    1.1906622   -6.9367858     87.32984  0.036754983  0.039301902            1 
  199000    1.2251471   -6.9152159    87.781523  0.036759432  0.039288387            3 
  200000    1.2172278   -6.9597774    88.181988  0.036742495  0.039275533            2 
  201000    1.2278424   -6.9434871    88.958046  0.036881445  0.039263735            2 
  202000    1.2255322   -6.9388596    89.305326  0.036842131  0.039253817            2 
  203000    1.2191667   -6.9142664    89.808853  0.036867345  0.039242307            1 
  204000    1.1919097   -6.8840302    90.369451  0.036915625   0.03923012            2 
  205000    1.2458398   -6.9077365    90.879946  0.036943067  0.039218012            4 
  206000    1.1929347   -6.9151229    91.191792  0.036889883  0.039205838            1 
  207000     1.213317    -6.888216    91.423921  0.036805121  0.039193916            1 
  208000    1.2265296   -6.9154335    91.715154  0.036744853  0.039179194            1 
  209000    1.2159373     -6.94616    92.164036  0.036748021  0.039163312            1 
  210000    1.2128051   -6.9477453    92.683578  0.036779198  0.039147793            2 
  211000    1.2076255    -6.928518    93.038535  0.036745077  0.039134147            1 
  212000    1.1926985   -6.9538501    93.611188  0.036796851  0.039121348            3 
  213000    1.2110512   -6.9020641    94.438372   0.03694772  0.039109708            1 
  214000    1.2352788   -6.9319686    94.709816  0.036880769  0.039101288            1 
  215000    1.1974734   -6.8986832    95.419145  0.036984165  0.039091152            1 
  216000    1.1836611   -6.8608936    95.780751   0.03695245  0.039081299            1 
  217000    1.2382013   -6.9289148    95.765334  0.036776242   0.03906856            4 
  218000    1.1973979   -6.9404146    96.314522  0.036817478  0.039054487            1 
  219000    1.2132796     -6.96241    96.870902  0.036861074  0.039043143            1 
  220000    1.2026667   -6.9304494    97.360702  0.036879054  0.039031001            1 
  221000    1.2157153   -6.9433792    97.804127  0.036879384  0.039018829            2 
  222000    1.2239895   -6.9386221     98.09967    0.0368242  0.039006599            2 
  223000    1.2196042   -6.9281724    98.400962   0.03677166  0.038994442            1 
  224000    1.2092033   -6.9338489    99.701235  0.037091233  0.038987111            1 
  225000    1.2230413   -6.9384946    99.502524  0.036852787  0.038979821            2 
  226000    1.2332011   -6.9180648    100.13301  0.036922202  0.038970079            1 
  227000    1.2011599    -6.947585    100.78212   0.03699784  0.038960874            2 
  228000    1.1741834   -6.9737548    101.01957  0.036922359  0.038951687            1 
  229000    1.2014356   -6.9143605    101.97768  0.037109783   0.03894554            2 
  230000    1.2149333   -6.9071997    102.19119  0.037025793  0.038940553            1 
  231000    1.2169212   -6.9383392    102.65201  0.037031751  0.038935429            1 
  232000    1.2089175   -6.9565082    102.76094  0.036911259  0.038926923            2 
  233000    1.2169351   -6.9018082    103.53917  0.037031175  0.038917365            2 
  234000    1.2172605   -6.9631613    103.47082  0.036848581   0.03890726            1 
  235000    1.2091989   -6.9317662    104.21309  0.036954997  0.038898275            1 
  236000    1.1835023   -6.9467935    104.88085  0.037034198  0.038889378            1 
  237000    1.2262071   -6.9226016    105.15839  0.036975523  0.038883754            1 
  238000    1.2068513   -6.9239406    105.97943  0.037107644   0.03887804            3 
  239000    1.2010939   -6.8872446    106.86386   0.03726076  0.038875461            1 
  240000    1.2270881   -6.9446488    107.04729  0.037169197  0.038873622            2 
  241000    1.2349798    -6.949232    107.20514  0.037069551  0.038870258            1 
  242000    1.1836036   -6.9540287    107.84309   0.03713605  0.038865975            5 
  243000    1.2144638   -6.9176113    108.27708  0.037132059  0.038862305            1 
  244000    1.2065229     -6.91554    108.73493  0.037136247  0.038857854            1 
  245000    1.1916701    -6.905086    109.39692  0.037209835  0.038852135            1 
  246000    1.2311094   -6.9199871    109.86374  0.037216714  0.038847804       -1e+20 
  247000    1.2088375   -6.8888304    110.28739   0.03720897  0.038843396            4 
  248000    1.2164698   -6.9390946    110.06483  0.036984149   0.03883924            1 
  249000    1.2105899   -6.9772683    110.08717  0.036843095  0.038832495            1 
  250000    1.2070216   -6.9595973     111.0257  0.037008566  0.038823381            1 
  251000    1.2106526   -6.9424411    111.46385  0.037006591  0.038816009            2 
  252000    1.2165973   -6.9826432    111.92182  0.037011184  0.038809185            2 
  253000    1.2139219   -6.9490819    112.71966  0.037127687  0.038803937            1 
  254000     1.221347   -6.9570374    112.92163  0.037047779  0.038798265            1 
  255000    1.2174252   -6.9068833     113.8055  0.037191341  0.038792596            1 
  256000    1.2205009   -6.9451593    114.04607   0.03712437  0.038786215            1 
  257000     1.228148   -6.9071376    114.59738  0.037158683  0.038781488            2 
  258000    1.1964077   -6.9337498    115.19038  0.037206195  0.038776508            1 
  259000    1.2267283   -6.9616801    115.24642  0.037080572  0.038768947            1 
  260000    1.2118085   -6.9740982    115.59989  0.037051247  0.038760865            2 
  261000    1.1906732   -6.9174157    115.84712  0.036988225  0.038752481            2 
  262000    1.2286816   -6.9221818    116.57888  0.037079797  0.038745261            1 
  263000    1.1902135   -6.9111804    117.45306  0.037215799  0.038741246            1 
  264000    1.1948858   -6.9320457    117.87411  0.037207736  0.038738629            3 
  265000    1.2064976   -6.9457081    117.93253    0.0370857   0.03873516            1 
  266000    1.2257166   -6.9269512    118.13748  0.037010488  0.038728405            2 
  267000    1.2094293   -6.9319709    119.20698  0.037205673  0.038720645            3 
  268000    1.1974403   -6.9642037    119.15283  0.037050009  0.038713575            2 
  269000     1.191114   -6.9595522     119.4847  0.037015086  0.038706216            2 
  270000     1.206059   -6.9307375    119.87096  0.036997209  0.038698077            2 
  271000    1.2128564   -6.9527746    119.92758  0.036878099  0.038688095            1 
  272000    1.1975255   -6.9238869    121.02249  0.037077969  0.038678551            1 
  273000    1.2101657   -6.9937625    121.11565  0.036970588  0.038671458            2 
  274000      1.18191   -6.9503327    121.37746  0.036915286  0.038662875            1 
  275000    1.2064255    -6.951637     121.7552  0.036895514  0.038653042            1 
  276000    1.1994097   -6.9132048    122.15705  0.036883166  0.038642363            3 
  277000    1.2245478   -6.9372822    121.99141  0.036700184  0.038629248       -1e+20 
  278000    1.1985296   -6.9123597     123.2278  0.036938789  0.038618488            2 
  279000    1.2031371   -6.9475442    123.31499  0.036832435  0.038606705            1 
  280000    1.2242089   -7.0011772    123.43685  0.036737158  0.038594151            2 
  281000    1.1913052   -6.9784496    123.86446  0.036733232  0.038580663            2 
  282000    1.1888624    -6.972521     124.4196   0.03676702  0.038568943            1 
  283000    1.2254233   -6.9610503    124.85374   0.03676494  0.038555534            4 
  284000    1.2062425   -6.9093486    125.37342  0.036787976  0.038544277            2 
  285000    1.2123977   -6.9587434    126.48904  0.036985099   0.03853363            1 
  286000    1.2082433   -6.9634012    126.59128  0.036885571  0.038526043            3 
  287000    1.2114818   -6.9353101    127.31324  0.036966677   0.03851538            1 
  288000    1.1995885    -7.028469    127.85349  0.036994643  0.038508535            1 
  289000    1.2099046   -6.9675399    128.23509  0.036976669  0.038500149            1 
  290000     1.200269   -6.9008662    128.59222  0.036951787  0.038491271            2 
  291000    1.2305201   -6.9804275    128.38631  0.036765839  0.038480436            1 
  292000    1.2015804   -6.9213356    129.22926  0.036880495  0.038470117            1 
  293000    1.1942646    -6.966162    129.96279   0.03696325  0.038462163            1 
  294000    1.1966143   -6.9333275    130.95303  0.037118204  0.038456738            2 
  295000    1.2355088   -6.9919343    131.29288  0.037088385  0.038451527            2 
  296000    1.1851895     -6.98221    131.41589  0.036997716  0.038447334            2 
  297000     1.209724   -6.9712457    131.87743  0.037002646  0.038441333            1 
  298000    1.1866628    -6.960702    132.48953  0.037049644  0.038434156            1 
  299000    1.1844669   -6.9331608    132.75126  0.036998678  0.038426879            2 
  300000     1.218886   -6.9477595    132.52388  0.036812188  0.038416964            1 
  301000     1.212577   -6.9772839    132.71511  0.036742832  0.038407161            1 
  302000    1.2220583   -6.9262701    133.43966  0.036821097  0.038395172            1 
  303000    1.1971605   -6.9676747    133.32859  0.036669028  0.038382776            1 
  304000     1.225553   -7.0132208    133.52206  0.036601443  0.038368697            1 
  305000    1.1840775   -6.9623403    134.62853  0.036783751  0.038357069            1 
  306000    1.1650176   -6.9315921    134.81468  0.036714236    0.0383453            1 
  307000     1.207865   -6.9730536    134.95676  0.036633214  0.038332368            1 
  308000     1.173175   -6.9407459    135.87078  0.036761574  0.038319409            2 
  309000    1.2082117     -6.92674    136.22507  0.036738153    0.0383089            1 
  310000    1.1857147   -6.9769615    137.00456  0.036829183  0.038299806            2 
  311000    1.2152124   -6.9773458    136.90496  0.036684072   0.03828857            2 
  312000    1.2036986   -6.9457593    137.33556  0.036681508  0.038276958            1 
  313000    1.2078024   -6.9736002     137.3138   0.03655852  0.038265968            2 
  314000    1.1731094   -6.9264246    138.11223  0.036653988  0.038253101            1 
  315000     1.223257   -6.9905321    138.32839  0.036594812   0.03824165            2 
  316000    1.2000726   -6.9802112    138.84155  0.036614333  0.038230027            2 
  317000    1.1943246   -6.9228666    139.66354  0.036714915   0.03821711            1 
  318000    1.2108456   -6.9931811    139.40522  0.036531765  0.038204326            2 
  319000    1.1935662   -6.9849667    140.49725   0.03670252  0.038192475            1 
  320000    1.2232125   -6.9468331    140.88899   0.03668984  0.038180725            1 
  321000    1.2159058   -6.9804636    141.29213  0.036680201  0.038170376            2 
  322000    1.1924058   -6.9246816    141.83994  0.036708058   0.03815963       -1e+20 
  323000    1.2036389   -6.9335123    142.62883  0.036797944  0.038149598            2 
  324000     1.201695   -6.9332825     142.7838  0.036724228  0.038138642            1 
  325000    1.2014528   -6.9677677    142.84877  0.036627889  0.038128071            1 
  326000    1.1844317   -6.9537578    143.27365  0.036624143  0.038116619            2 
  327000    1.2090177   -6.9589381    143.70848  0.036622957  0.038105149            2 
  328000    1.1855823   -6.9491946    144.41055  0.036689672  0.038093374            1 
  329000    1.2015195   -6.9687122    144.36764  0.036567285  0.038081656            1 
  330000    1.1895906   -6.9600499    145.06848  0.036633454  0.038069618            1 
  331000    1.1810345   -6.9565111    145.75232  0.036694944  0.038059217            2 
  332000     1.187015   -6.9829317    146.06082  0.036661852  0.038049283            2 
  333000    1.2124912   -6.9454518    146.61936  0.036691532  0.038040235            1 
  334000    1.2146979   -6.9621961    146.98023  0.036671714  0.038030281            1 
  335000    1.1836971   -6.9662931    147.50087  0.036691758  0.038022043            2 
  336000    1.2073605   -6.9247868    147.45309  0.036570707  0.038012346            5 
  337000    1.1924534   -6.9729072    148.29009  0.036669162  0.038003033            2 
  338000    1.1755323   -6.9264051    149.37585  0.036828366  0.037992965            2 
  339000     1.172972   -6.9401347    148.85046  0.036590574  0.037983385            1 
  340000    1.1861205   -6.9622981     149.0138  0.036522989  0.037972702            2 
  341000    1.2011589   -6.9544586    150.06008  0.036671573  0.037961891            2 
  342000    1.1959805   -6.9593899     149.9213  0.036530531  0.037951163            1 
  343000    1.1965446   -7.0098678      150.273  0.036509475  0.037940951            2 
  344000    1.1913649   -6.9508949    150.48577  0.036454887  0.037929663            1 
  345000     1.193937   -6.9845592    151.16754  0.036513898  0.037918678            1 
  346000    1.2186976   -6.9458332    151.82312  0.036566261  0.037906934            4 
  347000    1.2227163   -6.9952288    151.53847  0.036392524  0.037896003            1 
  348000    1.1977354    -6.976405     152.4393  0.036503664  0.037885187            1 
  349000    1.1842381   -6.9709581    152.99677   0.03653218  0.037874098            1 
  350000     1.191465   -6.9505156    152.61139  0.036336044  0.037862453       -1e+20 
  351000    1.1786181   -6.9434276    153.65428  0.036480123  0.037850906            2 
  352000    1.1622568    -6.994208    153.43105   0.03632364  0.037837741            2 
  353000     1.207531   -6.9434506    154.54762  0.036484329  0.037825621            1 
  354000     1.212325   -6.9660857    154.62934  0.036400503   0.03781395            2 
  355000    1.2083003   -6.9985174    155.41991  0.036483547  0.037802192            1 
  356000    1.2168182   -6.9663261    155.44373  0.036386641  0.037791231            4 
  357000    1.2003074   -6.9435342    156.26145  0.036475595  0.037779775            4 
  358000    1.2261788   -6.9702027     156.5795  0.036447742  0.037768822            5 
  359000    1.1890374   -6.9780676    157.06682  0.036459337  0.037757951            1 
  360000    1.2006929   -6.9720543    157.33189  0.036419419  0.037745882            1 
  361000    1.1904603   -6.9659021    157.36111  0.036325278  0.037733339            2 
  362000    1.1874033   -7.0196892    158.01367  0.036375154  0.037721232            1 
  363000     1.180309   -6.9568331    158.50961    0.0363888  0.037709675            2 
  364000    1.2139198    -6.933413    159.56749   0.03653102  0.037699663            1 
  365000    1.1754436   -6.9671746    159.83526  0.036492069  0.037690783            2 
  366000    1.1819069   -6.9581058    160.48739  0.036540845  0.037681351            1 
  367000    1.2142172   -6.9499477    160.65768  0.036479946  0.037672394            1 
  368000     1.210116   -7.0085616    160.67524  0.036384792  0.037663029            1 
  369000    1.2112018   -6.9295714    161.69014  0.036515387  0.037653841            1 
  370000    1.2149027   -6.9437218    162.08227  0.036505017  0.037644927            1 
  371000    1.2009931   -6.9320916    162.64618  0.036533284  0.037636772            2 
  372000    1.2065411   -6.9938162    162.74537  0.036457297  0.037628558            1 
  373000    1.2040315   -6.9778793    163.42378  0.036511122  0.037619542            3 
  374000     1.177489   -6.9724572    164.08871  0.036561656    0.0376108            3 
  375000    1.1991611   -7.0020803    163.77409  0.036394242   0.03760232            1 
  376000    1.2243354   -6.9576552    164.31153  0.036416563  0.037593707            2 
  377000    1.2094446   -6.9490783    165.15924  0.036507348  0.037586342            3 
  378000    1.1894568    -6.970001    166.15518   0.03663033  0.037580016            2 
  379000    1.2104213   -6.9794544    166.14889  0.036532298  0.037572907            2 
  380000    1.1988157   -6.9920237    166.57804  0.036530272  0.037565441            1 
  381000    1.1962161   -6.9731725    167.51077  0.036638401  0.037557778            1 
  382000    1.1853921   -6.9804376    168.10803  0.036672782  0.037551033            1 
  383000    1.2105778   -6.9779244    168.06998  0.036568751  0.037543723            4 
  384000    1.1996618   -6.9821716    167.62027  0.036375926  0.037537046            1 
  385000    1.1718388   -7.0000724    168.50263  0.036472432  0.037529382            2 
  386000    1.1963082   -6.9670513    168.52438  0.036382638   0.03752128            1 
  387000    1.1661648   -6.9622952    169.82865  0.036569476  0.037513145            1 
  388000     1.212385   -6.9767912    169.25079  0.036351115  0.037504879            2 
  389000    1.1981565   -6.9520187    170.65724  0.036558963  0.037496801            1 
  390000    1.1991543   -6.9993937    170.72893  0.036480541  0.037489307            2 
  391000     1.207221   -7.0105683     170.1413     0.036262  0.037480884            1 
  392000    1.2118252   -6.9493844    171.99904  0.036564422  0.037473033            3 
  393000     1.189954   -7.0048892    171.90127   0.03645065  0.037465631            2 
  394000     1.182991   -6.9764024    171.92479   0.03636311  0.037458632            2 
  395000    1.1968812   -7.0008814    172.28834  0.036347751  0.037450398            2 
  396000    1.2030401   -7.0257225    172.68554  0.036339549  0.037441625            1 
  397000    1.2010002   -6.9730196    173.57851  0.036435456  0.037433334            1 
  398000    1.1866327   -6.9753264    173.60449  0.036349348   0.03742517            6 
  399000    1.1911992   -6.9999553    174.05292  0.036351905  0.037416958            1 
  400000     1.187921   -6.9584871    175.39053  0.036539695  0.037409577            1 
  401000    1.1941394   -6.9854564    174.83437  0.036332994   0.03740157            1 
  402000    1.1727292   -6.9692881    176.21263  0.036528324  0.037392769            2 
  403000    1.1828541   -6.9653137    175.80872  0.036354159  0.037384373            1 
  404000    1.1692877   -6.9885788    175.76953  0.036256092  0.037375479            1 
  405000     1.183377   -7.0104715    175.92834  0.036199248  0.037365774            2 
  406000    1.1885648   -6.9354863    176.28125  0.036182523  0.037355955            1 
  407000     1.205469   -6.9433859    176.61689  0.036162344  0.037345742            1 
  408000    1.1753678   -6.9649647    177.28789  0.036210763  0.037336498            1 
  409000    1.1710664   -6.9759356    178.33566  0.036335709  0.037327168            2 
  410000     1.178581   -6.9947411    178.03665  0.036186312  0.037317467            2 
  411000    1.1848393   -7.0008513    178.43957  0.036179962  0.037308027            2 
  412000    1.1732734   -7.0195365    178.60724  0.036126059  0.037298671            2 
  413000    1.1610272   -6.9878372    179.38385  0.036195289  0.037288092            1 
  414000     1.164832   -6.9641846    179.80022   0.03619167   0.03727793            2 
  415000    1.2083856   -6.9868985      180.029  0.036150401  0.037267459            1 
  416000    1.1866332   -6.9916515    180.45882  0.036149604   0.03725737            2 
  417000    1.1529019   -6.9599638    180.79468  0.036130031  0.037247711            2 
  418000    1.1785701   -6.9650932     181.7604  0.036236125  0.037237874            1 
  419000    1.1643227   -6.9999395    181.49856  0.036097566  0.037227692            1 
  420000    1.1894619   -6.9694098    181.98686  0.036108503  0.037216805            2 
  421000    1.2026991   -6.9533692    182.25096  0.036075012  0.037206665            1 
  422000    1.2273875   -6.9609544    182.95017  0.036127601  0.037196672            1 
  423000    1.1838993   -7.0043519    183.16426  0.036084369  0.037186261            2 
  424000    1.1913374   -6.9859326    184.39661  0.036241472  0.037176986            1 
  425000    1.1898313   -7.0252862    184.56577  0.036189367  0.037169054            1 
  426000    1.1668849   -6.9797336    185.49456  0.036286103  0.037160312            2 
  427000    1.2228256   -6.9910099    184.61408   0.03602929  0.037152766            1 
  428000    1.1616119    -7.012222    185.71999  0.036160434   0.03714377            1 
  429000    1.1792675   -6.9932574    185.90329   0.03611175  0.037134608            1 
  430000     1.206695    -7.014686    186.36424  0.036117101  0.037125928            1 
  431000    1.1747301   -6.9959942     186.3228   0.03602529  0.037116501            3 
  432000    1.1916238   -7.0480672    186.70649  0.036015912  0.037106786            2 
  433000    1.1842838   -7.0029207    187.87004  0.036156667   0.03709838            2 
  434000    1.1826458   -6.9947276    187.36328  0.035976052  0.037089273            1 
  435000    1.1962193   -6.9785414    188.38449  0.036088983  0.037079396            1 
  436000    1.1942768   -6.9779082    188.84755  0.036094715  0.037070059            2 
  437000    1.1856624   -7.0199161    189.19919  0.036079173  0.037060377            3 
  438000    1.1746021   -6.9456523    190.08437  0.036165214  0.037051551            3 
  439000    1.1814982   -7.0060978     190.1123  0.036088136  0.037043013            2 
  440000    1.1646929   -7.0183366    190.65867  0.036109597  0.037035302            2 
  441000    1.1701414   -7.0637546    190.75469  0.036045859  0.037028183            2 
  442000    1.1909676   -6.9825922    191.96897  0.036193245  0.037020986            1 
  443000    1.1592558   -6.9786798    192.36305  0.036185676  0.037013769            2 
  444000    1.2073433   -6.9958739    192.24996   0.03608295  0.037006381            2 
  445000    1.1822642   -6.9897084    193.01815  0.036145721  0.036998531            1 
  446000    1.1877588   -6.9938536    193.10982  0.036081806  0.036990101            3 
  447000      1.18311   -6.9790569    192.72527  0.035929394  0.036981045            2 
  448000    1.1890852   -7.0303532    193.41933  0.035978298  0.036971685            3 
  449000    1.1980726   -7.0110804    193.49401  0.035912028  0.036962273            1 
  450000    1.2023108   -7.0107451    194.51357  0.036021031  0.036952656            2 
  451000    1.1981161   -6.9410173    194.62181  0.035961163  0.036942816            2 
  452000    1.1925023    -7.026554    193.94323  0.035756495  0.036932685            2 
  453000    1.1589504   -7.0358021    195.07082  0.035884993  0.036921545            3 
  454000    1.1976855   -6.9660081    195.71174  0.035923594  0.036910871            1 
  455000     1.180535   -7.0331219    194.67196  0.035654206  0.036900818            1 
  456000    1.2068056   -6.9569727    195.97726  0.035814557  0.036890107            2 
  457000    1.1826157   -6.9984785    196.51624  0.035834471  0.036878696            1 
  458000    1.1855791    -7.056402    196.81976  0.035811456  0.036867953            2 
  459000    1.1815616   -7.0149802    197.26695  0.035814624  0.036856782            1 
  460000    1.1846825   -7.0102009    196.73038  0.035639562  0.036845712            2 
  461000    1.1828486    -6.948801    198.74954  0.035927249  0.036835115            1 
  462000    1.1657517   -6.9962849    198.86651  0.035870583  0.036824716            2 
  463000    1.1672856    -6.988679    199.00009   0.03581715  0.036814303            3 
  464000    1.1891946   -6.9987158    199.66801  0.035859916  0.036803514            1 
  465000    1.1881017   -7.0069519    199.87399  0.035819712  0.036793048            2 
  466000    1.1704171   -7.0147043    199.82675  0.035734397  0.036783267            1 
  467000    1.1475116   -6.9754618    200.20024  0.035724525  0.036773358            1 
  468000    1.2156426    -6.967669    201.36638  0.035855836  0.036763656            1 
  469000    1.1827698   -7.0108113    200.51716  0.035628494  0.036753209            2 
  470000    1.1654243   -7.0152241    200.89316  0.035619354  0.036742111            3 
  471000    1.1851604   -7.0126942    201.60931  0.035670437  0.036730582            1 
  472000    1.1767162   -7.0079599    201.62474  0.035597588   0.03671895            2 
  473000    1.1754173   -6.9758096    202.89451  0.035746037  0.036707507            2 
  474000    1.1635819   -6.9990074    202.48228   0.03559815  0.036695224            2 
  475000    1.1663856   -7.0220728    203.02212  0.035617915  0.036683098            2 
  476000    1.1855151   -7.0273133    203.31734  0.035594772  0.036670945            2 
  477000    1.1541414   -6.9902213    204.14632  0.035664975  0.036659753            1 
  478000    1.1534929   -7.0275978    204.70369  0.035687532  0.036649146            1 
  479000    1.1696741   -7.0014174    205.04625  0.035672625  0.036638867            1 
  480000    1.1616804   -7.0552606    205.52987  0.035682269  0.036629371            2 
  481000    1.1781548   -7.0096511    205.78202  0.035651771  0.036619004            1 
  482000    1.1695434   -7.0015697    206.24138  0.035657223   0.03660912            1 
  483000    1.1696338   -6.9967907    207.25061  0.035757524  0.036599102            1 
  484000    1.1717177   -7.0058201    207.61575  0.035746514  0.036588972            6 
  485000    1.1584175   -7.0688555    207.30896  0.035620097  0.036578771            2 
  486000    1.2180339   -7.0297498    207.66242  0.035607411  0.036568562            1 
  487000    1.1632312   -7.0493942    207.55316    0.0355156  0.036558033            1 
  488000    1.1638708   -7.0126812    208.63739  0.035627969  0.036547451            1 
  489000    1.1766111   -7.0349284    208.95257  0.035608823  0.036537527            3 
  490000     1.174394   -7.0433085    208.72028  0.035496646   0.03652711            3 
  491000    1.1649437   -7.0619684    209.26176  0.035516253  0.036516751            1 
  492000    1.1802011   -7.0127124    209.66915  0.035513067  0.036505585            2 
  493000    1.1711682   -7.0371088      209.517  0.035415315  0.036494481            1 
  494000    1.1713363   -6.9888867    209.63205  0.035363032  0.036482817            4 
  495000    1.1797692   -7.0424882    209.95872  0.035346586  0.036470704            1 
  496000    1.1930124    -7.048681    210.59487  0.035382203  0.036458474            2 
  497000    1.1735592   -7.0406597    210.99885  0.035378748  0.036446486            1 
  498000    1.1862785    -7.070231      210.446  0.035215193  0.036434298            2 
  499000    1.2034591   -6.9985655    211.51272  0.035322765  0.036421866            1 
  500000    1.1725659   -7.0172421    212.14841  0.035358068  0.036409736            2 
  501000    1.1798084   -6.9880192    213.14955  0.035454017  0.036397914            4 
  502000    1.1706762   -7.0076603    212.99371  0.035357521  0.036386652            2 
  503000    1.1674201   -7.0476289    213.55249  0.035379803  0.036374771            1 
  504000    1.1694597   -7.0520963    213.13048  0.035239829  0.036363214            1 
  505000    1.1741711   -7.0288265    213.69473  0.035263156  0.036350855            4 
  506000    1.1876069   -7.0583311    212.86884  0.035057451  0.036338128            2 
  507000    1.1471531   -6.9999458    214.81173  0.035307647  0.036325238            2 
  508000    1.1726359    -7.015489    214.29266  0.035152995  0.036312417            2 
  509000    1.1648123   -7.0152685    214.48444  0.035115331  0.036299465            2 
  510000    1.1568631   -7.0276674     215.9864  0.035291896  0.036285974            2 
  511000    1.1677181    -7.023691    215.76854  0.035187303   0.03627346            3 
  512000    1.1531622    -7.052253    216.15592  0.035181628  0.036260506            2 
  513000    1.1695664    -7.035229    216.04486  0.035095006  0.036247651            1 
  514000    1.1641224   -6.9768131     217.3763   0.03524259  0.036235636            1 
  515000    1.1836598   -7.0158396    217.19876   0.03514543  0.036223611            1 
  516000    1.1680495   -7.0225747    217.19401  0.035076552  0.036210652            1 
  517000    1.1904791   -7.0150093    217.16294  0.035003698  0.036197189            1 
  518000    1.1654573   -6.9624938    218.12489  0.035090877  0.036183081            1 
  519000    1.1889595   -7.0098544    218.74124  0.035122229   0.03616922            3 
  520000    1.1805539   -7.0169315    218.83982  0.035070485  0.036155706            2 
  521000    1.1533058   -7.0242534    218.70918  0.034982275  0.036141488            2 
  522000    1.1619171   -7.0191527    218.71798  0.034916664  0.036127774            2 
  523000    1.1542721   -7.0420526    219.14762  0.034918358   0.03611362            2 
  524000    1.1903377   -7.0393034    219.33334  0.034881256  0.036099319            3 
  525000    1.1534894   -7.0268265    220.35524  0.034977022  0.036085316            3 
  526000    1.1507549   -7.0679402    219.81512  0.034824955  0.036070966            2 
  527000    1.1588253   -7.0489334     220.6594  0.034892379  0.036055999            2 
  528000    1.1449038   -7.0406656    221.60958   0.03497626  0.036042394            2 
  529000      1.15391   -7.0002733    221.19204  0.034844367  0.036028102            2 
  530000    1.1702956   -7.0142145    221.92667   0.03489413  0.036014611            2 
  531000     1.150973   -7.0267558    222.55793  0.034927484  0.036001377            2 
  532000    1.1624324   -7.0212974    223.04741  0.034938504  0.035988429            2 
  533000    1.1657932   -7.0364514    223.03251  0.034870624  0.035975398            1 
  534000     1.172675   -7.0726166    223.58682  0.034891825  0.035962757            3 
  535000    1.1794655   -7.0380435    223.98603   0.03488879  0.035949508            1 
  536000    1.1716408   -7.0017545    223.89067  0.034808873  0.035935945            3 
  537000    1.1691519   -7.0371175    223.60583   0.03469985  0.035922214            1 
  538000    1.1659679   -7.0372123    224.83026   0.03482501  0.035908802            1 
  539000     1.157186   -7.0467145    224.33581  0.034683954  0.035895244            1 
  540000    1.1714674    -7.057417    225.29853  0.034768291  0.035881344            1 
  541000    1.1793673   -6.9926735    225.52572  0.034739021   0.03586741            2 
  542000    1.1255216   -7.0243438    225.73261  0.034706736  0.035853837            1 
  543000    1.1524095   -7.0615971    226.86535  0.034816658  0.035840093            5 
  544000    1.1659002    -7.042766    226.31217  0.034667918  0.035826283            2 
  545000    1.1582774   -6.9959047    227.88519   0.03484483  0.035812566            3 
  546000    1.1554058   -7.0172679    227.47754  0.034718794  0.035798522            2 
  547000    1.1588948   -7.0327601    227.26661  0.034623189  0.035784325            1 
  548000    1.1735306   -7.0035662    227.65524  0.034619107  0.035769714            1 
  549000    1.1926434   -7.0444035    227.41566  0.034519681  0.035755936            2 
  550000    1.1713972   -7.0560791    228.17063  0.034571307  0.035741902            1 
  551000     1.188241   -6.9986528    228.78347  0.034601251  0.035728305            1 
  552000      1.14872   -7.0363121     228.9759  0.034567618  0.035714382            1 
  553000    1.1915658     -7.09664    229.30369  0.034554504  0.035700113            2 
  554000    1.1253406   -7.0342026    230.23635  0.034632424  0.035686056            1 
  555000    1.1861145   -7.0147966    230.68871  0.034637944  0.035672713            2 
  556000    1.1617999   -7.0322855    231.52209  0.034700553  0.035659418            1 
  557000    1.1620306   -7.0412467    231.41523  0.034622266  0.035645765            2 
  558000    1.1908679   -7.0487101    231.56002  0.034581843  0.035632102            3 
  559000    1.1293598   -7.0499887    231.23834  0.034472025   0.03561778            1 
  560000    1.1831393   -7.0106799     231.9882  0.034522053  0.035603718            2 
  561000    1.1506672   -7.0254564    232.61895  0.034554211  0.035589615            2 
  562000    1.1588584   -7.0918917    232.22241  0.034433928  0.035575901            1 
  563000    1.1769609   -7.0601855    232.77047  0.034453889  0.035562052            2 
  564000     1.160095   -7.0507429     233.2464   0.03446312  0.035548032            1 
  565000    1.1760581   -7.0850132    233.61306  0.034456203  0.035534136            3 
  566000    1.1917771   -7.0940859    234.16516  0.034476614  0.035520159            2 
  567000    1.1538268   -7.0623873    234.78621  0.034507085  0.035506588            2 
  568000    1.1581851   -7.0514127    235.19588  0.034506438  0.035493062            3 
  569000    1.1597021     -7.02795    236.28469  0.034605256  0.035479979            3 
  570000    1.1715093   -7.0533313    235.22262  0.034389272  0.035466824            1 
  571000     1.137821   -7.0453537     236.0396  0.034448277  0.035453525            4 
  572000    1.1622413   -7.0321002    235.95298  0.034375434  0.035440319            2 
  573000    1.1638576   -7.0234124    236.43075  0.034384925  0.035426799            3 
  574000    1.1593763   -7.0148288    237.35124  0.034458658  0.035413659            3 
  575000    1.1566102   -7.0503931    238.07408  0.034503489  0.035401048            4 
  576000    1.1740112   -7.0694815     238.3953  0.034490061  0.035388389            2 
  577000    1.1741698   -7.0194561    239.10045  0.034532127  0.035376103            1 
  578000    1.1493414   -7.0438386    238.42386  0.034374835  0.035363674            1 
  579000    1.1744426   -7.0228133    239.54391  0.034476671  0.035350885            2 
  580000    1.1606554   -7.0348016    239.47934  0.034407951  0.035338574            2 
  581000    1.1396576    -6.992295    240.78554  0.034536078   0.03532561            3 
  582000    1.1398748   -7.0663783    239.32559  0.034267697  0.035312111            4 
  583000     1.170502   -7.0523344    240.02781  0.034309292  0.035298627            4 
  584000    1.1782841   -7.0323606    241.46793  0.034456041  0.035285212            1 
  585000    1.1664076   -7.0221943     240.8684  0.034311738  0.035272065            1 
  586000    1.1670112   -7.0865459    240.86571  0.034252803  0.035259263            2 
  587000    1.1778414   -7.0452198    241.83007  0.034331355  0.035246331            2 
  588000    1.1541623   -7.0316668    242.04543  0.034303491  0.035233425            1 
  589000    1.1352276   -7.0737869    242.21802  0.034269669  0.035220793            1 
  590000    1.1892089   -7.0394956    243.23172  0.034354763  0.035208176            2 
  591000    1.1688083   -7.0145139    243.56209  0.034343217  0.035195978            2 
  592000    1.1721074   -7.0800193     244.0979  0.034360628  0.035183993            2 
  593000    1.1540588   -7.0652903    244.63796  0.034378578  0.035171595            1 
  594000    1.1354248   -7.0886374    244.16118  0.034253814  0.035159374            4 
  595000    1.1695832    -7.100221    243.75663  0.034139585   0.03514681            3 
  596000    1.1622105   -7.0689349    245.51531  0.034328204  0.035134088            2 
  597000    1.1843729   -7.0488066    245.62723  0.034286325  0.035121647            3 
  598000    1.1405903   -7.0218649    246.40636  0.034337563  0.035109765            2 
  599000     1.175427   -7.0357307    246.31226  0.034267148  0.035097855            1 
  600000    1.1990499   -7.0459445    246.14982  0.034187474  0.035085927            4 
  601000    1.1311307   -7.0308355    247.51455  0.034319821  0.035073879            1 
  602000    1.1709652   -7.0217782    248.29783  0.034371239  0.035062133            1 
  603000    1.1253234   -7.0511311    248.23121  0.034305032  0.035050864            1 
  604000    1.1415398   -7.0762081    248.08942  0.034228672  0.035039217            1 
  605000    1.1521174   -7.0713991    248.94717  0.034290244  0.035027205            1 
  606000    1.1203267   -7.0296367    249.57223  0.034319614  0.035015919            1 
  607000    1.1369582   -7.0686042     249.3521  0.034232853   0.03500502            2 
  608000    1.1554669   -7.0590055    250.18415  0.034290591  0.034992994            2 
  609000    1.1403918   -7.0598955    250.37465  0.034260352  0.034981919            2 
  610000    1.1514779    -7.089061    250.15808  0.034174601  0.034970545            2 
  611000    1.1253732   -7.0294236    251.03321  0.034238027  0.034959591            3 
  612000    1.1535851   -7.0612732    251.77824  0.034283529  0.034948522            3 
  613000    1.1273945   -7.0637969    252.23071  0.034289112  0.034937562            2 
  614000    1.1724376   -7.0330677    252.50921  0.034271066  0.034926999            1 
  615000    1.1596873   -7.0421323    252.94898  0.034274929  0.034916609            2 
  616000    1.1596866   -7.0281963    253.40096  0.034280433  0.034906078            2 
  617000    1.1711061   -7.0435184    253.28917  0.034209774  0.034895628            1 
  618000    1.1372733    -7.058256    254.47282  0.034314026  0.034885345            2 
  619000    1.1691227   -7.0231189    254.58914  0.034274252  0.034875316            2 
  620000    1.1348594   -7.0716326    254.54582  0.034213148  0.034865383            3 
  621000    1.1432629   -7.0648546    255.49421  0.034285321  0.034855796            1 
  622000    1.1593814   -7.0880685    254.57823   0.03410748  0.034846216            2 
  623000    1.1504996   -7.0990264     256.1922  0.034268619  0.034836497            2 
  624000    1.1589911   -7.0716404    255.61731  0.034136927   0.03482689            2 
  625000    1.1341382   -7.0707963    256.18224  0.034157632  0.034816907            3 
  626000    1.1204914   -7.0831068    256.51853  0.034147834  0.034806966            3 
  627000    1.1486595   -7.0604351    257.46884  0.034219676  0.034797082            1 
  628000    1.1483004   -7.0769777    257.07518  0.034112948  0.034787128            1 
  629000      1.15011   -7.0316364    259.00154  0.034313929   0.03477742            1 
  630000    1.1594253   -7.0778139    257.92044  0.034116461  0.034767924            1 
  631000    1.1668904   -7.0672596    259.03099  0.034209058  0.034758204            2 
  632000    1.1531451   -7.0687235     258.9792  0.034148101   0.03474857            2 
  633000    1.1560209   -7.0346165    260.61374  0.034309339  0.034739169            2 
  634000    1.1521447   -7.0656565    260.51086  0.034241701  0.034730204            1 
  635000    1.1358731    -7.079044    261.15541  0.034272363  0.034721037            2 
  636000    1.1735064   -7.0872158    261.03958  0.034203299  0.034711557            1 
  637000    1.1176392   -7.0443656    260.78099  0.034115775  0.034701779            4 
  638000    1.1332983   -7.0921653    261.74014  0.034187583  0.034692206            1 
  639000    1.1517023   -7.0711321    262.21053  0.034195426  0.034682786            2 
  640000    1.1424202   -7.0403129    263.40646  0.034297717  0.034673481            2 
  641000     1.141761   -7.0699088    263.10295  0.034204752  0.034664588            4 
  642000    1.1468136   -7.0854683    264.85909  0.034379424  0.034655743            1 
  643000    1.1114042   -7.0939514    263.41687  0.034139044  0.034646614            1 
  644000    1.1395231   -7.0817267    263.74989  0.034129127  0.034637583            1 
  645000    1.1390232   -7.0724239    264.31415  0.034149115  0.034629141            1 
  646000    1.1765248   -7.0637979    265.02615    0.0341881  0.034620147            5 
  647000    1.1373588   -7.0660464    265.58805  0.034207632  0.034611787            2 
  648000    1.1433907   -7.0994704     265.3999  0.034130645  0.034602772            2 
  649000    1.1755627    -7.033951    266.13478  0.034172416  0.034593988            1 
  650000     1.153148   -7.0754032    266.82609  0.034208474  0.034585222            3 
  651000    1.1421135   -7.0605913    266.70819  0.034140833  0.034577165            1 
  652000    1.1598193   -7.0466041    267.86804  0.034236713   0.03456859            1 
  653000    1.1637031   -7.0458638    267.46694  0.034133096  0.034559791            1 
  654000    1.1484894    -7.086278     267.5036  0.034085576  0.034550753            2 
  655000    1.1590548   -7.0530409    267.72942  0.034062267  0.034541686            1 
  656000    1.1372898   -7.0449706    269.13186  0.034188498  0.034532736            3 
  657000    1.1296027   -7.0641404    268.51858  0.034058673  0.034523263            1 
  658000    1.1288384   -7.1042378    268.07605  0.033950868  0.034513612            2 
  659000    1.1440395   -7.0812204    268.61256  0.033967192  0.034503446            3 
  660000    1.1406003   -7.0846164    268.91778  0.033954266  0.034493663            1 
  661000    1.1178172   -7.0756325    269.22036  0.033941044  0.034484007            3 
  662000    1.1455442   -7.0863159     269.7524  0.033956747  0.034474194            1 
  663000    1.1555306   -7.0840158    269.62201  0.033889142  0.034464649            1 
  664000    1.1301766   -7.0623202    270.77295  0.033982548  0.034454754            1 
  665000    1.1446586   -7.0724045    271.24868  0.033991063  0.034445104            1 
  666000    1.1611622   -7.1047639    270.78243  0.033881685  0.034435589            2 
  667000    1.1463761   -7.0622671    272.59793  0.034057712  0.034426666            2 
  668000    1.1486722   -7.0846592    272.19074   0.03395593  0.034417423            1 
  669000    1.1477332   -7.0765681    272.96329  0.034001406  0.034408139            1 
  670000    1.1604307   -7.0782124    272.49697  0.033892658  0.034399127            1 
  671000    1.1312708   -7.1201692     273.3719  0.033950807  0.034389681            3 
  672000    1.1674194   -7.0804908    273.55372  0.033922832  0.034380165            3 
  673000    1.1238667   -7.0245749     274.2059  0.033953182  0.034370978            1 
  674000    1.1298899   -7.0770432    274.77742  0.033973469  0.034362033            3 
  675000    1.1564091   -7.0276187    274.34044   0.03386919  0.034352573            4 
  676000    1.1389078   -7.0884369    275.03384  0.033904566  0.034343115            1 
  677000    1.1473103   -7.0814068     274.5783  0.033798412  0.034333794            2 
  678000    1.1599772   -7.0824832     275.1963  0.033824521  0.034323856            2 
  679000    1.1615002   -7.0282049     275.0866  0.033761242  0.034314016            1 
  680000     1.149436   -7.1049013    275.11411  0.033714965  0.034304277            1 
  681000    1.1414044   -7.0716948    276.80273  0.033872091  0.034294208            2 
  682000    1.1273811   -7.0819957     275.9177  0.033714284  0.034284473            1 
  683000    1.1610203   -7.0771686    277.50749  0.033858893   0.03427417            1 
  684000    1.1312643   -7.1189601    276.20959  0.033651266  0.034264019            2 
  685000    1.1267961   -7.0619012    276.65256  0.033656029  0.034253765            1 
  686000     1.139677   -7.0844468    277.85838  0.033753447  0.034243726            1 
  687000    1.1501047   -7.1056282    277.49073  0.033659719  0.034233558            1 
  688000    1.1299976   -7.1145653     277.1452  0.033568943  0.034223369            1 
  689000    1.1473669   -7.0697207    279.20669  0.033769556  0.034213049            1 
  690000    1.1715318   -7.0809762    278.84384  0.033676792  0.034202701            3 
  691000     1.127989   -7.1010715    279.74958  0.033737287  0.034192679            1 
  692000    1.1320752   -7.0714551     280.8412   0.03381999  0.034183057            1 
  693000    1.1166786    -7.053007    281.19115  0.033813269  0.034174019            1 
  694000    1.1131118   -7.0891847    280.99126  0.033740545  0.034165085            2 
  695000      1.12126   -7.0755665    282.39185  0.033859934  0.034156012            3 
  696000    1.1327746   -7.0445719    282.60736  0.033837088   0.03414756            1 
  697000     1.157266   -7.1163326    282.33838  0.033756382  0.034138748            1 
  698000     1.136794   -7.1405349    282.89798  0.033774831  0.034129926            3 
  699000    1.1433782   -7.1500684    282.58688  0.033689422  0.034121532            1 
  700000    1.1297954    -7.108056    283.70836  0.033774805  0.034113238            1 
  701000    1.1453713   -7.0947685    284.94067  0.033873119  0.034105058            2 
  702000    1.1446889   -7.0956096    284.18061  0.033734641   0.03409721            1 
  703000     1.166583   -7.0334696    285.28892  0.033818032  0.034089474            2 
  704000    1.1165236   -7.0850751    286.23496   0.03388198  0.034081815            4 
  705000    1.1646551    -7.134203    286.27376  0.033838506   0.03407387            4 
  706000    1.1187046    -7.104751    285.16597  0.033659817  0.034065978            2 
  707000    1.1197713   -7.0899374    286.78224  0.033802715  0.034057388            1 
  708000    1.1553741   -7.0987733    286.65379  0.033739853  0.034049058            3 
  709000    1.1540893   -7.0958029    286.13245  0.033630989  0.034040966            1 
  710000     1.131099   -7.0812913    287.00925  0.033686531  0.034032769            1 
  711000    1.1332613   -7.1386746    287.21911  0.033663749  0.034024065            3 
  712000    1.1435737   -7.0892334    287.29568  0.033625431  0.034015025            3 
  713000     1.141771   -7.1144664    287.24872  0.033572782  0.034006532            2 
  714000    1.1147116   -7.0927643    288.12289  0.033627788  0.033998111            2 
  715000    1.1503085   -7.0914281    287.80969  0.033544252  0.033989659            2 
  716000    1.1365186   -7.0842455    289.38373  0.033680602  0.033981279            2 
  717000    1.1299313   -7.0896718    289.33253  0.033627676  0.033972922            2 
  718000    1.1304934   -7.1018959    289.43049  0.033592211   0.03396434            2 
  719000    1.1022851    -7.093308    290.12754   0.03362628  0.033955839            1 
  720000    1.1467894   -7.0801275     291.3278  0.033718496  0.033947616            1 
  721000    1.1346567   -7.0853045    291.48769  0.033690209  0.033940034            2 
  722000     1.121742   -7.0902618    292.90252  0.033806846  0.033932421            4 
  723000    1.1420957   -7.0896802    291.58074  0.033607739  0.033924774            2 
  724000    1.1338786   -7.1078733    292.61516  0.033680382  0.033916439            2 
  725000    1.1523181   -7.1123531    292.36402   0.03360506  0.033908519            2 
  726000    1.1300546   -7.0806154    293.08645  0.033641695  0.033900667            3 
  727000    1.1231848   -7.0780657    293.66145  0.033661331  0.033892961            2 
  728000    1.1315687    -7.137569    292.80248  0.033516767  0.033885215            2 
  729000     1.117479   -7.0981352    293.30444  0.033528171  0.033877077            1 
  730000    1.1052583   -7.1038605    293.68595  0.033525794   0.03386891            2 
  731000     1.118817   -7.0729237    293.95923  0.033511084  0.033860734            1 
  732000    1.1233278   -7.0628948    295.40518  0.033629915  0.033853031            1 
  733000    1.1110356   -7.0813986    295.79751  0.033628639  0.033845177            2 
  734000    1.1564631   -7.0848446    295.56685  0.033556636  0.033837219            1 
  735000    1.1253815   -7.1216576    295.87851  0.033546317   0.03382904            1 
  736000    1.1433128   -7.1167778    296.09277  0.033524996  0.033820635            1 
  737000    1.1221221   -7.0826769    296.91272   0.03357222  0.033812091            3 
  738000    1.1332375    -7.164549     296.3425  0.033462342  0.033803694            2 
  739000    1.1414731   -7.1044832    297.53825    0.0335519  0.033795998            2 
  740000    1.1534155    -7.092186    296.93189  0.033438276  0.033788053            1 
  741000    1.1548517   -7.1044221    297.28948  0.033433365   0.03378016            4 
  742000    1.1334716   -7.1399867    298.23093   0.03349404  0.033772355            2 
  743000    1.1459541   -7.0941089    298.91859  0.033526087  0.033765029            3 
  744000    1.1455421   -7.1004489    299.03608  0.033494185  0.033757427            3 
  745000    1.1361724   -7.1190289    299.30439  0.033479238  0.033749666            2 
  746000    1.1173664   -7.1165536    300.00914  0.033513085  0.033741869            2 
  747000    1.1301847   -7.1363214    300.32677  0.033503656  0.033734227            1 
  748000    1.1406258   -7.1115479    300.67605  0.033497777  0.033726442            1 
  749000     1.113725   -7.0694282    301.28967  0.033521325  0.033718977            2 
  750000    1.1394662    -7.084052    301.82506  0.033536118  0.033711348            4 
  751000    1.1262168   -7.1131364    301.79112  0.033487696  0.033703612            2 
  752000    1.1348497   -7.1199686    300.84493  0.033338312  0.033695977            2 
  753000     1.126671   -7.1206318    301.93219  0.033414364  0.033688425            2 
  754000    1.1218676   -7.0680709      303.095  0.033498563  0.033681034            1 
  755000    1.1489586   -7.0951135    302.67842  0.033408214  0.033673111            1 
  756000    1.1599599   -7.1096726    303.41015  0.033444681  0.033665003            2 
  757000    1.1195349    -7.097401    303.95817  0.033460829  0.033657074            3 
  758000    1.1506526   -7.1097326    303.81839  0.033401318  0.033649181            4 
  759000    1.1342491   -7.0964631    304.53563  0.033436059   0.03364164            2 
  760000    1.1550749   -7.0832134    305.57955   0.03350653  0.033634289            2 
  761000    1.1189733   -7.0857665    305.51894  0.033455863  0.033627215            1 
  762000    1.1173467   -7.1133209    304.80668  0.033334064  0.033619866            1 
  763000    1.1143382   -7.1227298    306.65547  0.033492297   0.03361261            1 
  764000    1.1078021     -7.13011    307.16851  0.033504418   0.03360564            2 
  765000    1.1358575    -7.110656    307.32096  0.033477229  0.033598627            2 
  766000    1.1638446   -7.1402409    308.00959  0.033508441  0.033591878            1 
  767000    1.1295709   -7.1067461    307.46349   0.03340542  0.033584982            2 
  768000    1.1308275   -7.0806579    308.60216  0.033485477    0.0335783            1 
  769000    1.1504823   -7.0906512     307.4338  0.033315323  0.033571072            1 
  770000    1.1185121   -7.1118125    307.69966  0.033300829     0.033564            2 
  771000    1.1442214   -7.1715533    309.12117  0.033411281  0.033556465            3 
  772000    1.1313873   -7.1153717    308.94603  0.033349096   0.03354918            1 
  773000    1.1202011   -7.1670103    309.78875  0.033396803  0.033541909            2 
  774000    1.1413075   -7.1532338    308.72504   0.03323913  0.033534298            2 
  775000    1.1285163   -7.1151534    309.96812  0.033329905  0.033526563            2 
  776000    1.1324925   -7.1468096    309.80697  0.033269649  0.033519255            1 
  777000    1.1171226     -7.12417    310.74429  0.033327358  0.033511892            1 
  778000    1.1400153   -7.1124961    310.81303  0.033291884  0.033504632            1 
  779000    1.1054696   -7.1400668     310.3532  0.033199957  0.033497163            2 
  780000    1.1422149   -7.0930363    312.42186  0.033378404  0.033490001            2 
  781000    1.1002818   -7.1004268    312.61442  0.033356212  0.033482897            2 
  782000    1.1297331   -7.1437924    312.18492  0.033267788  0.033475762            3 
  783000    1.1357842   -7.1344972     313.0711  0.033319615  0.033468165            2 
  784000    1.1448903   -7.1517457    313.18311  0.033289021  0.033460911            2 
  785000    1.1016933    -7.139053    313.71515  0.033303095  0.033453902            2 
  786000    1.1337133   -7.1501137    312.68919   0.03315195  0.033446834            1 
  787000    1.1422465   -7.1171954    314.60625  0.033312818  0.033439728            2 
  788000    1.1221718    -7.102549    314.87211  0.033298657  0.033432979            2 
  789000     1.122349   -7.0924003    315.42687  0.033315048  0.033426099            5 
  790000    1.1412642    -7.144198     314.7896  0.033205654  0.033419136            1 
  791000    1.1331445   -7.1485383    315.07749  0.033194005  0.033411951            2 
  792000    1.1042403   -7.1144752    316.20393  0.033270616  0.033404826            4 
  793000    1.1461529   -7.1087622    315.92046  0.033198872  0.033397773            1 
  794000    1.1126322   -7.1188653    316.86883  0.033256595  0.033390455            2 
  795000    1.0935179   -7.1407603    316.55088  0.033181434  0.033383197            2 
  796000    1.0933858   -7.0921119    317.70437  0.033260508  0.033376288            4 
  797000    1.1240662   -7.1211709    318.58251  0.033310593   0.03336956            4 
  798000    1.1131985    -7.115984    317.72197  0.033178986  0.033362814            1 
  799000    1.1297164    -7.135889    318.96621  0.033267231  0.033355909            1 
  800000    1.1354319   -7.1326319    318.19181   0.03314498  0.033348996            1 
  801000    1.1709969   -7.1399468    319.68891  0.033259353  0.033342119            3 
  802000    1.1164185   -7.0833343    320.36332  0.033287959  0.033335394            2 
  803000    1.1527153   -7.1065506    320.68025  0.033279395  0.033328959            2 
  804000    1.1132831    -7.092354    320.87056  0.033257728  0.033322402            2 
  805000    1.1127948   -7.1220839    320.89698  0.033219149  0.033315902            2 
  806000    1.1015295   -7.1443083    322.68825  0.033363136  0.033309531            2 
  807000    1.1452792   -7.1503079    323.09105  0.033363388   0.03330313            3 
  808000    1.1119288   -7.1288433    322.64503  0.033276096  0.033296917            3 
[...]
 4800000   0.48560224   -8.5978876    682.63466  0.011851296  0.010225382            2 
 4801000    0.4778295   -8.5958424    682.40636  0.011844865  0.010222025            3 
 4802000   0.47057874   -8.5910558    683.49625  0.011861312   0.01021867            2 
 4803000   0.47555584   -8.6093002    682.43524  0.011840434  0.010215313            3 
 4804000   0.48528846   -8.5916485    682.78599  0.011844053  0.010211954            2 
 4805000    0.4773663   -8.6053007    683.59724  0.011855658    0.0102086            4 
 4806000   0.48468006   -8.6178736    681.84351  0.011822783  0.010205247            7 
 4807000   0.48235271   -8.5900928    682.58859   0.01183324  0.010201894            4 
 4808000   0.47486139   -8.5868122    682.31885  0.011826103  0.010198543            4 
 4809000     0.478777   -8.6142796    682.06925  0.011819319  0.010195191            5 
 4810000   0.48544973   -8.6060121    682.42022  0.011822942  0.010191839            2 
 4811000   0.48677658   -8.5965849    682.27978  0.011818052   0.01018849            2 
 4812000   0.48881843   -8.6071017    683.23205  0.011832087  0.010185143            1 
 4813000    0.4753439   -8.5962838    682.58269  0.011818386  0.010181796            3 
 4814000   0.48415048   -8.6074991    681.95787  0.011805115  0.010178448            2 
 4815000   0.48181341   -8.6076234    682.19037  0.011806687  0.010175104            1 
 4816000   0.47828012   -8.6040325    683.06772  0.011819417  0.010171763            6 
 4817000   0.47955661   -8.6080372    682.54429  0.011807908  0.010168423            2 
 4818000   0.49168429   -8.6106011    681.99314  0.011795924  0.010165083            3 
 4819000   0.47519139   -8.6025208    683.16016  0.011813657  0.010161749            1 
 4820000   0.48021676    -8.602444    682.55233  0.011800697  0.010158413            3 
 4821000   0.48590207    -8.591869    682.54164  0.011798065  0.010155079            2 
 4822000   0.47785611   -8.6165342    683.55656  0.011813158  0.010151747            5 
 4823000   0.47803736    -8.609968    682.21076  0.011787455  0.010148411            1 
 4824000   0.47805429   -8.6164753    682.21321  0.011785054   0.01014508            5 
 4825000   0.47898389   -8.5955043    681.95461  0.011778145  0.010141747            3 
 4826000   0.47908132   -8.6082135    682.22198  0.011780322  0.010138418            2 
 4827000   0.47360908   -8.6045918    682.19975  0.011777497  0.010135092            2 
 4828000   0.48473758   -8.6081544    681.73199  0.011766984  0.010131768            3 
 4829000   0.48791023   -8.6108855    683.34213  0.011792333  0.010128445            1 
 4830000   0.48435227   -8.6031529    682.69546  0.011778735  0.010125122            4 
 4831000   0.47650946   -8.6290932    682.96724  0.011780985  0.010121801            2 
 4832000   0.49041403   -8.6110795    682.35896  0.011768056   0.01011848            2 
 4833000   0.46846756   -8.6151807    681.99776  0.011759393  0.010115161            3 
 4834000   0.47599628   -8.6136387    682.94112  0.011773223  0.010111841            2 
 4835000   0.47893758   -8.6219865    683.39301  0.011778576  0.010108524            3 
 4836000   0.48330954   -8.6112855    683.18707  0.011772592  0.010105209            3 
 4837000   0.47920809   -8.5973447    682.33087  0.011755407  0.010101896            4 
 4838000   0.48770581   -8.6036071    681.37627  0.011736535  0.010098584            2 
 4839000   0.48387265    -8.621737     682.2017  0.011748324   0.01009527            3 
 4840000   0.47659382   -8.6046726    683.25822  0.011764088  0.010091961            2 
 4841000   0.47254453   -8.6120902    682.15684  0.011742698  0.010088653            2 
 4842000   0.46803144   -8.6090168    682.55033  0.011747046  0.010085347            4 
 4843000   0.47674752   -8.5970728    682.74705  0.011748005  0.010082044            2 
 4844000   0.47679369   -8.6155606    682.05757  0.011733718  0.010078739            3 
 4845000   0.47871769   -8.6092499    682.79643  0.011744005  0.010075438            1 
 4846000   0.47862651   -8.6199247    682.31194   0.01173325  0.010072134            2 
 4847000   0.47830698   -8.6093268    683.02386  0.011743069  0.010068834            2 
 4848000     0.481519   -8.6025562    682.08245  0.011724465  0.010065534            2 
 4849000   0.47226925   -8.6015431    681.31688   0.01170889  0.010062236            1 
 4850000   0.46842016   -8.6272972    681.78755  0.011714563  0.010058937            3 
 4851000   0.48447044    -8.616722    682.25513   0.01172018  0.010055639            1 
 4852000   0.47306173   -8.6021808    682.18206   0.01171651  0.010052343            4 
 4853000   0.48100744   -8.6163641    682.99922  0.011728127   0.01004905            4 
 4854000   0.48855295   -8.6256551    681.09566  0.011693031  0.010045757            3 
 4855000    0.4730856   -8.6059129    682.14597   0.01170865  0.010042468            4 
 4856000   0.46947001   -8.6318699    681.79262  0.011700175  0.010039177            1 
 4857000   0.47556123   -8.6108988    682.17391  0.011704308  0.010035891            1 
 4858000   0.47782892   -8.6075123    682.53251  0.011708051  0.010032604            2 
 4859000   0.47346708   -8.6076438    682.98367  0.011713378  0.010029318            3 
 4860000   0.47733941   -8.6117712    681.30273  0.011682146  0.010026032            3 
 4861000   0.46902312   -8.6175414    681.83326  0.011688837  0.010022748            1 
 4862000   0.47212863   -8.6250851    682.24693  0.011693523  0.010019464            4 
 4863000   0.45732526   -8.6102925    682.31636  0.011692309  0.010016185            3 
 4864000   0.48072975   -8.6118907    681.88282  0.011682477  0.010012906            2 
 4865000   0.47849289   -8.6116742    682.04352  0.011682828   0.01000963            1 
 4866000   0.47439143   -8.6140875    681.30519  0.011667783  0.010006352            3 
 4867000   0.47878258   -8.6192253    682.05006   0.01167814  0.010003077            1 
 4868000   0.46670855   -8.6242073    681.80487  0.011671543  0.009999803            1 
 4869000   0.46214871   -8.6252765    681.39733  0.011662171  0.009996526            4 
 4870000   0.47192414   -8.6291917    682.16002  0.011672827 0.0099932543            5 
 4871000   0.46952069   -8.6142284    682.12034  0.011669752 0.0099899844            1 
 4872000   0.47402215   -8.6321921    681.90138  0.011663611 0.0099867165            2 
 4873000   0.47641818    -8.616984    682.27049   0.01166753 0.0099834482            1 
 4874000   0.47516845     -8.63346    682.28771  0.011665431 0.0099801814            3 
 4875000   0.47065681   -8.6281178    681.25823   0.01164544 0.0099769148            3 
 4876000   0.47077049   -8.6299592       682.11  0.011657609 0.0099736494            2 
 4877000   0.47010565    -8.621137    683.29313  0.011675435 0.0099703842            2 
 4878000   0.46184165   -8.6299407    681.22088   0.01163764 0.0099671229            1 
 4879000   0.47195621   -8.6206956    682.79468  0.011662135 0.0099638634            2 
 4880000   0.46466902   -8.6174501    681.58278   0.01163905 0.0099606034            2 
 4881000   0.47210607   -8.6212118    682.47588  0.011651913  0.009957351            2 
 4882000    0.4748201   -8.6272146    681.55955  0.011633886 0.0099540953            2 
 4883000   0.46477454   -8.6316809    681.50959   0.01163065 0.0099508375            1 
 4884000    0.4569489   -8.6244361    683.13858  0.011656064 0.0099475858            2 
 4885000   0.48282792   -8.6281985    681.98221  0.011633951 0.0099443333            2 
 4886000   0.47127395   -8.6210291    682.21934  0.011635614 0.0099410818            3 
 4887000    0.4692214   -8.6330952    681.82476  0.011626505 0.0099378317            1 
 4888000   0.47050969   -8.6359778    682.32843  0.011632713 0.0099345851            1 
 4889000   0.47899288   -8.6350752    682.47001  0.011632747  0.009931339            3 
 4890000   0.46343218   -8.6227463    681.76581  0.011618368 0.0099280942            3 
 4891000   0.46974295   -8.6194939    681.43346   0.01161033 0.0099248506            3 
 4892000   0.46034411   -8.6187732    681.24793  0.011604796 0.0099216059            1 
 4893000   0.47680327   -8.6255353    681.07859   0.01159954 0.0099183666            2 
 4894000   0.47315515   -8.6149095    681.40916  0.011602799 0.0099151256            2 
 4895000   0.46570066    -8.628457    681.99885  0.011610467 0.0099118874            2 
 4896000   0.46432873   -8.6318902    681.62032  0.011601653 0.0099086482            3 
 4897000   0.46581798   -8.6251426    681.99668  0.011605689 0.0099054082            1 
 4898000   0.46832323   -8.6339833    681.57718  0.011596182 0.0099021717            3 
 4899000   0.47535596   -8.6393512    681.96265  0.011600372 0.0098989387            2 
 4900000   0.46758573   -8.6287636    681.92944   0.01159744 0.0098957072            2 
 4901000   0.47206311   -8.6358594    680.86222  0.011576927 0.0098924777            2 
 4902000    0.4640709   -8.6133851    681.46896   0.01158488 0.0098892458            2 
 4903000   0.46346526   -8.6319057    680.54089  0.011566743 0.0098860149            3 
 4904000   0.46856195    -8.651534    681.00805  0.011572323 0.0098827866            3 
 4905000   0.46767753   -8.6328301    681.82065  0.011583769 0.0098795609            4 
 4906000    0.4735298   -8.6311223    682.33996  0.011590229 0.0098763354            2 
 4907000   0.46625443   -8.6340332    681.52613  0.011574046 0.0098731101            3 
 4908000   0.45458128   -8.6368201    681.28184   0.01156754 0.0098698851            1 
 4909000   0.48140564    -8.622369    681.97484  0.011576948 0.0098666644            1 
 4910000   0.46216338   -8.6337111    681.48151  0.011566217 0.0098634424            1 
 4911000   0.46873048   -8.6455998    680.72754  0.011551068 0.0098602216            3 
 4912000   0.46167544   -8.6356896    681.79022  0.011566745 0.0098570041            1 
 4913000   0.45387992   -8.6404094    681.07429  0.011552247  0.009853785            2 
 4914000   0.46292973   -8.6440471    681.54305  0.011557846 0.0098505646            2 
 4915000   0.45557942   -8.6493167    680.53196  0.011538351 0.0098473471            2 
 4916000   0.47034767   -8.6106182    681.24905   0.01154816 0.0098441316            2 
 4917000   0.46943823   -8.6331963    681.43221  0.011548916 0.0098409171            2 
 4918000   0.46092169    -8.622739    681.36626   0.01154545 0.0098377068            2 
 4919000   0.46860697   -8.6331262    681.07609  0.011538187 0.0098344992            4 
 4920000   0.46830869    -8.647009    681.46574  0.011542441 0.0098312928            3 
 4921000    0.4635513    -8.647501    680.79568  0.011528749 0.0098280878            9 
 4922000   0.46591045   -8.6337529    681.72381  0.011542121 0.0098248849            4 
 4923000   0.48013267   -8.6351182    680.91218  0.011526037 0.0098216783            2 
 4924000   0.45387345   -8.6355323      680.792  0.011521663 0.0098184761            3 
 4925000   0.45980621   -8.6321926    682.06083  0.011540792 0.0098152748            2 
 4926000   0.46755255     -8.63559     681.8334  0.011534602 0.0098120744            4 
 4927000   0.45740522      -8.6336    681.38899  0.011524744 0.0098088751            2 
 4928000   0.46328373   -8.6346148    681.14499   0.01151828  0.009805678            1 
 4929000   0.45988148    -8.636694    681.47444  0.011521513 0.0098024827            1 
 4930000   0.46707543   -8.6271109    681.07536   0.01151243 0.0097992869            2 
 4931000    0.4627848   -8.6523878    681.57806  0.011518591 0.0097960937            2 
 4932000   0.46537567    -8.621086    680.50816  0.011498178  0.009792903            2 
 4933000   0.47158053    -8.649663    681.56412  0.011513685 0.0097897135            1 
 4934000   0.46004531   -8.6497748    680.94199  0.011500844 0.0097865234            2 
 4935000    0.4618985   -8.6548181     682.6783  0.011527833 0.0097833353            2 
 4936000   0.46495028   -8.6391392    681.00994  0.011497331 0.0097801459            2 
 4937000    0.4577069   -8.6437459    681.20008  0.011498212 0.0097769576            2 
 4938000   0.46765675   -8.6361124     681.2436  0.011496618 0.0097737734            2 
 4939000   0.46076542   -8.6319886    680.19488  0.011476596 0.0097705899            3 
 4940000   0.46230064   -8.6450185    681.39894  0.011494584 0.0097674077            1 
 4941000   0.46629903   -8.6502586    681.82204  0.011499393 0.0097642273            3 
 4942000   0.46706436   -8.6620113    681.47766   0.01149126 0.0097610497            1 
 4943000   0.46349399   -8.6332586    680.53582  0.011473057 0.0097578719            2 
 4944000    0.4655752   -8.6419546    681.65002  0.011489516 0.0097546927            1 
 4945000   0.46023912   -8.6374662    681.53191  0.011485202 0.0097515153            1 
 4946000   0.46638501   -8.6398324    681.49128  0.011482196 0.0097483426            2 
 4947000   0.46301468    -8.647403    680.64314  0.011465588 0.0097451688            3 
 4948000    0.4547048   -8.6385586    681.68302  0.011480784 0.0097419973            2 
 4949000    0.4611369   -8.6480488    681.63648   0.01147768 0.0097388284            1 
 4950000   0.46085952   -8.6385299    681.16545  0.011467432 0.0097356618            3 
 4951000   0.45895316   -8.6323196    681.49932  0.011470735 0.0097324962            4 
 4952000   0.46619361   -8.6401323    680.84898  0.011457475 0.0097293293            2 
 4953000   0.45440168   -8.6550962    681.13204  0.011459924 0.0097261627            1 
 4954000   0.45904627   -8.6533316    681.94635  0.011471309 0.0097230001            2 
 4955000   0.47135649   -8.6297576     681.9427  0.011468932 0.0097198391            3 
 4956000   0.46026055   -8.6646899    681.05864  0.011451753 0.0097166778            2 
 4957000   0.45697436   -8.6454003    681.33595  0.011454104 0.0097135184            3 
 4958000   0.45726296   -8.6407872    681.29694  0.011451139 0.0097103593            2 
 4959000   0.46685477   -8.6344842    681.60857  0.011454066 0.0097071997            2 
 4960000   0.46390852   -8.6599111    681.66873  0.011452768 0.0097040424            5 
 4961000   0.45080747   -8.6392209    681.06919  0.011440388 0.0097008875            4 
 4962000   0.45876285   -8.6351791    681.25018  0.011441122 0.0096977325            3 
 4963000   0.45615064   -8.6435407    681.15792  0.011437268 0.0096945809            1 
 4964000   0.46385492   -8.6460022    681.02875  0.011432795 0.0096914288            2 
 4965000   0.46317605   -8.6590173    681.25729  0.011434328 0.0096882785            2 
 4966000   0.45308325    -8.645666    680.99583  0.011427638 0.0096851301            1 
 4967000   0.46876585   -8.6385304    681.61293  0.011435691 0.0096819843            3 
 4968000   0.45472225   -8.6454694    680.50224  0.011414758 0.0096788394            1 
 4969000   0.44858295   -8.6429001    681.39432  0.011427422 0.0096756952            2 
 4970000   0.46016036   -8.6413977    682.02703  0.011435732 0.0096725533            2 
 4971000   0.46907242    -8.646836    680.97775  0.011415841 0.0096694112            1 
 4972000     0.445907    -8.641609    680.81707  0.011410852 0.0096662683            2 
 4973000   0.45134093   -8.6368848    681.71827  0.011423659 0.0096631312            1 
 4974000   0.45110956   -8.6500037    681.14953  0.011411834 0.0096599903            2 
 4975000   0.45486638   -8.6514104    680.79455  0.011403594 0.0096568531            1 
 4976000   0.45238918   -8.6253053    680.76481  0.011400804 0.0096537158            7 
 4977000   0.45110185   -8.6508404    680.73318  0.011397984  0.009650582            2 
 4978000   0.45410731     -8.66777    681.45909  0.011407846 0.0096474478            2 
 4979000   0.45087695   -8.6499663    681.14938  0.011400371 0.0096443134            2 
 4980000   0.45216387   -8.6518151    682.24872  0.011416478 0.0096411815            2 
 4981000   0.44766622   -8.6617243    680.58417  0.011386338 0.0096380501            3 
 4982000   0.45782588   -8.6479907    680.56651  0.011383757 0.0096349225            2 
 4983000   0.45965457   -8.6540664    679.82518  0.011369075  0.009631798            2 
 4984000   0.45748557   -8.6609867    681.09696  0.011388058 0.0096286756            3 
 4985000   0.45935646   -8.6519026    681.21356  0.011387722 0.0096255508            1 
 4986000   0.45849452    -8.669403    681.56285  0.011391276 0.0096224282            7 
 4987000    0.4459385    -8.641635    681.19318  0.011382815 0.0096193049            5 
 4988000   0.44987695    -8.651194    681.34494  0.011383068  0.009616182            2 
 4989000   0.45374026   -8.6478518     680.1024  0.011360032 0.0096130638            2 
 4990000   0.44876785   -8.6469357    681.99263  0.011389322 0.0096099441            1 
 4991000   0.45071277    -8.636667    681.16147  0.011373163  0.009606827            1 
 4992000   0.46023534    -8.646725    680.77978  0.011364513 0.0096037111            5 
 4993000   0.44687303   -8.6521064    681.09494  0.011367497 0.0096005987            3 
 4994000   0.46368014   -8.6625758    681.42659  0.011370755 0.0095974852            1 
 4995000   0.45065376   -8.6534171    681.34067  0.011367045 0.0095943728            4 
 4996000   0.45200809   -8.6573364     681.4091  0.011365911 0.0095912624            2 
 4997000   0.45477396   -8.6630393    680.53587  0.011349074 0.0095881527            2 
 4998000   0.44688961    -8.635472     682.7073  0.011383008 0.0095850468            1 
 4999000   0.44242878    -8.659129    681.20916  0.011355757 0.0095819417            2 
 5000000   0.44528095   -8.6580307    680.41615  0.011340269 0.0095788373            2 
 5001000   0.44985594   -8.6649256     680.0319  0.011331599 0.0095757312            1 
 5002000   0.44656415   -8.6459662    680.99377  0.011345358 0.0095726269            1 
 5003000   0.44197185   -8.6447342    680.75569  0.011339125 0.0095695247            3 
 5004000   0.45713671   -8.6621926    681.41829  0.011347893 0.0095664267            1 
 5005000   0.45888951   -8.6526159    680.61791    0.0113323 0.0095633284            2 
 5006000   0.45320258   -8.6388388    679.96264  0.011319128  0.009560231            4 
 5007000   0.44122071   -8.6492468    680.41901  0.011324463 0.0095571344            2 
 5008000   0.46102154    -8.664216    680.79064  0.011328385 0.0095540399            1 
 5009000   0.45194656   -8.6580263    680.51768  0.011321582 0.0095509439            2 
 5010000   0.45530872   -8.6462223    680.49955  0.011319021 0.0095478526            3 
 5011000   0.44684826   -8.6835983    680.11945  0.011310441 0.0095447604            1 
 5012000   0.43807116   -8.6586819    681.82018  0.011336462 0.0095416721            3 
Loop time of 11947.1 on 48 procs for 5000000 steps with 4000 atoms

Performance: 72318.568 tau/day, 418.510 timesteps/s
99.4% CPU use with 48 MPI tasks x no OpenMP threads

MPI task timing breakdown:
Section |  min time  |  avg time  |  max time  |%varavg| %total
---------------------------------------------------------------
Pair    | 765.87     | 804.76     | 840.83     |  75.6 |  6.74
Neigh   | 78.404     | 81.391     | 83.975     |  16.8 |  0.68
Comm    | 756.22     | 801.95     | 855.47     |  86.9 |  6.71
Output  | 13.555     | 13.56      | 13.64      |   0.3 |  0.11
Modify  | 10112      | 10138      | 10163      |  12.5 | 84.86
Other   |            | 107.7      |            |       |  0.90

Nlocal:        83.3333 ave          89 max          75 min
Histogram: 1 1 2 2 5 12 9 11 2 3
Nghost:        2046.62 ave        2070 max        2021 min
Histogram: 1 1 5 10 7 8 5 3 6 2
Neighs:        13295.9 ave       14542 max       11381 min
Histogram: 2 0 1 4 6 11 5 10 6 3
FullNghs:      26591.3 ave       28880 max       23592 min
Histogram: 1 1 1 3 10 8 17 3 2 2

Total # of neighbors = 1276384
Ave neighs/atom = 319.09600
Neighbor list builds = 267739
Dangerous builds = 0

#clear
#
#next RN
#
#jump SELF
Total wall time: 3:19:10
