
units lj                  # Use reduced LJ style units
atom_style atomic         # Uncharged point particles
atom_modify map hash      # Needed for indexing of clusters etc
                          # Used to be able to find where atoms are in relation to each other.

# Define a lattice with which to populate the simulation cell. With units
# set to 'lj' the second argument to the lattice command is the reduced
# density rho* and the spacings are multiples of that required to acheive
# that density. Also define a simulation cell called 'box' in lattice units
# and fill it with atoms. Here we're creating a box which is ten lattice
# constants in each direction.
lattice fcc 1.0 spacing 1 1 1                 # All equal sizes - gives the right reduced density.
Lattice spacing in x,y,z = 1.5874011 1.5874011 1.5874011

region box block 0 10 0 10 0 10 units lattice # Defines a region, "box", in lattice units
create_box 1 box                              # Creates a simulation box as specified above,
Created orthogonal box = (0.0000000 0.0000000 0.0000000) to (15.874011 15.874011 15.874011)
  4 by 4 by 4 MPI processor grid
                                              # with one type of atom
create_atoms 1 box                            # Creates particles on lattice points
Created 4000 atoms
  using lattice units in orthogonal box = (0.0000000 0.0000000 0.0000000) to (15.874011 15.874011 15.874011)
  create_atoms CPU = 0.002 seconds


# Set the mass of the first (and only) atom type.
mass 1 1.0

# Lennard-Jones interactions between particles, 3.5 sigma cut-off. Apply
# long range tail corrections to energy and pressure and set all coefficients
# to unity since we work in reduced units here. Note that this doesn't shift
# the potential such that it goes to zero at the cutoff. That would require
# pair_modify('shift', 'yes').
pair_style lj/cut  3.5      # non-GPU version
pair_modify tail  yes
pair_coeff 1  1  1.0  1.0   # Intearaction between 1 and 1 set with epsilon = 1 and sigma = 1

write_data data.*
System init for write_data ...
Neighbor list info ...
  update every 1 steps, delay 10 steps, check yes
  max neighbors/atom: 2000, page size: 100000
  master list distance cutoff = 3.8
  ghost atom cutoff = 3.8
  binsize = 1.9, bins = 9 9 9
  1 neighbor lists, perpetual/occasional/extra = 1 0 0
  (1) pair lj/cut, perpetual
      attributes: half, newton on
      pair build: half/bin/atomonly/newton
      stencil: half/bin/3d
      bin: standard

#############################
#   M E L T   S Y S T E M   #
#############################

velocity all create 2.4 5300450 mom yes dist gaussian # Assign velocities
                                                    # Temperature 2.4, random number seed, zero linear momentum
						                                                        # Gaussian distribution

timestep 0.002   # simulation timestep
thermo 100       # output thermodynamic data every 100 steps

# Define a fix  in this case with index 1 applied to all
# particles in the simulation. This fix is for simulations
# in the anisotropic NPT ensemble. Note that we use the MTK
# correction.
fix 1 all npt temp 2.4 2.4 0.1 iso 5.68 5.68 0.5 mtk yes tchain 5 pchain 5 # Use NPT ensemble
                                                                         # Set temperature and pressure and damping
                                                                         # Numbers of thermostats in chain and in barostat
run 1000         # run for 10000 steps
Per MPI rank memory allocation (min/avg/max) = 3.630 | 3.630 | 3.630 Mbytes
Step Temp E_pair E_mol TotEng Press Volume 
       0          2.4   -8.3859253            0   -4.7868253   -2.2405722         4000 
     100    1.2568457    -6.520638            0   -4.6358408    5.4054415    4090.5418 
     200    1.4749962   -6.3123998            0   -4.1004586    5.9706789    4139.2832 
     300    1.6124068   -6.0569481            0   -3.6389426    5.7397492    4264.5301 
     400    1.7168752   -5.7431758            0   -3.1685069    5.9205944    4390.8204 
     500    1.7900089   -5.4300953            0   -2.7457532    5.8244207    4548.9907 
     600    1.8749878   -5.1356604            0   -2.3238818    5.7834378    4705.6354 
     700    1.9882515   -4.8678934            0   -1.8862617    5.9915018     4837.506 
     800    2.1327811   -4.6988753            0   -1.5005035    5.7798366    4974.3967 
     900    2.2952123   -4.5871705            0   -1.1452128    5.7568633    5062.5276 
    1000    2.3419515   -4.4435081            0  -0.93145903    5.7034406     5160.776 
Loop time of 0.212965 on 64 procs for 1000 steps with 4000 atoms

Performance: 811399.931 tau/day, 4695.601 timesteps/s
99.3% CPU use with 64 MPI tasks x no OpenMP threads

MPI task timing breakdown:
Section |  min time  |  avg time  |  max time  |%varavg| %total
---------------------------------------------------------------
Pair    | 0.059394   | 0.062807   | 0.06691    |   0.7 | 29.49
Neigh   | 0.013963   | 0.014721   | 0.015555   |   0.3 |  6.91
Comm    | 0.099704   | 0.10449    | 0.10837    |   0.6 | 49.07
Output  | 0.00026405 | 0.00026786 | 0.00031888 |   0.0 |  0.13
Modify  | 0.026141   | 0.028756   | 0.030729   |   0.5 | 13.50
Other   |            | 0.00192    |            |       |  0.90

Nlocal:        62.5000 ave          69 max          56 min
Histogram: 7 2 3 12 7 7 13 5 2 6
Nghost:        1253.14 ave        1273 max        1234 min
Histogram: 2 7 6 8 11 5 9 8 7 1
Neighs:        5540.11 ave        6253 max        4768 min
Histogram: 2 5 5 12 10 8 5 5 7 5

Total # of neighbors = 354567
Ave neighs/atom = 88.641750
Neighbor list builds = 87
Dangerous builds = 24

# Equilibrate just above the melting temperature to avoid step fn in T

fix 1 all npt temp 1.25 1.25 0.1 iso 5.68 5.68 0.5 mtk yes tchain 5 pchain 5
run 1000
Per MPI rank memory allocation (min/avg/max) = 3.631 | 3.631 | 3.631 Mbytes
Step Temp E_pair E_mol TotEng Press Volume 
    1000    2.3419515   -4.4435081            0  -0.93145903    5.7034406     5160.776 
    1100    1.9505664   -4.6860744            0   -1.7609562    5.6875043    4990.5455 
    1200    1.7145364   -4.9478458            0   -2.3766842    5.6803952    4813.9806 
    1300    1.5789627   -5.2178493            0   -2.8499973     5.626771    4671.2595 
    1400     1.466042   -5.4083802            0    -3.209867    5.7430009    4553.7478 
    1500    1.3483489   -5.5238765            0   -3.5018588    5.7608991    4484.5069 
    1600    1.3065005   -5.6674797            0   -3.7082189    5.6719356    4427.5375 
    1700    1.2613667   -5.7293973            0   -3.8378202     5.676448    4393.2208 
    1800    1.2706154   -5.8058844            0   -3.9004378    5.6537836    4362.5534 
    1900    1.2416506   -5.8085169            0   -3.9465067    5.6540218    4357.9646 
    2000    1.2530204     -5.85012            0   -3.9710592    5.4158949    4363.6997 
Loop time of 0.209117 on 64 procs for 1000 steps with 4000 atoms

Performance: 826330.889 tau/day, 4782.007 timesteps/s
99.9% CPU use with 64 MPI tasks x no OpenMP threads

MPI task timing breakdown:
Section |  min time  |  avg time  |  max time  |%varavg| %total
---------------------------------------------------------------
Pair    | 0.058193   | 0.061903   | 0.065732   |   0.7 | 29.60
Neigh   | 0.012053   | 0.01265    | 0.013248   |   0.3 |  6.05
Comm    | 0.099785   | 0.10432    | 0.10881    |   0.6 | 49.88
Output  | 0.00025406 | 0.00025926 | 0.00031451 |   0.0 |  0.12
Modify  | 0.025502   | 0.027149   | 0.028924   |   0.5 | 12.98
Other   |            | 0.00284    |            |       |  1.36

Nlocal:        62.5000 ave          68 max          53 min
Histogram: 1 1 3 0 5 10 20 8 12 4
Nghost:        1399.92 ave        1420 max        1382 min
Histogram: 6 4 6 9 5 11 12 6 2 3
Neighs:        6535.45 ave        7153 max        5253 min
Histogram: 1 0 2 4 2 9 13 19 7 7

Total # of neighbors = 418269
Ave neighs/atom = 104.56725
Neighbor list builds = 74
Dangerous builds = 4


# Small amount of linear quench

fix 1 all npt temp 1.25 ${temp} 0.1 iso 5.68 5.68 0.5 mtk yes tchain 5 pchain 5
fix 1 all npt temp 1.25 0.49 0.1 iso 5.68 5.68 0.5 mtk yes tchain 5 pchain 5
run 2000
Per MPI rank memory allocation (min/avg/max) = 3.631 | 3.631 | 3.631 Mbytes
Step Temp E_pair E_mol TotEng Press Volume 
    2000    1.2530204     -5.85012            0   -3.9710592    5.4158949    4363.6997 
    2100    1.2156212   -5.8559343            0   -4.0329584    5.4747633    4351.5777 
    2200    1.2089304   -5.8989585            0   -4.0860163    5.5206738    4328.7011 
    2300    1.1798563   -5.9475828            0   -4.1782409     5.607824    4297.6319 
    2400    1.1382345   -5.9863492            0   -4.2794242    5.5831717    4283.8843 
    2500    1.1072158   -6.0443037            0   -4.3838952    5.5726851    4259.0476 
    2600    1.0712082    -6.095993            0   -4.4895825    5.5538384     4237.078 
    2700    1.0434613   -6.1594481            0   -4.5946474    5.6383122    4201.9769 
    2800     1.013236   -6.2360494            0   -4.7165754    5.5676928     4176.737 
    2900   0.96386115    -6.279697            0   -4.8342667    5.6657979    4151.6709 
    3000   0.92727359   -6.3393292            0   -4.9487665    5.6629122    4124.2417 
    3100   0.89272233   -6.3967777            0    -5.058029    5.7155446    4097.0753 
    3200   0.84719745   -6.4619765            0    -5.191498     5.613576    4078.7533 
    3300   0.81889718   -6.5314537            0    -5.303415    5.7127665    4045.4103 
    3400   0.79008732   -6.6042396            0   -5.4194049    5.6794457    4019.1957 
    3500   0.74434112   -6.6447584            0   -5.5285259    5.8510584     3991.856 
    3600   0.70385657   -6.6977964            0   -5.6422755    5.8544059    3970.6519 
    3700   0.66628322   -6.7632591            0   -5.7640841    5.7322428    3953.7231 
    3800   0.62881736   -6.8220282            0   -5.8790379    5.7538652    3931.6035 
    3900   0.58374752   -6.8732994            0    -5.997897    5.6629058    3916.8272 
    4000   0.55729014   -6.9433634            0   -6.1076371    5.6500093    3894.7453 
Loop time of 0.434258 on 64 procs for 2000 steps with 4000 atoms

Performance: 795839.805 tau/day, 4605.554 timesteps/s
100.0% CPU use with 64 MPI tasks x no OpenMP threads

MPI task timing breakdown:
Section |  min time  |  avg time  |  max time  |%varavg| %total
---------------------------------------------------------------
Pair    | 0.13129    | 0.13699    | 0.14406    |   0.8 | 31.55
Neigh   | 0.019461   | 0.020327   | 0.021413   |   0.3 |  4.68
Comm    | 0.2039     | 0.21274    | 0.21883    |   0.7 | 48.99
Output  | 0.00051409 | 0.00052276 | 0.00062191 |   0.0 |  0.12
Modify  | 0.053846   | 0.057069   | 0.061053   |   0.8 | 13.14
Other   |            | 0.006607   |            |       |  1.52

Nlocal:        62.5000 ave          68 max          55 min
Histogram: 2 1 1 11 10 4 21 6 4 4
Nghost:        1512.98 ave        1531 max        1495 min
Histogram: 1 5 4 7 13 14 8 7 4 1
Neighs:        7385.64 ave        8057 max        6325 min
Histogram: 1 2 0 5 11 9 14 12 4 6

Total # of neighbors = 472681
Ave neighs/atom = 118.17025
Neighbor list builds = 111
Dangerous builds = 0

#############################
# F R E E Z E  S Y S T E M  #
#############################

# Define solid atoms. This closely follows ten Wolde  Ruiz-Montero and Frenkel  Faraday Discuss  1996  104  93-110
# Compute components of the per-atom q6 vector
compute q6 all orientorder/atom degrees 1 6 components 6 nnn NULL cutoff 1.3 # compute the Q6 parameter.
                                                                             # Use all neighbours within 1.3 unit cell.

# get number of connections
compute coord_number all coord/atom orientorder q6 0.5

# An atom is solid if it has 8 or more connections (of a possible 14)
variable is_solid atom c_coord_number>=8
group solid dynamic all var is_solid    # Must be dynamic to update
dynamic group solid defined

# do clustering
compute cluster solid cluster/atom 1.3 # Create a cluster where all atoms within are solid and max 1.3 units from another member

# define chunks one chunk per cluster
compute clus_chunks solid chunk/atom c_cluster nchunk every compress yes  # Says which atoms are in which chunk

# count the size of each chunk
compute size_chunks solid property/chunk clus_chunks count


# Find the maximum entry in the vector of chunk sizes
variable max_n equal max(c_size_chunks)


# Thermo style which includes this variable
thermo_style custom step temp pe vol v_max_n

thermo ${N}  # Print the thermo information every 100 steps
thermo 100  

# Reset the npt fix at a lower temperature (below freezing)
fix 1  all npt temp  ${temp} ${temp}  0.1  iso  5.68  5.68  0.5  mtk yes tchain  5  pchain  5
fix 1  all npt temp  0.49 ${temp}  0.1  iso  5.68  5.68  0.5  mtk yes tchain  5  pchain  5
fix 1  all npt temp  0.49 0.49  0.1  iso  5.68  5.68  0.5  mtk yes tchain  5  pchain  5

dump dmp2 all dcd ${N} traj_${rand}.dcd
dump dmp2 all dcd 100 traj_${rand}.dcd
dump dmp2 all dcd 100 traj_462431.dcd


# fix rnuntil all halt ${N} v_max_n >= 3980 error soft message no   # Stop when solidified


run 100000 # 5000000  # Run for this many steps
Neighbor list info ...
  update every 1 steps, delay 10 steps, check yes
  max neighbors/atom: 2000, page size: 100000
  master list distance cutoff = 3.8
  ghost atom cutoff = 3.8
  binsize = 1.9, bins = 9 9 9
  4 neighbor lists, perpetual/occasional/extra = 1 3 0
  (1) pair lj/cut, perpetual
      attributes: half, newton on
      pair build: half/bin/atomonly/newton
      stencil: half/bin/3d
      bin: standard
  (2) compute orientorder/atom, occasional
      attributes: full, newton on
      pair build: full/bin/atomonly
      stencil: full/bin/3d
      bin: standard
  (3) compute coord/atom, occasional
      attributes: full, newton on
      pair build: full/bin/atomonly
      stencil: full/bin/3d
      bin: standard
  (4) compute cluster/atom, occasional
      attributes: full, newton on
      pair build: full/bin/atomonly
      stencil: full/bin/3d
      bin: standard
Per MPI rank memory allocation (min/avg/max) = 9.343 | 9.347 | 9.352 Mbytes
Step Temp PotEng Volume v_max_n 
    4000   0.55729014   -6.9433634    3894.7453           21 
    4100   0.53006424   -6.9807373    3874.3437           38 
    4200   0.50369551   -7.0125873    3861.4273           24 
    4300   0.49102438   -7.0512417    3861.4431           27 
    4400   0.49379302   -7.0614986    3839.6982           58 
    4500   0.48627622   -7.0829417    3856.3879           56 
    4600   0.51162218   -7.0623212    3838.8949           37 
    4700   0.49791188   -7.0918825    3854.7708           68 
    4800   0.49742925   -7.0842484    3836.4506           55 
    4900   0.47708971   -7.0925437    3850.1427           36 
    5000   0.49848911   -7.0920848    3840.6081           37 
    5100   0.49755676   -7.1007205    3834.6501           79 
    5200    0.4841642   -7.1060951    3841.1414           31 
    5300   0.49334733    -7.091915    3839.7617           86 
    5400   0.50082012    -7.106444    3843.1523           60 
    5500   0.48954668   -7.1221423    3833.2985           95 
    5600    0.4882911   -7.1199012    3834.2331           33 
    5700   0.50263469   -7.1024177    3828.8029           85 
    5800   0.49398863   -7.1367463    3836.7548           98 
    5900   0.49852165   -7.1269099    3823.3221          103 
    6000   0.48808444   -7.1433869    3831.0852           37 
    6100   0.48897583   -7.1098543    3829.9471           47 
    6200   0.48534935   -7.1239463    3833.0817           64 
    6300   0.49793986   -7.1324872    3818.3179           59 
    6400   0.48095581   -7.1513696    3834.1335          136 
    6500   0.49022296   -7.1253347    3820.2985           84 
    6600   0.49747964    -7.143625    3832.3266          177 
    6700   0.49722741   -7.1211211    3829.6731          130 
    6800   0.49108463   -7.1330004    3824.9225           88 
    6900   0.48727295   -7.1408145    3825.8326          161 
    7000   0.49294031    -7.139148    3833.3878           88 
    7100    0.4908054   -7.1350141     3819.128          133 
    7200   0.48817631    -7.152521    3835.0418          127 
    7300   0.49019834   -7.1274497     3821.381          143 
    7400   0.47924554   -7.1285778    3822.0705          170 
    7500   0.48626099   -7.1402256    3824.7945          126 
    7600   0.49955657   -7.1494372     3823.996          166 
    7700   0.48604649   -7.1626611    3824.1312          151 
    7800   0.49193622   -7.1674856    3825.8774          111 
    7900    0.4987177   -7.1415556    3818.3562          191 
    8000   0.48917391   -7.1478374     3823.618          124 
    8100   0.47952938   -7.1559753     3821.433          240 
    8200   0.48745454   -7.1510891    3821.4312          156 
    8300   0.49654348   -7.1539725    3822.4816          113 
    8400   0.49492528    -7.165011    3821.1368          263 
    8500   0.48048312   -7.1603073    3821.6805          174 
    8600   0.50448805   -7.1495475    3817.6177          231 
    8700   0.49283044   -7.1444733    3824.6674          363 
    8800   0.49121238   -7.1548753     3819.064          210 
    8900   0.49312593    -7.169852    3819.8833          283 
    9000   0.48674335   -7.1582174    3809.3103          308 
    9100   0.49375456    -7.170019    3829.9153          147 
    9200   0.49560003   -7.1524769    3813.5751          184 
    9300   0.48372043   -7.1665011    3821.1489          182 
    9400   0.49761509      -7.1669    3815.7821          367 
    9500   0.48704221   -7.1744148    3819.0037          345 
    9600   0.48185605   -7.1603012    3817.4763          405 
    9700   0.49963899   -7.1515841    3815.2186          385 
    9800   0.49890601   -7.1848376    3828.1894          388 
    9900   0.48809735   -7.1631944     3809.724          428 
   10000   0.47713536   -7.1916077    3818.3383          412 
   10100   0.48917207   -7.1719795    3806.8773          422 
   10200   0.48807493   -7.1753392    3822.2379          435 
   10300   0.50065946   -7.1681192    3815.6042          450 
   10400   0.48375208   -7.1772155    3816.6907          398 
   10500   0.49115491   -7.1738278    3808.2054          304 
   10600   0.49116568   -7.1617362    3817.6526          457 
   10700   0.47767834   -7.1707221    3817.6561          456 
   10800   0.48643494   -7.1685708    3811.2059          204 
   10900   0.48708096   -7.1650624    3818.6479          418 
   11000    0.4777981   -7.1722039    3817.2312          453 
   11100   0.48398432   -7.1801188    3814.7025          422 
   11200   0.49497838   -7.1650961    3810.3654          443 
   11300    0.4878062   -7.1815309    3811.6907          421 
   11400   0.49412571   -7.1776361    3816.2656          493 
   11500   0.50387147   -7.1646947    3808.3669          529 
   11600   0.48652207   -7.1901521    3823.0225          305 
   11700   0.49535792   -7.1641467    3804.6885          314 
   11800   0.49284404    -7.177698    3823.4093          457 
   11900   0.48247719   -7.1715435     3814.442          353 
   12000   0.49074463   -7.1819066    3816.1708          470 
   12100   0.50057211   -7.1779468    3816.7552          291 
   12200   0.49710027    -7.172603    3808.9006          451 
   12300   0.48378767    -7.192193    3816.7699          306 
   12400   0.49533402   -7.1807604    3815.0206          502 
   12500   0.49674598   -7.1855089    3815.9825          350 
   12600   0.48652452   -7.1886175    3811.7028          345 
   12700   0.49258416   -7.1843579    3807.8909          537 
   12800    0.4949458   -7.1759916    3819.6806          505 
   12900   0.48292578   -7.1761712    3815.1098          505 
   13000    0.4847739   -7.1812282    3808.4087          603 
   13100   0.49257634   -7.1685545    3815.0041          546 
   13200   0.48551496    -7.177872    3812.2052          570 
   13300   0.47659873   -7.1974652    3818.5362          584 
   13400   0.49297627   -7.1862389    3808.9057          598 
   13500   0.49265693    -7.176405    3809.5453          512 
   13600   0.48441932   -7.1880012    3811.1779          512 
   13700   0.50142739   -7.1890511    3805.2405          423 
   13800   0.49693579   -7.1849259    3819.3462          461 
   13900   0.48479659   -7.1805178    3811.4556          405 
   14000    0.5024475   -7.2003568    3813.0048          484 
   14100   0.48762336   -7.1916862    3809.3422          565 
   14200   0.46872419   -7.1800676    3807.4529          538 
   14300   0.49069365   -7.1871383    3813.6566          625 
   14400   0.49302787   -7.1875007    3814.2174          546 
   14500   0.47930221   -7.1866315     3806.073          488 
   14600   0.48817027   -7.1827942    3811.1877          529 
   14700   0.48848874   -7.1701796     3809.864          518 
   14800   0.48586743   -7.1859021    3812.4508          481 
   14900   0.48727089   -7.1824479    3806.7104          485 
   15000    0.5002297   -7.1864894    3814.0257          463 
   15100   0.49196325   -7.1983691    3808.1336          483 
   15200   0.49113546   -7.1858069    3808.3916          510 
   15300   0.49719885   -7.1847688    3803.4913          542 
   15400   0.48219445   -7.1888992     3819.637          635 
   15500   0.49483457   -7.1652622    3812.0145          614 
   15600   0.48717997   -7.1686825    3819.7829          586 
   15700   0.49019043   -7.1905323    3815.9491          579 
   15800   0.48620322   -7.1843475    3806.3452          550 
   15900   0.50129952   -7.2055591    3812.8294          671 
   16000   0.48729256   -7.1971345    3809.5485          626 
   16100   0.49406637   -7.1870824    3813.0112          648 
   16200   0.47997793   -7.1894891     3811.815          600 
   16300   0.49424086   -7.1992971    3807.3655          546 
   16400   0.49641138   -7.1762543    3817.5767          507 
   16500   0.48581978    -7.172432    3809.9792          562 
   16600    0.4934958   -7.1848716    3807.8522          685 
   16700    0.4837708   -7.1949507    3815.9855          643 
   16800   0.49201754   -7.1788152    3810.0517          580 
   16900   0.49325072   -7.1705428    3814.0055          539 
   17000   0.48863593    -7.191132    3806.8915          590 
   17100   0.49260525   -7.1930274    3807.9016          617 
   17200   0.49259009   -7.1893406    3813.6711          628 
   17300   0.50206683   -7.1835626     3806.346          612 
   17400   0.48157043   -7.1869605    3809.9569          631 
   17500   0.48741604    -7.191277    3808.5819          705 
   17600   0.49835708   -7.1872847    3814.9091          703 
   17700   0.48956593   -7.1810257    3801.0758          513 
   17800   0.49161187   -7.2038621    3820.2225          640 
   17900    0.5037448   -7.1730502    3798.3796          672 
   18000   0.48542917   -7.2096568    3811.5691          687 
   18100   0.49133215   -7.1954771    3802.9217          675 
   18200   0.48622405   -7.1895984    3817.6856          641 
   18300    0.4937964   -7.1915598    3806.0794          691 
   18400   0.48463152   -7.2065433    3808.5977          790 
   18500   0.48714059   -7.1953755    3809.1299          744 
   18600   0.49970423   -7.1816322    3810.5327          707 
   18700   0.49069314   -7.1918156    3813.6066          741 
   18800   0.48924474   -7.1992206    3806.8182          796 
   18900   0.48324226    -7.196986    3799.3615          810 
   19000   0.48618541   -7.2058075    3817.8584          788 
   19100   0.49261432   -7.1906425    3801.0673          834 
   19200   0.48467271   -7.2104636    3807.5923          796 
   19300   0.49266448   -7.1968534    3806.9819          725 
   19400   0.48457142   -7.1981691    3811.7423          738 
   19500   0.48026075   -7.1890156    3805.6456          749 
   19600   0.49164118   -7.1888519    3812.2485          702 
   19700   0.49339213   -7.2004988    3807.3237          695 
   19800   0.48830808   -7.2096528     3802.151          640 
   19900   0.49310446   -7.1937688    3805.3786          610 
   20000   0.48909685   -7.2093175    3810.7062          736 
   20100   0.50327166   -7.2022999    3806.0152          783 
   20200   0.49081403   -7.2088151    3814.2747          780 
   20300   0.48337501   -7.1900657    3797.1546          668 
   20400   0.48078447   -7.1903636    3818.3668          668 
   20500   0.49946744   -7.2004839    3815.3368          657 
   20600   0.48893615   -7.1975454    3806.4454          705 
   20700   0.48562215    -7.197838    3805.6605          662 
   20800   0.50912289   -7.1992913    3803.8915          711 
   20900   0.49085067   -7.1989147    3803.8727          729 
   21000    0.4817777   -7.1969664    3809.5702          691 
   21100   0.48752734   -7.1963586    3808.8831          704 
   21200   0.49474884    -7.188389    3812.3339          706 
   21300   0.49395213   -7.1809386    3809.0873          708 
   21400   0.48808701   -7.2130679    3812.1121          733 
   21500    0.4976204   -7.2049749      3804.85          693 
   21600   0.49590422   -7.1785515    3812.5933          717 
   21700   0.49265319   -7.2067885    3810.5227          772 
   21800   0.50184845   -7.2015203    3802.8794          716 
   21900    0.4846371   -7.2146301    3805.9806          756 
   22000    0.4985117   -7.2088458    3806.1281          820 
   22100   0.48701949    -7.198452    3806.4034          754 
   22200   0.49716799   -7.1964503    3813.0277          698 
   22300   0.48474837   -7.1919433    3802.9356          813 
   22400   0.48612946   -7.2083931    3810.0203          784 
   22500   0.48079781   -7.1901913    3808.0795          744 
   22600   0.49864952   -7.1996649    3808.1146          810 
   22700   0.48770255   -7.2033929      3804.68          839 
   22800   0.49908213   -7.2030417    3810.9088          764 
   22900   0.49021329   -7.2059947    3804.0541          822 
   23000   0.48643437   -7.2092131    3808.3589          858 
   23100   0.50316609   -7.1990517    3803.0819          809 
   23200   0.48714437    -7.213117    3806.3948          808 
   23300   0.49638086     -7.20964    3803.3908          760 
   23400   0.49636191   -7.1935576    3803.4425          822 
   23500   0.49684678   -7.1966497    3811.1517          870 
   23600   0.49183232   -7.1931687    3802.0158          808 
   23700   0.50161553   -7.2132347    3805.7573          855 
   23800   0.48477105   -7.1955072    3807.0415          852 
   23900   0.49592421   -7.1941747    3804.5542          824 
   24000    0.4892243    -7.200686    3814.2177          852 
   24100   0.49147697   -7.2110793    3805.3988          845 
   24200   0.47849578   -7.2127167    3799.2693          867 
   24300   0.48864085    -7.199112    3806.9901          877 
   24400   0.50415843   -7.2017852    3802.9904          843 
   24500   0.49157411   -7.2239881    3808.3971          896 
   24600    0.4857182   -7.2058596    3801.7035          925 
   24700   0.48934704   -7.1986839    3810.6812          926 
   24800   0.49331132   -7.2091011    3798.4501          896 
   24900   0.48393876   -7.2211066    3806.9015          872 
   25000   0.48800331   -7.1945228     3808.112          893 
   25100   0.49088432   -7.2118891    3806.0287          992 
   25200   0.48303878   -7.2042535    3803.4381          875 
   25300   0.48462993   -7.2011822    3807.7405          970 
   25400   0.49134091   -7.2046419    3803.0718          923 
   25500   0.49670709   -7.2214937    3808.3572          950 
   25600   0.48142227   -7.2070217    3797.4486          997 
   25700   0.49179614   -7.2173914    3815.0345          995 
   25800   0.49563281   -7.1877529    3803.8634          938 
   25900   0.48827574    -7.211193    3803.2913          898 
   26000   0.49024036   -7.2091983     3801.363          990 
   26100   0.49578303   -7.2042586    3808.4194          976 
   26200   0.49941917   -7.1934531    3804.3308          973 
   26300   0.48800131   -7.2035644    3804.5955          979 
   26400   0.48904048    -7.205706    3807.5847          943 
   26500   0.49559923   -7.1927563    3808.5384          902 
   26600    0.4932292   -7.2081989    3801.0166          969 
   26700   0.48712846   -7.2035636    3805.8454          950 
   26800    0.4878798   -7.2019881     3807.401          943 
   26900   0.49415498   -7.2168795    3806.8491          919 
   27000    0.4960697   -7.1921923     3803.319          975 
   27100   0.47565177   -7.2126504    3814.6611         1021 
   27200   0.49651941   -7.2084553    3800.2932          955 
   27300   0.48941657   -7.2056642    3800.8925          931 
   27400    0.4957929   -7.1977962    3802.0022          990 
   27500   0.49892814   -7.2121049    3801.8593          994 
   27600    0.4864283   -7.2250373    3809.0307         1002 
   27700    0.4893818   -7.2052205    3797.7772         1028 
   27800   0.49126778   -7.2134121    3810.8735         1062 
   27900   0.48663068   -7.2035063    3812.3626         1025 
   28000   0.49548031   -7.2071972    3798.5918          999 
   28100   0.48195857   -7.2253269    3807.0615         1044 
   28200   0.48890855   -7.2023394    3809.3716         1066 
   28300   0.49166304   -7.2091827     3802.099         1079 
   28400   0.48889419   -7.2186624    3805.5637         1028 
   28500   0.50807499   -7.2092154    3798.0283         1004 
   28600   0.48564403   -7.2147755    3812.2457          955 
   28700   0.48642606   -7.2089664    3799.5639          987 
   28800   0.49705034   -7.2059274    3804.3051          952 
   28900   0.49072832   -7.1927613    3799.6826         1074 
   29000   0.48289415   -7.2152537    3811.2742         1045 
   29100   0.49169479   -7.2257947    3803.6611         1101 
   29200   0.48862363    -7.211831    3795.7275         1033 
   29300   0.49609952   -7.2274445    3809.6231         1013 
   29400   0.48228223   -7.2169678    3794.5095         1063 
   29500   0.48339171   -7.2117916    3808.3188         1020 
   29600    0.4921327   -7.1992941    3803.9224         1097 
   29700   0.48621162   -7.2159265    3801.8925         1067 
   29800   0.49693756   -7.2120397    3798.2694         1078 
   29900   0.48373726   -7.2189469    3808.1615         1087 
   30000   0.47812833   -7.2145154    3798.3885         1117 
   30100   0.49428726   -7.2175671    3804.3593         1143 
   30200   0.47758807   -7.2139685    3802.0878         1078 
   30300   0.49742096   -7.2090797    3803.0728         1095 
   30400   0.49039692   -7.2180104    3809.0474         1036 
   30500   0.49049701   -7.2192873    3795.4939         1064 
   30600   0.48897078   -7.2423378    3799.1862         1041 
   30700   0.49109605   -7.2215146    3802.3029         1092 
   30800   0.49171615   -7.2154051    3804.9773         1079 
   30900   0.50391518   -7.2084479    3808.4927         1084 
   31000   0.49380459   -7.2254877    3801.8097         1100 
   31100   0.49022497   -7.2268802    3804.0087         1119 
   31200   0.49200132   -7.2145821      3802.49         1100 
   31300   0.48647798   -7.2118503    3801.7206         1092 
   31400   0.50038147    -7.223083    3800.6444         1119 
   31500   0.49338953   -7.2087701    3798.6892         1094 
   31600   0.48582598   -7.2339364    3804.6341         1085 
   31700   0.49802122   -7.2099875    3792.6629         1125 
   31800   0.49067195   -7.2046255    3806.9379         1128 
   31900   0.49565374   -7.2263062     3799.506         1162 
   32000   0.48833538   -7.2194564    3795.6784         1224 
   32100    0.4896532   -7.2342106    3805.1124         1153 
   32200   0.49751104   -7.2119955    3793.9287         1154 
   32300   0.50591967   -7.2196456     3801.094         1181 
   32400   0.48537673   -7.2116536    3804.6966         1206 
   32500   0.48720949   -7.2257927     3798.225         1182 
   32600   0.48170099   -7.2268934    3796.1848         1134 
   32700   0.49313952     -7.22132    3797.4693         1174 
   32800   0.49166036   -7.2125535    3799.8523         1233 
   32900   0.49695154   -7.2290115    3794.2459         1235 
   33000    0.4814883   -7.2372747    3803.8021         1238 
   33100   0.48742734   -7.1963622    3794.0499         1225 
   33200   0.49193328   -7.2229002    3806.9198         1240 
   33300   0.48285256   -7.2242288    3798.2252         1221 
   33400   0.49651155   -7.2170305    3801.2469         1177 
   33500   0.48987151   -7.2149129    3803.2588         1205 
   33600   0.48068417   -7.2217412    3800.3222         1251 
   33700   0.49262553   -7.2066309    3790.1042         1179 
   33800   0.48361876   -7.2197411    3806.9517         1225 
   33900   0.49215107   -7.2214855    3793.5663         1139 
   34000   0.48684608   -7.2301822     3801.172         1228 
   34100   0.48930233   -7.2203264    3801.8338         1260 
   34200   0.50330855   -7.2255906    3800.4467         1185 
   34300   0.48781576    -7.216851    3803.1919         1260 
   34400    0.4793193   -7.2138151    3795.7406         1247 
   34500   0.47863447    -7.232373    3801.1257         1219 
   34600   0.49611615   -7.2168383    3793.1858         1212 
   34700   0.48766705   -7.2314571    3802.7293         1223 
   34800   0.49425513   -7.2266563    3795.1878         1227 
   34900   0.49444229   -7.2306652    3800.0339         1258 
   35000   0.48426129    -7.229895    3793.6882         1248 
   35100   0.48956793   -7.2267267    3809.6015         1283 
   35200   0.49305556   -7.2159504    3791.2535         1248 
   35300   0.49011015   -7.2412657     3800.807         1271 
   35400   0.48715522   -7.2371671    3799.4363         1368 
   35500   0.50562795   -7.2288742    3796.7666         1345 
   35600   0.48544476   -7.2237946    3802.9607         1348 
   35700   0.49215223   -7.2238171    3796.7448         1343 
   35800   0.48785915    -7.250823     3797.045         1369 
   35900   0.48523389   -7.2273408    3795.8207         1386 
   36000   0.48749264   -7.2241155    3802.0264         1344 
   36100   0.49777467   -7.2329216    3800.5905         1317 
   36200   0.47957698   -7.2256451    3801.3614         1344 
   36300   0.47803151   -7.2436057     3797.641         1359 
   36400   0.49120899   -7.2391457     3794.394         1370 
   36500   0.49266359   -7.2237152     3791.024         1366 
   36600    0.4932582   -7.2315514    3807.9265         1343 
   36700   0.48645853   -7.2250963    3784.9191         1374 
   36800   0.48511744   -7.2389421    3801.9728         1362 
   36900   0.49151875   -7.2286281    3801.6474         1328 
   37000   0.49488769   -7.2116448    3802.9109         1362 
   37100   0.48744554   -7.2232376    3797.6601         1388 
   37200   0.47986664   -7.2279462    3799.0913         1380 
   37300   0.49389716   -7.2203188    3802.5624         1346 
   37400   0.49146519   -7.2215419    3795.1089         1352 
   37500   0.49093094   -7.2313348    3798.2986         1339 
   37600   0.49839955   -7.2374744    3794.1983         1371 
   37700   0.48283245   -7.2533431    3796.8075         1300 
   37800   0.48739649   -7.2398351    3794.4022         1326 
   37900   0.48981181   -7.2337722    3794.7633         1322 
   38000   0.49949535   -7.2198027    3801.4518         1269 
   38100   0.48754918   -7.2249839    3803.2471         1319 
   38200   0.48652535   -7.2286479    3792.7562         1415 
   38300   0.48907603    -7.229313    3798.3473         1402 
   38400   0.48546728   -7.2294099     3797.856         1355 
   38500   0.48604494   -7.2401273    3800.3505         1335 
   38600   0.49322613    -7.235141    3792.4477         1294 
   38700   0.48622866     -7.25307    3796.1795         1303 
   38800   0.47972643   -7.2264159      3791.36         1263 
   38900   0.49227212   -7.2389532    3806.2251         1348 
   39000   0.48527169   -7.2256235    3786.4783         1429 
   39100   0.49323812   -7.2429489    3800.5025         1468 
   39200   0.49097126   -7.2339936    3793.1298         1343 
   39300   0.49218705   -7.2436986    3796.7153         1372 
   39400   0.48948968   -7.2334912    3800.8546         1442 
   39500    0.5036822   -7.2269384    3794.7371         1429 
   39600   0.48973291   -7.2487518    3799.0363         1402 
   39700    0.4891759   -7.2316581    3793.6202         1388 
   39800   0.49100136    -7.231424     3800.413         1363 
   39900   0.48537505   -7.2380803     3791.585         1403 
   40000   0.48836913   -7.2342161    3798.4711         1451 
   40100   0.50398148   -7.2322197    3797.8088         1437 
   40200   0.48420706   -7.2421418    3796.7284         1432 
   40300   0.49097065   -7.2395047    3789.9742         1465 
   40400   0.49323233   -7.2405667    3799.1678         1458 
   40500   0.49957819   -7.2401076    3803.5177         1454 
   40600   0.48814288   -7.2360382     3790.334         1456 
   40700   0.48331112   -7.2326086    3796.8746         1419 
   40800   0.49631354   -7.2277219    3794.1976         1458 
   40900   0.48151665    -7.247287    3796.9738         1448 
   41000    0.4922532   -7.2330305    3786.1466         1462 
   41100   0.49480561   -7.2333242    3797.4804         1422 
   41200    0.4954486   -7.2266462    3802.8273         1419 
   41300   0.48868119   -7.2388383    3792.8674         1504 
   41400   0.49457524   -7.2524244    3799.0554         1507 
   41500   0.50350333   -7.2376018    3796.3994         1515 
   41600   0.48413999   -7.2361214    3790.8478         1508 
   41700   0.49207102   -7.2492155    3789.7312         1531 
   41800   0.47843851   -7.2473999    3792.2059         1539 
   41900   0.48777271   -7.2359605    3795.4809         1499 
   42000   0.48686492   -7.2235688    3789.2131         1520 
   42100   0.48449578   -7.2545249     3797.597         1544 
   42200   0.49373769    -7.244274    3786.9505         1584 
   42300   0.49080959   -7.2406631    3794.2798         1515 
   42400   0.48195051   -7.2543991    3788.8706         1533 
   42500   0.48523538   -7.2426233    3797.2734         1560 
   42600   0.49830633    -7.243104    3792.2077         1541 
   42700   0.48404347   -7.2500204    3788.4577         1529 
   42800   0.47908716   -7.2356484    3789.6995         1596 
   42900   0.49339191    -7.241449    3797.0316         1564 
   43000   0.48561359   -7.2508643    3795.7961         1614 
   43100   0.50117143   -7.2445126    3794.9577         1627 
   43200   0.49193015    -7.243687    3795.8312         1627 
   43300   0.48906712   -7.2530702    3792.0283         1640 
   43400   0.48341628   -7.2422801    3791.7129         1566 
   43500   0.49686791   -7.2380239    3791.3033         1583 
   43600   0.48674042   -7.2582344    3793.7872         1571 
   43700   0.49229962   -7.2575973    3791.2142         1581 
   43800   0.49391712   -7.2300859    3793.6084         1538 
   43900   0.49067641   -7.2417946    3790.1085         1542 
   44000   0.48186203   -7.2540529     3795.728         1581 
   44100   0.48870644   -7.2432993    3787.7377         1552 
   44200   0.49346513   -7.2394834    3798.4636         1592 
   44300   0.49023605    -7.251984     3795.005         1614 
   44400   0.48357321   -7.2575994    3787.0031         1649 
   44500   0.49534883   -7.2534432    3794.0509         1619 
   44600   0.48284449   -7.2365113    3791.9003         1660 
   44700   0.48522469   -7.2581499    3797.8291         1660 
   44800   0.47847388   -7.2427685    3787.5469         1621 
   44900   0.49009505   -7.2387834    3789.4526         1606 
   45000   0.50167422   -7.2607257    3797.2969         1652 
   45100   0.48994592   -7.2525268    3788.7368         1668 
   45200   0.49633288   -7.2563108     3790.359         1648 
   45300   0.49347637   -7.2432803    3796.0101         1616 
   45400   0.48917526   -7.2462102    3795.2707         1591 
   45500   0.49213235   -7.2464241    3789.8736         1578 
   45600   0.47416151   -7.2531099    3797.7768         1598 
   45700   0.48746471   -7.2426772    3780.5778         1618 
   45800   0.48832108   -7.2480837    3803.4441         1644 
   45900   0.48649447   -7.2454402      3788.87         1574 
   46000   0.49113167   -7.2733669    3792.9928         1552 
   46100   0.48600999   -7.2555777    3790.5044         1607 
   46200   0.48925887   -7.2464743    3793.5346         1624 
   46300   0.49286939   -7.2333459    3790.7293         1574 
   46400   0.48466993    -7.250535    3808.9172         1567 
   46500   0.49148693   -7.2378044    3784.1867         1656 
   46600   0.47816728   -7.2648122    3798.4071         1654 
   46700   0.48351263   -7.2370889    3787.9812         1645 
   46800   0.48390574    -7.250545    3797.4419         1604 
   46900   0.48091182   -7.2484899    3785.9941         1637 
   47000   0.48551022   -7.2647454    3792.7774         1673 
   47100   0.49426865   -7.2471504    3791.2347         1657 
   47200   0.48589031   -7.2583502    3798.4616         1663 
   47300   0.49961973   -7.2583241    3788.2957         1636 
   47400   0.49762219   -7.2461783    3794.0042         1671 
   47500    0.4955124   -7.2529513    3797.3907         1605 
   47600   0.49215005   -7.2634906    3791.0869         1704 
   47700   0.47894125     -7.26328    3786.3161         1702 
   47800   0.48617723   -7.2667262    3783.9854         1684 
   47900   0.49077415   -7.2703933    3794.0127         1726 
   48000   0.48722133   -7.2467041    3788.2102         1640 
   48100   0.50221326     -7.26093    3799.2173         1695 
   48200   0.48641933   -7.2401605    3786.2141         1741 
   48300    0.4919451   -7.2566233    3790.9368         1747 
   48400   0.49080093    -7.267013    3785.9803         1710 
   48500   0.49487606   -7.2454893    3787.4669         1745 
   48600   0.48335956   -7.2509081    3793.9523         1696 
   48700   0.48432726   -7.2705679    3789.1791         1737 
   48800   0.49146279   -7.2673081    3787.4336         1743 
   48900   0.49851922   -7.2564202     3789.859         1762 
   49000   0.48916576   -7.2484677    3795.3228         1810 
   49100   0.48533654   -7.2631076    3793.5338         1776 
   49200   0.49193008    -7.258072    3787.4703         1820 
   49300    0.4892918   -7.2788665    3789.4263         1806 
   49400   0.48776578   -7.2589836    3782.5208         1803 
   49500   0.49222729   -7.2600415    3793.6707         1784 
   49600   0.48444377   -7.2550676    3787.4105         1768 
   49700   0.48611488   -7.2646122    3792.3976         1736 
   49800   0.49002062   -7.2399062     3793.006         1768 
   49900   0.49297707   -7.2458958    3795.7904         1789 
   50000   0.48901338   -7.2570382    3788.9911         1774 
   50100   0.48621031   -7.2696538    3788.1715         1767 
   50200   0.49869289   -7.2528604    3785.2988         1798 
   50300    0.4889451   -7.2678085    3795.1632         1800 
   50400   0.49394446   -7.2601539    3784.7722         1865 
   50500   0.47586519   -7.2579685    3793.8149         1825 
   50600   0.49732907   -7.2494463    3787.1905         1906 
   50700   0.49687808    -7.265811    3793.8652         1868 
   50800   0.48963834   -7.2646421    3790.0678         1862 
   50900   0.49046242   -7.2594205    3784.4587         1896 
   51000   0.49164041   -7.2730447    3790.4345         1835 
   51100   0.49192255   -7.2722222    3786.6958         1835 
   51200    0.4972469   -7.2599029    3792.2245         1803 
   51300   0.48131966   -7.2603238    3791.6841         1881 
   51400   0.48725706    -7.264803    3784.8022         1900 
   51500   0.48223107    -7.276227    3787.4088         1807 
   51600   0.48267638   -7.2446993    3781.5144         1826 
   51700     0.495447    -7.262844    3795.1382         1869 
   51800   0.48653841   -7.2728642    3783.4795         1900 
   51900   0.48708407   -7.2646913    3785.3945         1952 
   52000   0.48811714   -7.2632833    3790.0453         1974 
   52100   0.48363863   -7.2728873    3782.2699         1958 
   52200   0.49926109   -7.2757427    3791.2561         1932 
   52300   0.49648555   -7.2600814    3784.1457         1907 
   52400   0.47580147   -7.2662136    3788.3348         1978 
   52500   0.48874421   -7.2528245    3782.2361         1920 
   52600   0.47844746   -7.2579917    3793.4643         1919 
   52700   0.49826128   -7.2579499    3782.8251         1923 
   52800   0.49196856   -7.2813081    3783.0936         1947 
   52900   0.48746611   -7.2831072    3789.7969         1861 
   53000   0.49590321   -7.2488635    3774.9578         1891 
   53100   0.48700184   -7.2759064    3795.6788         1892 
   53200    0.4943756   -7.2724433    3780.2122         1882 
   53300   0.49885765   -7.2583842    3793.0665         1891 
   53400   0.48920668   -7.2674054    3789.6793         1867 
   53500   0.49307483   -7.2760442    3788.0534         1871 
   53600    0.4844316   -7.2806143    3772.1897         1966 
   53700   0.48327898   -7.2750344    3783.9958         1982 
   53800    0.4877623   -7.2585327    3783.2288         1960 
   53900   0.48807215   -7.2794258    3788.5092         1975 
   54000   0.49511211   -7.2910974     3781.919         1995 
   54100   0.48321285   -7.2678712    3785.9285         1934 
   54200   0.49602946   -7.2737101    3785.2592         1935 
   54300   0.48372125   -7.2654988    3786.4807         1912 
   54400   0.49564918   -7.2691532    3794.1924         1937 
   54500   0.48936508   -7.2709213    3781.3917         1947 
   54600   0.48714261    -7.273162    3786.7273         1966 
   54700   0.48283486   -7.2752878    3778.8394         1962 
   54800   0.49651198   -7.2793666    3786.0807         1979 
   54900   0.48613486   -7.2666268    3784.8005         1975 
   55000   0.48981834   -7.2900321    3786.6803         1953 
   55100   0.49484259   -7.2674048    3788.1648         1982 
   55200    0.4880959   -7.2643782    3781.7016         1947 
   55300   0.48721978   -7.2748274    3782.1341         1923 
   55400   0.49514837   -7.2662396    3787.2475         1941 
   55500   0.48332605   -7.2823694    3786.0115         1993 
   55600   0.48894186   -7.2681051    3782.1551         1983 
   55700   0.49594495   -7.2680012    3788.3389         1999 
   55800   0.48847033   -7.2713919     3793.476         2062 
   55900   0.49503071   -7.2863192    3783.2167         2024 
   56000   0.47997993   -7.2759746     3787.132         2017 
   56100   0.48921497   -7.2701477    3781.3878         2058 
   56200   0.49333588    -7.281042    3790.9139         2028 
   56300   0.49069581   -7.2759831    3775.4281         2066 
   56400      0.47938   -7.2996763    3790.6647         2015 
   56500   0.49412444   -7.2668727    3778.0381         2012 
   56600   0.49462843    -7.293438    3792.0886         2043 
   56700   0.49607884   -7.2833082    3779.7734         2032 
   56800   0.48426059   -7.2693375    3786.1268         1996 
   56900   0.49358458   -7.2580527    3789.7726         1995 
   57000   0.48116751   -7.2628309    3784.1921         2075 
   57100   0.49069629   -7.2748154    3785.2184         2049 
   57200   0.48598946   -7.2740868    3785.9547         1991 
   57300   0.49089908   -7.2754205    3785.4446         2061 
   57400   0.49872786   -7.2748355    3797.0918         2043 
   57500   0.48886577   -7.2560184     3772.653         2013 
   57600   0.48900122   -7.2840818    3786.1904         2041 
   57700   0.48432311   -7.2846497    3780.2822         2078 
   57800   0.49410255   -7.2738106    3785.8664         2041 
   57900    0.4883651     -7.28911     3787.937         1961 
   58000    0.4787839   -7.2727852    3781.2121         1940 
   58100   0.48233218   -7.2744539    3790.9056         2016 
   58200   0.49461589   -7.2644625    3778.8265         2016 
   58300   0.48963869   -7.2943228    3784.3195         2041 
   58400   0.48459704   -7.2820149    3779.1558         2026 
   58500   0.49102887   -7.2839318     3787.713         2042 
   58600   0.49296991   -7.2763276    3781.0671         2074 
   58700   0.49792493    -7.285364    3787.2007         2036 
   58800   0.48588104    -7.283971    3780.9193         2068 
   58900   0.48524689   -7.2897231    3788.5623         2077 
   59000   0.48845357    -7.266988    3781.4845         2048 
   59100   0.48180019   -7.2826274     3784.725         2103 
   59200   0.48548916   -7.2755536    3784.5228         2050 
   59300    0.5028376   -7.2856734    3791.7591         2061 
   59400   0.49418268   -7.2821825    3782.4775         2145 
   59500   0.48216802   -7.2901246    3792.8751         2141 
   59600   0.49933438   -7.2839148    3784.3358         2101 
   59700   0.48743913   -7.2779083    3782.3768         2148 
   59800   0.49318076   -7.2936409    3786.1863         2135 
   59900   0.49931419   -7.2830127    3789.1691         2139 
   60000   0.49723586   -7.2886684    3788.3755         2146 
   60100   0.48871922   -7.2807282    3781.0406         2122 
   60200   0.47693769   -7.2667475    3781.3438         2136 
   60300   0.49734992   -7.2816512    3782.8412         2204 
   60400   0.48323006   -7.2823545     3781.176         2200 
   60500   0.47693954   -7.2811091    3780.4099         2141 
   60600   0.49429321   -7.2901329    3787.3704         2176 
   60700    0.4835064   -7.2842009    3778.9782         2161 
   60800   0.48978112   -7.3027189    3774.7485         2227 
   60900   0.48683783   -7.2896209     3782.396         2196 
   61000      0.48149   -7.2807238    3783.3978         2158 
   61100   0.49992383   -7.2715635    3780.7806         2212 
   61200   0.48792728   -7.2785686    3785.8794         2138 
   61300   0.48661806   -7.2773991    3777.6669         2174 
   61400   0.48629941    -7.286264    3782.0592         2220 
   61500   0.48978209   -7.2865178     3779.356         2231 
   61600   0.49115712   -7.3087666    3774.4707         2219 
   61700   0.48931974   -7.2986714     3786.125         2211 
   61800   0.48881802   -7.2818834     3779.497         2298 
   61900    0.4874538   -7.2896709    3778.5511         2277 
   62000   0.48114879   -7.3033027    3781.7127         2230 
   62100   0.49221737   -7.2797502    3779.9819         2203 
   62200   0.49110247    -7.296633    3786.7579         2281 
   62300    0.4873327   -7.2978596    3777.0999         2251 
   62400   0.49239089   -7.3027229    3783.5769         2220 
   62500   0.49877343   -7.2689885    3780.1372         2264 
   62600   0.48707113    -7.284224    3785.8438         2262 
   62700   0.48497503   -7.2909858    3777.3182         2304 
   62800   0.47544517   -7.2746528    3774.4749         2308 
   62900    0.4895373   -7.2855869    3786.7819         2261 
   63000   0.49176729   -7.2942442    3788.0803         2276 
   63100   0.48217921   -7.2924436    3773.4958         2243 
   63200   0.48832536    -7.294741    3786.1958         2270 
   63300   0.49757367   -7.2812376    3772.2381         2299 
   63400   0.49004324   -7.3135669    3780.1203         2251 
   63500   0.48867513   -7.2906724    3779.8899         2260 
   63600   0.49466382   -7.2824246    3785.8928         2272 
   63700   0.50221907   -7.3028908    3775.7364         2221 
   63800   0.49093923   -7.3085033    3781.9533         2255 
   63900   0.49458692   -7.2917625     3781.884         2254 
   64000   0.49801509   -7.2796969    3779.3018         2193 
   64100   0.49028685   -7.2895656    3777.1378         2234 
   64200   0.48553126   -7.3039651    3780.0786         2236 
   64300   0.48422177   -7.3051631    3769.9584         2215 
   64400   0.49014883   -7.2855703    3780.7876         2195 
   64500   0.48683538   -7.2854277    3775.8773         2282 
   64600   0.48818242    -7.307802    3779.5693         2291 
   64700   0.49167498   -7.2803587    3775.4811         2256 
   64800   0.49290282   -7.2907014    3780.0879         2274 
   64900   0.48135111   -7.2915114    3775.6818         2256 
   65000   0.48756701   -7.2988539    3780.6145         2219 
   65100   0.48663763   -7.2874457    3777.8666         2221 
   65200   0.49513895   -7.2915075    3782.7807         2279 
   65300    0.4912911    -7.311126    3776.4037         2276 
   65400   0.48959311   -7.3046241    3775.5144         2317 
   65500   0.49479076   -7.3049483    3772.6548         2307 
   65600   0.49508428   -7.3025257    3787.5325         2319 
   65700   0.48388507   -7.2820649     3768.431         2259 
   65800   0.49632773   -7.3094857    3789.3667         2305 
   65900   0.49865925   -7.2709664    3772.7993         2312 
   66000   0.48803806   -7.3052504    3779.0752         2298 
   66100    0.4958944   -7.3024569    3774.7203         2300 
   66200   0.49326828   -7.2744007    3781.4958         2356 
   66300   0.48661163    -7.295002    3781.9901         2329 
   66400   0.48960572   -7.2939052    3774.0376         2367 
   66500   0.48595112   -7.2823503    3786.1243         2343 
   66600   0.48673207   -7.2941408    3778.4275         2333 
   66700   0.48708081   -7.3051311    3774.3622         2349 
   66800   0.49438995   -7.2952553     3780.928         2304 
   66900   0.48722977   -7.2963852     3787.092         2291 
   67000   0.48600697   -7.2845285    3770.9422         2354 
   67100   0.48140027   -7.3163328    3785.1413         2355 
   67200   0.49978328   -7.2966521    3772.7687         2334 
   67300   0.48801184   -7.2917453    3783.4748         2313 
   67400   0.48760913    -7.308946    3772.0473         2355 
   67500   0.49936884   -7.3160921    3780.9967         2368 
   67600    0.4940264   -7.2960501    3775.4863         2342 
   67700   0.48685974   -7.2987129    3784.8388         2348 
   67800   0.49891744   -7.2946175    3766.2542         2306 
   67900   0.49215846   -7.3247833    3787.5647         2335 
   68000   0.48873309   -7.2984576    3767.1093         2345 
   68100   0.49768461   -7.3038894    3787.3033         2308 
   68200   0.49203823   -7.3067976    3777.2704         2334 
   68300    0.4941362    -7.299323    3774.2835         2341 
   68400   0.49426395   -7.2887093      3780.18         2324 
   68500   0.49326616   -7.3038353    3773.9203         2422 
   68600   0.48332981   -7.2987803    3778.9552         2439 
   68700   0.49453608   -7.2912285    3774.8595         2395 
   68800   0.48952099   -7.3199323     3773.407         2418 
   68900   0.49327656   -7.3110469    3779.3554         2385 
   69000   0.49226396   -7.2892372    3777.5514         2414 
   69100   0.48500751   -7.3029157    3772.8768         2423 
   69200   0.48784962   -7.3080343    3781.5637         2371 
   69300   0.49848723   -7.3122266    3776.4871         2429 
   69400   0.47428321   -7.2977847    3774.0196         2393 
   69500   0.48669848   -7.3087938    3779.8478         2401 
   69600   0.50136742   -7.2963092    3770.6829         2371 
   69700   0.47973263   -7.2961416    3785.1919         2422 
   69800   0.48607924   -7.2924101    3769.8674         2466 
   69900   0.48868603   -7.3026377    3785.6257         2450 
   70000   0.49995656   -7.2986823    3776.3813         2448 
   70100   0.49471546   -7.3097738    3768.3644         2524 
   70200   0.47741055   -7.3059025    3778.8759         2505 
   70300   0.49378749   -7.3087525    3772.9471         2421 
   70400   0.48398879   -7.3222673    3772.5336         2451 
   70500   0.48695996   -7.3098754    3773.4715         2521 
   70600    0.4877346   -7.3003036    3776.3385         2526 
   70700   0.49001442    -7.292045    3776.3638         2454 
   70800   0.50281648   -7.3036259    3781.2555         2478 
   70900    0.4984785   -7.3052426    3771.0955         2542 
   71000   0.48821255   -7.3214628     3775.018         2581 
   71100   0.49753937   -7.3244622    3774.0116         2566 
   71200   0.49676538    -7.314662    3777.1993         2554 
   71300   0.48867189   -7.3103809    3772.5751         2549 
   71400   0.49084425   -7.3107822    3775.8689         2549 
   71500   0.47952128   -7.3032857    3776.5108         2591 
   71600   0.48450542   -7.3225164    3772.2937         2580 
   71700   0.49141014   -7.3111796    3776.5294         2506 
   71800    0.4931152   -7.2984909    3779.2474         2502 
   71900   0.48523069   -7.3064142    3771.0121         2508 
   72000   0.49777751   -7.3281618    3776.4456         2518 
   72100   0.49763824   -7.3040333    3773.2096         2528 
   72200   0.49448166   -7.3088202    3783.3693         2528 
   72300   0.49111805   -7.3129237    3768.1587         2556 
   72400   0.48890745   -7.3061617    3774.8269         2553 
   72500   0.48740788   -7.3066311    3774.4529         2492 
   72600    0.4892062   -7.3184223    3774.1696         2487 
   72700   0.48360631   -7.2987137    3774.9174         2468 
   72800   0.49403943   -7.3016014    3776.4474         2465 
   72900   0.48440927   -7.3021493    3767.2385         2503 
   73000    0.4867369   -7.3070472    3777.0408         2554 
   73100    0.4783553   -7.2876834     3769.451         2517 
   73200   0.48193763   -7.3037555    3781.8965         2516 
   73300   0.49565959   -7.3022956    3774.2711         2524 
   73400   0.48044033   -7.3131117    3774.5242         2577 
   73500   0.49447445   -7.3090052    3775.6872         2593 
   73600   0.49683179   -7.3035121    3769.1728         2533 
   73700   0.48515547   -7.3155802    3781.0277         2475 
   73800   0.49519797   -7.3108494    3772.0431         2542 
   73900   0.49616278   -7.3080445    3769.7928         2556 
   74000   0.49983331   -7.3089092    3786.1777         2574 
   74100    0.4952826   -7.3106287    3762.5194         2598 
   74200   0.49636052    -7.333281     3777.899         2590 
   74300   0.49328912   -7.3065889    3771.8487         2578 
   74400   0.48328966   -7.2901932    3777.7311         2559 
   74500   0.47727659    -7.308002    3769.8456         2577 
   74600   0.47422284   -7.3016405    3778.1956         2559 
   74700   0.49488283   -7.3038784    3771.0562         2542 
   74800   0.49021015   -7.3148493    3773.9253         2598 
   74900   0.47991236   -7.3209989    3773.4214         2601 
   75000   0.47677568   -7.3129911    3773.4177         2604 
   75100   0.48665775   -7.3109686    3773.6752         2606 
   75200   0.49648397   -7.3091933    3777.5219         2599 
   75300   0.49175272   -7.2930315    3781.6501         2593 
   75400   0.48801039   -7.3153523    3767.5303         2576 
   75500   0.48156421   -7.3104964    3775.3953         2577 
   75600   0.49786489   -7.3041902    3770.4246         2619 
   75700   0.48256093   -7.3154474    3776.1413         2589 
   75800    0.4995306   -7.3145443     3765.438         2589 
   75900    0.5051538   -7.3167304    3783.0988         2642 
   76000   0.48701725   -7.2952545    3766.4285         2690 
   76100   0.48708704   -7.3256217    3782.7724         2654 
   76200   0.49702855   -7.3042884    3771.4284         2685 
   76300   0.47701746   -7.3227627    3772.9153         2637 
   76400   0.48567504   -7.3197724     3772.825         2674 
   76500    0.4903649   -7.3183271    3778.2112         2648 
   76600   0.49744273   -7.3268332    3772.4939         2655 
   76700   0.48634961    -7.317996    3767.0783         2665 
   76800   0.49936908   -7.3256351     3774.071         2684 
   76900   0.48662879    -7.319555    3770.6686         2688 
   77000   0.49486804   -7.3178909    3770.5068         2734 
   77100   0.48226952   -7.3221435    3777.7797         2695 
   77200   0.49075828   -7.3048156    3767.8688         2707 
   77300   0.48876554   -7.3133288    3782.1878         2634 
   77400   0.48608033   -7.3132961    3760.6897         2684 
   77500   0.49933487   -7.3291273    3773.5665         2704 
   77600   0.48998798   -7.3031225    3772.9523         2689 
   77700   0.49877828   -7.3112271    3771.5678         2689 
   77800   0.48545537   -7.3221726    3771.6156         2687 
   77900   0.49078347   -7.3126179    3778.3876         2636 
   78000   0.50303862    -7.317337    3766.4541         2675 
   78100   0.48855449   -7.3334246    3774.8594         2670 
   78200    0.4922346   -7.2970668    3764.4462         2679 
   78300   0.49191284   -7.3154111     3775.141         2671 
   78400   0.49450346   -7.3131009    3772.0588         2672 
   78500   0.47933369   -7.3207526    3775.0015         2704 
   78600   0.48214112   -7.3189223    3768.7931         2713 
   78700   0.49374848   -7.3173267    3778.0073         2746 
   78800   0.49136205   -7.3055943    3764.4996         2686 
   78900   0.48202037   -7.3430296    3779.0488         2750 
   79000    0.4897152   -7.3125763    3770.2084         2716 
   79100   0.50027195   -7.3316755    3773.8245         2737 
   79200   0.48441503   -7.3241116    3770.3107         2714 
   79300   0.48266868   -7.3243494    3774.6189         2712 
   79400     0.499263   -7.3222847    3769.4387         2744 
   79500   0.48596752    -7.322009    3772.1939         2730 
   79600    0.4865565    -7.320493    3777.3594         2708 
   79700   0.49965878   -7.3082779    3772.9214         2710 
   79800   0.49384152   -7.3368376    3774.0238         2757 
   79900   0.48902809   -7.3236221    3769.0793         2782 
   80000   0.50034581   -7.3203037    3775.6387         2767 
   80100   0.48323865   -7.3205398    3767.8077         2768 
   80200   0.49126753   -7.3351124    3769.1692         2742 
   80300   0.49082725   -7.3414216    3764.6631         2734 
   80400   0.48986976   -7.3253832     3769.069         2762 
   80500   0.48699701   -7.3218788    3770.3883         2782 
   80600   0.48603654   -7.3082764     3778.003         2776 
   80700   0.49137257   -7.3182014    3765.9722         2764 
   80800   0.49048617   -7.3483214    3773.4005         2769 
   80900   0.49133046   -7.3167707    3762.4105         2761 
   81000   0.48160718   -7.3255608    3776.7292         2788 
   81100    0.4733146   -7.3368241    3765.1536         2846 
   81200   0.48630471   -7.3256794    3767.0366         2794 
   81300   0.49024899   -7.3388674    3776.9911         2798 
   81400   0.48437839   -7.3371575    3759.3106         2822 
   81500   0.49152077   -7.3385086    3771.1943         2807 
   81600   0.50260329   -7.3278625    3765.5434         2796 
   81700   0.48165514   -7.3395204    3768.3318         2808 
   81800   0.49686534   -7.3367882    3761.1664         2836 
   81900   0.50099678   -7.3286018    3776.6469         2845 
   82000   0.49436659   -7.3203622     3763.929         2873 
   82100   0.48899752    -7.347421    3772.5571         2828 
   82200   0.49145025   -7.3426427    3762.0121         2835 
   82300   0.49349671   -7.3295911    3769.9465         2803 
   82400   0.50163526   -7.3328431    3768.9849         2808 
   82500   0.48390807   -7.3336975    3771.2761         2784 
   82600   0.48247504   -7.3290933    3760.5194         2804 
   82700   0.49528102   -7.3629727    3766.5383         2851 
   82800   0.49586521    -7.337022    3768.5848         2851 
   82900   0.49781802   -7.3533836    3768.2159         2839 
   83000   0.49211962   -7.3442701    3763.8733         2871 
   83100   0.49465489   -7.3440308    3765.1293         2883 
   83200    0.4861585   -7.3518819    3767.9533         2856 
   83300   0.49440958    -7.354084     3761.317         2875 
   83400   0.49068548   -7.3333401    3769.5547         2842 
   83500   0.48956458   -7.3344605    3770.6206         2847 
   83600   0.48837059    -7.343325    3764.7824         2843 
   83700    0.4860426   -7.3394584    3762.0655         2870 
   83800   0.48545314    -7.346768    3770.4071         2877 
   83900   0.48858793   -7.3370213    3755.1043         2886 
   84000   0.49339488   -7.3531971    3775.4354         2867 
   84100   0.48772158   -7.3395417    3756.8704         2908 
   84200   0.48846247   -7.3613717    3763.5371         2845 
   84300   0.49736006   -7.3446719    3768.3256         2838 
   84400   0.47870311   -7.3425588    3771.8911         2825 
   84500   0.48570488   -7.3423934    3761.4189         2833 
   84600   0.49321977    -7.369791    3762.9971         2798 
   84700   0.48750761     -7.35786    3759.3711         2831 
   84800   0.49218892   -7.3572085    3769.3654         2888 
   84900   0.47830678   -7.3364841    3756.7526         2859 
   85000   0.49753891   -7.3554153    3764.9716         2858 
   85100   0.48538242   -7.3340999    3765.5397         2794 
   85200   0.47765327   -7.3355336    3769.1205         2805 
   85300   0.49580784   -7.3578302    3756.0934         2824 
   85400   0.48550349   -7.3661135    3761.6308         2834 
   85500   0.49026265    -7.353705    3762.8903         2826 
   85600   0.48761917   -7.3449439    3761.5564         2833 
   85700   0.48499019   -7.3624946    3762.7865         2822 
   85800    0.4937628   -7.3551304    3765.2755         2819 
   85900   0.48090026   -7.3354684    3755.9105         2846 
   86000   0.50051984   -7.3716223    3763.8987         2852 
   86100   0.48407638   -7.3583314     3758.523         2858 
   86200   0.48308077    -7.354562    3763.2248         2878 
   86300   0.48794058   -7.3476472    3763.0279         2845 
   86400   0.47602382   -7.3467723    3761.2379         2812 
   86500   0.47650514   -7.3699341    3761.7517         2868 
   86600   0.48848501   -7.3449247    3756.2205         2849 
   86700   0.49687629   -7.3603291    3767.0988         2843 
   86800    0.4972967   -7.3600092    3760.8321         2841 
   86900   0.48943099   -7.3623695    3754.2684         2838 
   87000   0.48797397   -7.3698802     3763.069         2832 
   87100   0.49654669   -7.3540934    3765.0351         2783 
   87200   0.48570141   -7.3602546    3758.2474         2792 
   87300   0.50495689   -7.3811718    3756.6091         2880 
   87400    0.4751359   -7.3702047    3761.7658         2882 
   87500   0.49606439   -7.3732681    3758.3982         2848 
   87600   0.50690065   -7.3685639    3758.3522         2839 
   87700   0.48132315   -7.3629423    3759.9131         2831 
   87800   0.49094041   -7.3659985    3760.1561         2856 
   87900   0.49761276   -7.3409368    3757.6413         2790 
   88000   0.49737353   -7.3743322     3766.574         2876 
   88100   0.50162968   -7.3678883    3751.0863         2885 
   88200   0.47833908   -7.3809205    3762.9503         2885 
   88300    0.4957054   -7.3745362    3751.9162         2900 
   88400   0.48958192   -7.3639512    3762.3228         2906 
   88500   0.49519595   -7.3532986    3752.2813         2879 
   88600   0.47957082   -7.3732792    3766.5185         2881 
   88700   0.49212399   -7.3577551    3755.6635         2888 
   88800   0.48919903   -7.3881378    3755.7822         2885 
   88900   0.48437734   -7.3776754    3759.6798         2874 
   89000   0.48452835   -7.3497093    3758.8792         2861 
   89100   0.48304731   -7.3700808    3758.8064         2891 
   89200   0.48589588   -7.3662791    3754.6179         2870 
   89300   0.48573364   -7.3545539    3758.1257         2861 
   89400   0.50424944   -7.3594606    3765.1062         2868 
   89500   0.48736427    -7.362002     3760.226         2866 
   89600   0.48564338   -7.3828601    3760.1281         2876 
   89700   0.49106519   -7.3652434    3752.0167         2919 
   89800    0.4956432   -7.3733578    3755.5396         2914 
   89900   0.49441815   -7.3688612    3764.8078         2934 
   90000   0.48442428   -7.3555293    3760.6106         2942 
   90100   0.49316054   -7.3821451    3757.6773         2906 
   90200   0.48271948   -7.3742207    3755.3389         2879 
   90300   0.48652551   -7.3677166    3759.5069         2933 
   90400   0.49310636   -7.3730003    3752.8743         2954 
   90500   0.48287869   -7.3703586     3755.248         2931 
   90600   0.50101502   -7.3615442    3754.6391         2895 
   90700   0.49440869   -7.3699726    3762.7991         2890 
   90800   0.48896749   -7.3686424    3754.8182         2951 
   90900     0.484217   -7.3651155    3755.6652         2918 
   91000   0.48088425   -7.3640057    3756.8663         2875 
   91100   0.48389378    -7.372931    3757.2787         2904 
   91200   0.48967371   -7.3594579    3759.6783         2922 
   91300   0.48652686   -7.3748498    3753.2191         2935 
   91400   0.48279174    -7.380286    3756.7716         2908 
   91500   0.48498012   -7.3625945    3761.8228         2928 
   91600   0.49777813     -7.36376      3753.72         2945 
   91700   0.49090604   -7.3804617    3761.8356         3012 
   91800   0.48763095   -7.3638316    3750.5651         2966 
   91900   0.48091664   -7.3707548    3765.3573         2970 
   92000   0.49535447   -7.3737584    3758.1304         2967 
   92100   0.48309562   -7.3723006    3760.8429         2953 
   92200   0.49693781   -7.3684915    3757.2622         2922 
   92300   0.48695418   -7.3610125     3755.267         2939 
   92400   0.48508384   -7.3860592     3756.593         2956 
   92500   0.49046663   -7.3785739    3754.9901         2968 
   92600   0.49582331   -7.3708798    3761.3051         2936 
   92700   0.49888504   -7.3730261    3750.5091         2938 
   92800   0.48988253   -7.3893556    3756.8685         2968 
   92900    0.4932753   -7.3753081    3755.8143         2962 
   93000   0.48835391   -7.3637811    3758.3603         2934 
   93100   0.49375801   -7.3783362    3755.1369         2959 
   93200   0.48395752   -7.3868707    3752.1969         2970 
   93300   0.50265755    -7.383547    3753.8186         2974 
   93400   0.49825038   -7.3716128    3759.3236         2939 
   93500   0.49058414   -7.3672056     3749.638         2954 
   93600   0.48866793   -7.3901028    3757.4865         2966 
   93700   0.49769318   -7.3735933    3758.5197         3021 
   93800   0.49053314   -7.3739739    3754.9959         2950 
   93900   0.49019855    -7.384671     3757.182         2966 
   94000   0.48140433   -7.3853193    3753.4164         2979 
   94100   0.48731646   -7.3700818    3757.5271         2975 
   94200   0.49093617   -7.3676492    3760.8937         2954 
   94300   0.48939232   -7.3783599    3758.2339         2954 
   94400   0.48486105   -7.3654744    3751.1591         2986 
   94500   0.49504275   -7.3731454    3765.7949         2965 
   94600   0.48896036   -7.3586253    3755.8241         2960 
   94700   0.48436177   -7.3751756    3753.5481         2998 
   94800   0.49707611   -7.3736623    3752.5183         3022 
   94900   0.49805426   -7.3707904    3759.4294         2992 
   95000   0.47991895   -7.3632553    3755.1622         3001 
   95100   0.49275293   -7.3750284    3757.3842         3038 
   95200    0.5007496   -7.4103629    3753.9137         3023 
   95300   0.48726758   -7.3858042    3749.8842         3046 
   95400   0.49191345   -7.3726484    3753.9441         3044 
   95500   0.48868498   -7.3779117    3760.6827         3024 
   95600   0.47881595   -7.3754325    3747.5819         3040 
   95700   0.49354898   -7.3828983    3757.5041         3087 
   95800   0.49439739   -7.3774392    3757.8617         3072 
   95900   0.48603115   -7.3963499    3756.1847         3034 
   96000   0.49181354   -7.3778604    3748.6413         3027 
   96100   0.49759079   -7.3907442    3759.6737         3057 
   96200   0.48136155   -7.3705811    3747.3175         3043 
   96300   0.49379909    -7.379705    3760.5058         3025 
   96400   0.49216274   -7.3738484    3746.4517         3053 
   96500    0.4900456   -7.3896577    3755.6693         3041 
   96600   0.47796249   -7.3777089    3746.7671         3092 
   96700      0.49835   -7.3846755    3763.6203         3066 
   96800   0.48618679   -7.3739886    3748.4861         3053 
   96900   0.48794727   -7.3915707       3760.6         3049 
   97000   0.51449593   -7.3899658    3755.5348         3044 
   97100    0.4916575   -7.3895143    3758.2808         3086 
   97200   0.48704324   -7.3934454    3755.5901         3074 
   97300   0.48093512   -7.3751361    3754.2339         3056 
   97400   0.49940291   -7.3790553    3756.0626         3051 
   97500   0.49255157   -7.3942993    3752.0155         3064 
   97600   0.49571166    -7.389329    3750.8892         3122 
   97700   0.48766897   -7.3995213    3753.9403         3083 
   97800   0.49349025   -7.4003716    3745.8326         3094 
   97900   0.48543764    -7.378907    3758.3993         3038 
   98000   0.49529893   -7.3883128    3749.4942         3057 
   98100   0.48963306    -7.396111    3753.4572         3099 
   98200   0.48314196   -7.3937906    3751.3556         3078 
   98300   0.50621804   -7.4089374    3758.6279         3100 
   98400   0.48974097   -7.3899693    3743.9721         3084 
   98500   0.49113306   -7.4060092    3750.8949         3118 
   98600   0.47949004    -7.405089    3745.5338         3122 
   98700   0.49015906   -7.3985494    3755.8721         3161 
   98800    0.4839324   -7.3864004    3748.2595         3106 
   98900   0.49928458   -7.3956735     3755.945         3109 
   99000   0.48683879   -7.3920839    3736.0457         3116 
   99100   0.48086123      -7.4164    3756.6404         3169 
   99200   0.49484695   -7.3911904    3745.1758         3145 
   99300   0.48162835   -7.3929581    3761.6953         3127 
   99400   0.48739318   -7.3973791    3739.9881         3144 
   99500   0.49693061    -7.419281    3751.8794         3165 
   99600   0.49267585   -7.3902051    3746.0121         3186 
   99700   0.48467998   -7.4199526    3750.5371         3209 
   99800   0.48656163    -7.417092    3741.4422         3224 
   99900   0.49239539   -7.4113307    3752.3747         3213 
  100000   0.49391284   -7.4198001    3743.8255         3207 
  100100    0.4932456    -7.432034    3745.1059         3254 
  100200   0.49215137   -7.4225756    3741.6382         3227 
  100300   0.48529481   -7.4248399    3750.8214         3203 
  100400    0.5058581   -7.4220872    3740.3977         3251 
  100500    0.4916124   -7.4366128    3742.5064         3317 
  100600   0.49116534    -7.417184    3738.3459         3316 
  100700   0.49741441   -7.4235331     3743.945         3338 
  100800   0.48564129   -7.4304406    3740.7985         3352 
  100900    0.4859201   -7.4172733    3733.8655         3327 
  101000    0.4944482   -7.4346352    3751.4177         3314 
  101100   0.47958601   -7.4078789    3733.9935         3321 
  101200    0.4860412   -7.4373922    3746.7898         3342 
  101300   0.50030365   -7.4298032    3737.6213         3400 
  101400   0.49171272   -7.4506252    3741.3405         3374 
  101500    0.4910204   -7.4295412    3739.6606         3398 
  101600   0.49467592    -7.432351    3747.3633         3332 
  101700    0.4889972   -7.4396524    3738.8503         3393 
  101800   0.49169536   -7.4453986    3736.7722         3378 
  101900   0.49345294   -7.4192519    3742.6411         3407 
  102000   0.48571136   -7.4220983     3737.878         3405 
  102100   0.48913376   -7.4455253    3740.0666         3407 
  102200   0.49414264   -7.4331481    3740.5831         3397 
  102300   0.50073664   -7.4390188    3740.3796         3394 
  102400   0.49001166   -7.4400537    3741.3091         3380 
  102500   0.48406377   -7.4464454    3734.7446         3426 
  102600   0.49020553   -7.4461951    3733.2337         3442 
  102700   0.49170716   -7.4298957    3736.0438         3435 
  102800   0.48175683   -7.4452895    3741.2452         3458 
  102900   0.48633835   -7.4445052    3725.9835         3444 
  103000   0.49285205   -7.4552613    3747.6954         3440 
  103100    0.4866202   -7.4442638    3736.0358         3465 
  103200   0.48555321   -7.4589574    3734.0886         3439 
  103300   0.48962884   -7.4515943    3736.9304         3413 
  103400   0.49451494   -7.4486019    3733.1909         3439 
  103500   0.49282367   -7.4530353    3736.4416         3430 
  103600   0.49442222   -7.4441164     3732.148         3481 
  103700   0.48421921   -7.4559896    3740.4257         3490 
  103800   0.49034156    -7.444485    3723.3269         3502 
  103900   0.49397139   -7.4534017    3740.7908         3473 
  104000   0.48853513   -7.4622436    3731.8274         3493 
Loop time of 130.078 on 64 procs for 100000 steps with 4000 atoms

Performance: 132842.901 tau/day, 768.767 timesteps/s
99.9% CPU use with 64 MPI tasks x no OpenMP threads

MPI task timing breakdown:
Section |  min time  |  avg time  |  max time  |%varavg| %total
---------------------------------------------------------------
Pair    | 7.8319     | 8.3577     | 9.3062     |   8.5 |  6.43
Neigh   | 0.76463    | 0.80026    | 0.86755    |   1.9 |  0.62
Comm    | 9.1313     | 14.076     | 19.07      |  72.3 | 10.82
Output  | 7.5228     | 7.5249     | 7.5352     |   0.1 |  5.78
Modify  | 79.712     | 92.078     | 102.23     |  75.2 | 70.79
Other   |            | 7.242      |            |       |  5.57

Nlocal:        62.5000 ave          71 max          58 min
Histogram: 8 14 6 16 5 2 9 1 1 2
Nghost:        1550.89 ave        1575 max        1530 min
Histogram: 1 5 10 9 12 9 9 4 1 4
Neighs:        7706.12 ave        8830 max        6841 min
Histogram: 2 5 10 16 8 9 6 4 2 2
FullNghs:      15412.4 ave       17509 max       13961 min
Histogram: 4 5 16 12 7 6 6 4 2 2

Total # of neighbors = 986393
Ave neighs/atom = 246.59825
Neighbor list builds = 4137
Dangerous builds = 0

#clear
#
#next RN
#
#jump SELF
Total wall time: 0:02:11
