
units lj                  # Use reduced LJ style units
atom_style atomic         # Uncharged point particles
atom_modify map hash      # Needed for indexing of clusters etc
                          # Used to be able to find where atoms are in relation to each other.

# Define a lattice with which to populate the simulation cell. With units
# set to 'lj' the second argument to the lattice command is the reduced
# density rho* and the spacings are multiples of that required to acheive
# that density. Also define a simulation cell called 'box' in lattice units
# and fill it with atoms. Here we're creating a box which is ten lattice
# constants in each direction.
lattice fcc 1.0 spacing 1 1 1                 # All equal sizes - gives the right reduced density.
Lattice spacing in x,y,z = 1.5874011 1.5874011 1.5874011

region box block 0 10 0 10 0 10 units lattice # Defines a region, "box", in lattice units
create_box 1 box                              # Creates a simulation box as specified above,
Created orthogonal box = (0.0000000 0.0000000 0.0000000) to (15.874011 15.874011 15.874011)
  4 by 4 by 4 MPI processor grid
                                              # with one type of atom
create_atoms 1 box                            # Creates particles on lattice points
Created 4000 atoms
  using lattice units in orthogonal box = (0.0000000 0.0000000 0.0000000) to (15.874011 15.874011 15.874011)
  create_atoms CPU = 0.002 seconds


# Set the mass of the first (and only) atom type.
mass 1 1.0

# Lennard-Jones interactions between particles, 3.5 sigma cut-off. Apply
# long range tail corrections to energy and pressure and set all coefficients
# to unity since we work in reduced units here. Note that this doesn't shift
# the potential such that it goes to zero at the cutoff. That would require
# pair_modify('shift', 'yes').
pair_style lj/cut  3.5      # non-GPU version
pair_modify tail  yes
pair_coeff 1  1  1.0  1.0   # Intearaction between 1 and 1 set with epsilon = 1 and sigma = 1

write_data data.*
System init for write_data ...
Neighbor list info ...
  update every 1 steps, delay 10 steps, check yes
  max neighbors/atom: 2000, page size: 100000
  master list distance cutoff = 3.8
  ghost atom cutoff = 3.8
  binsize = 1.9, bins = 9 9 9
  1 neighbor lists, perpetual/occasional/extra = 1 0 0
  (1) pair lj/cut, perpetual
      attributes: half, newton on
      pair build: half/bin/atomonly/newton
      stencil: half/bin/3d
      bin: standard

#############################
#   M E L T   S Y S T E M   #
#############################

velocity all create 2.4 5300450 mom yes dist gaussian # Assign velocities
                                                    # Temperature 2.4, random number seed, zero linear momentum
						                                                        # Gaussian distribution

timestep 0.002   # simulation timestep
thermo 100       # output thermodynamic data every 100 steps

# Define a fix  in this case with index 1 applied to all
# particles in the simulation. This fix is for simulations
# in the anisotropic NPT ensemble. Note that we use the MTK
# correction.
fix 1 all npt temp 2.4 2.4 0.1 iso 5.68 5.68 0.5 mtk yes tchain 5 pchain 5 # Use NPT ensemble
                                                                         # Set temperature and pressure and damping
                                                                         # Numbers of thermostats in chain and in barostat
run 1000         # run for 10000 steps
Per MPI rank memory allocation (min/avg/max) = 3.630 | 3.630 | 3.630 Mbytes
Step Temp E_pair E_mol TotEng Press Volume 
       0          2.4   -8.3859253            0   -4.7868253   -2.2405722         4000 
     100    1.2568457    -6.520638            0   -4.6358408    5.4054415    4090.5418 
     200    1.4749962   -6.3123998            0   -4.1004586    5.9706789    4139.2832 
     300    1.6124068   -6.0569481            0   -3.6389426    5.7397492    4264.5301 
     400    1.7168752   -5.7431758            0   -3.1685069    5.9205944    4390.8204 
     500    1.7900089   -5.4300953            0   -2.7457532    5.8244207    4548.9907 
     600    1.8749878   -5.1356604            0   -2.3238818    5.7834378    4705.6354 
     700    1.9882515   -4.8678934            0   -1.8862617    5.9915018     4837.506 
     800    2.1327811   -4.6988753            0   -1.5005035    5.7798366    4974.3967 
     900    2.2952123   -4.5871705            0   -1.1452128    5.7568633    5062.5276 
    1000    2.3419515   -4.4435081            0  -0.93145903    5.7034406     5160.776 
Loop time of 0.199329 on 64 procs for 1000 steps with 4000 atoms

Performance: 866908.649 tau/day, 5016.832 timesteps/s
99.7% CPU use with 64 MPI tasks x no OpenMP threads

MPI task timing breakdown:
Section |  min time  |  avg time  |  max time  |%varavg| %total
---------------------------------------------------------------
Pair    | 0.058792   | 0.062759   | 0.067098   |   0.8 | 31.49
Neigh   | 0.013966   | 0.014657   | 0.015511   |   0.3 |  7.35
Comm    | 0.087249   | 0.092482   | 0.096761   |   0.7 | 46.40
Output  | 0.0002881  | 0.00030661 | 0.00054257 |   0.0 |  0.15
Modify  | 0.024725   | 0.027272   | 0.029424   |   0.7 | 13.68
Other   |            | 0.001852   |            |       |  0.93

Nlocal:        62.5000 ave          69 max          56 min
Histogram: 7 2 3 12 7 7 13 5 2 6
Nghost:        1253.14 ave        1273 max        1234 min
Histogram: 2 7 6 8 11 5 9 8 7 1
Neighs:        5540.11 ave        6253 max        4768 min
Histogram: 2 5 5 12 10 8 5 5 7 5

Total # of neighbors = 354567
Ave neighs/atom = 88.641750
Neighbor list builds = 87
Dangerous builds = 24

# Equilibrate just above the melting temperature to avoid step fn in T

fix 1 all npt temp 1.25 1.25 0.1 iso 5.68 5.68 0.5 mtk yes tchain 5 pchain 5
run 1000
Per MPI rank memory allocation (min/avg/max) = 3.631 | 3.631 | 3.631 Mbytes
Step Temp E_pair E_mol TotEng Press Volume 
    1000    2.3419515   -4.4435081            0  -0.93145903    5.7034406     5160.776 
    1100    1.9505664   -4.6860744            0   -1.7609562    5.6875043    4990.5455 
    1200    1.7145364   -4.9478458            0   -2.3766842    5.6803952    4813.9806 
    1300    1.5789627   -5.2178493            0   -2.8499973     5.626771    4671.2595 
    1400     1.466042   -5.4083802            0    -3.209867    5.7430009    4553.7478 
    1500    1.3483489   -5.5238765            0   -3.5018588    5.7608991    4484.5069 
    1600    1.3065005   -5.6674797            0   -3.7082189    5.6719356    4427.5375 
    1700    1.2613667   -5.7293973            0   -3.8378202     5.676448    4393.2208 
    1800    1.2706154   -5.8058844            0   -3.9004378    5.6537836    4362.5534 
    1900    1.2416506   -5.8085169            0   -3.9465067    5.6540218    4357.9646 
    2000    1.2530204     -5.85012            0   -3.9710592    5.4158949    4363.6997 
Loop time of 0.19186 on 64 procs for 1000 steps with 4000 atoms

Performance: 900658.346 tau/day, 5212.143 timesteps/s
100.0% CPU use with 64 MPI tasks x no OpenMP threads

MPI task timing breakdown:
Section |  min time  |  avg time  |  max time  |%varavg| %total
---------------------------------------------------------------
Pair    | 0.057921   | 0.061769   | 0.065626   |   0.7 | 32.19
Neigh   | 0.011937   | 0.012644   | 0.01342    |   0.3 |  6.59
Comm    | 0.085001   | 0.09044    | 0.095445   |   0.7 | 47.14
Output  | 0.00028306 | 0.00028893 | 0.00032661 |   0.0 |  0.15
Modify  | 0.022576   | 0.024344   | 0.026295   |   0.5 | 12.69
Other   |            | 0.002374   |            |       |  1.24

Nlocal:        62.5000 ave          68 max          53 min
Histogram: 1 1 3 0 5 10 20 8 12 4
Nghost:        1399.92 ave        1420 max        1382 min
Histogram: 6 4 6 9 5 11 12 6 2 3
Neighs:        6535.45 ave        7153 max        5253 min
Histogram: 1 0 2 4 2 9 13 19 7 7

Total # of neighbors = 418269
Ave neighs/atom = 104.56725
Neighbor list builds = 74
Dangerous builds = 4


# Small amount of linear quench

fix 1 all npt temp 1.25 ${temp} 0.1 iso 5.68 5.68 0.5 mtk yes tchain 5 pchain 5
fix 1 all npt temp 1.25 1.13 0.1 iso 5.68 5.68 0.5 mtk yes tchain 5 pchain 5
run 2000
Per MPI rank memory allocation (min/avg/max) = 3.631 | 3.631 | 3.631 Mbytes
Step Temp E_pair E_mol TotEng Press Volume 
    2000    1.2530204     -5.85012            0   -3.9710592    5.4158949    4363.6997 
    2100    1.2147881   -5.8519796            0    -4.030253    5.4511786    4355.1727 
    2200    1.2621155   -5.8628723            0   -3.9701724    5.5771271    4342.4584 
    2300    1.2316502   -5.8764895            0    -4.029476    5.6145025    4330.2998 
    2400    1.2223541   -5.8692369            0   -4.0361641    5.5659474    4339.0299 
    2500    1.2330031   -5.8947176            0   -4.0456752    5.5285158    4334.1459 
    2600    1.2200485   -5.8954318            0   -4.0658165    5.6625569    4319.8115 
    2700    1.1960821   -5.9182603            0   -4.1245858    5.6063275    4316.0041 
    2800    1.2114036   -5.9370809            0   -4.1204297    5.5197457    4314.6488 
    2900    1.2131921   -5.9175685            0   -4.0982353    5.6559933    4308.6068 
    3000    1.1956925   -5.9256065            0   -4.1325162    5.7314846    4297.9656 
    3100    1.1982499   -5.9370926            0    -4.140167    5.6898633    4299.5944 
    3200    1.1587489   -5.9439635            0   -4.2062746    5.7526332    4287.4608 
    3300    1.1494159   -5.9397171            0   -4.2160243    5.7086849    4290.9354 
    3400    1.1859788   -5.9543173            0   -4.1757939    5.6103991    4295.2072 
    3500    1.1561795   -5.9702423            0   -4.2364067      5.58055    4291.7528 
    3600    1.1931006   -5.9681021            0   -4.1788986    5.8983749    4269.7214 
    3700    1.1759773   -5.9769845            0   -4.2134595    5.9505905    4258.7933 
    3800    1.1446646   -5.9968377            0   -4.2802701    5.9696653    4247.3999 
    3900    1.1166544   -6.0182023            0   -4.3436394     5.863603    4246.4078 
    4000     1.152224   -6.0323462            0   -4.3044422    5.7509738     4252.374 
Loop time of 0.402497 on 64 procs for 2000 steps with 4000 atoms

Performance: 858639.527 tau/day, 4968.979 timesteps/s
100.0% CPU use with 64 MPI tasks x no OpenMP threads

MPI task timing breakdown:
Section |  min time  |  avg time  |  max time  |%varavg| %total
---------------------------------------------------------------
Pair    | 0.12466    | 0.13118    | 0.13639    |   0.8 | 32.59
Neigh   | 0.021855   | 0.022756   | 0.023649   |   0.3 |  5.65
Comm    | 0.18435    | 0.18991    | 0.19792    |   0.7 | 47.18
Output  | 0.00056227 | 0.00057266 | 0.00064584 |   0.0 |  0.14
Modify  | 0.048072   | 0.052537   | 0.056517   |   0.8 | 13.05
Other   |            | 0.00554    |            |       |  1.38

Nlocal:        62.5000 ave          71 max          56 min
Histogram: 2 2 13 8 15 11 7 2 2 2
Nghost:        1425.66 ave        1441 max        1401 min
Histogram: 1 3 2 5 7 6 13 11 7 9
Neighs:        6713.72 ave        7855 max        5744 min
Histogram: 1 2 4 19 17 8 10 0 1 2

Total # of neighbors = 429678
Ave neighs/atom = 107.41950
Neighbor list builds = 128
Dangerous builds = 0

#############################
# F R E E Z E  S Y S T E M  #
#############################

# Define solid atoms. This closely follows ten Wolde  Ruiz-Montero and Frenkel  Faraday Discuss  1996  104  93-110
# Compute components of the per-atom q6 vector
compute q6 all orientorder/atom degrees 1 6 components 6 nnn NULL cutoff 1.3 # compute the Q6 parameter.
                                                                             # Use all neighbours within 1.3 unit cell.

# get number of connections
compute coord_number all coord/atom orientorder q6 0.5

# An atom is solid if it has 8 or more connections (of a possible 14)
variable is_solid atom c_coord_number>=8
group solid dynamic all var is_solid    # Must be dynamic to update
dynamic group solid defined

# do clustering
compute cluster solid cluster/atom 1.3 # Create a cluster where all atoms within are solid and max 1.3 units from another member

# define chunks one chunk per cluster
compute clus_chunks solid chunk/atom c_cluster nchunk every compress yes  # Says which atoms are in which chunk

# count the size of each chunk
compute size_chunks solid property/chunk clus_chunks count


# Find the maximum entry in the vector of chunk sizes
variable max_n equal max(c_size_chunks)


# Thermo style which includes this variable
thermo_style custom step temp pe vol v_max_n

thermo ${N}  # Print the thermo information every 100 steps
thermo 100  

# Reset the npt fix at a lower temperature (below freezing)
fix 1  all npt temp  ${temp} ${temp}  0.1  iso  5.68  5.68  0.5  mtk yes tchain  5  pchain  5
fix 1  all npt temp  1.13 ${temp}  0.1  iso  5.68  5.68  0.5  mtk yes tchain  5  pchain  5
fix 1  all npt temp  1.13 1.13  0.1  iso  5.68  5.68  0.5  mtk yes tchain  5  pchain  5

dump dmp2 all dcd ${N} traj_${rand}.dcd
dump dmp2 all dcd 100 traj_${rand}.dcd
dump dmp2 all dcd 100 traj_462431.dcd


# fix rnuntil all halt ${N} v_max_n >= 3980 error soft message no   # Stop when solidified


run 100000 # 5000000  # Run for this many steps
Neighbor list info ...
  update every 1 steps, delay 10 steps, check yes
  max neighbors/atom: 2000, page size: 100000
  master list distance cutoff = 3.8
  ghost atom cutoff = 3.8
  binsize = 1.9, bins = 9 9 9
  4 neighbor lists, perpetual/occasional/extra = 1 3 0
  (1) pair lj/cut, perpetual
      attributes: half, newton on
      pair build: half/bin/atomonly/newton
      stencil: half/bin/3d
      bin: standard
  (2) compute orientorder/atom, occasional
      attributes: full, newton on
      pair build: full/bin/atomonly
      stencil: full/bin/3d
      bin: standard
  (3) compute coord/atom, occasional
      attributes: full, newton on
      pair build: full/bin/atomonly
      stencil: full/bin/3d
      bin: standard
  (4) compute cluster/atom, occasional
      attributes: full, newton on
      pair build: full/bin/atomonly
      stencil: full/bin/3d
      bin: standard
Per MPI rank memory allocation (min/avg/max) = 9.320 | 9.325 | 9.330 Mbytes
Step Temp PotEng Volume v_max_n 
    4000     1.152224   -6.0323462     4252.374            4 
    4100    1.1232731   -6.0401049    4245.7719            4 
    4200    1.1131878   -6.0635633    4247.1688            3 
    4300    1.1078292   -6.0410861    4259.7623            5 
    4400    1.1453906   -6.0723621    4249.6591            9 
    4500     1.123626    -6.059806    4236.5021            2 
    4600    1.1497664   -6.0526226    4242.2926            3 
    4700    1.1408186    -6.049951    4242.8546            5 
    4800     1.130574   -6.0534181    4248.8422            5 
    4900    1.1514825   -6.0529249    4267.8367            5 
    5000    1.1211664    -6.051934    4243.6103            4 
    5100    1.1113397   -6.0309688     4245.096            6 
    5200    1.1469834   -6.0313906    4250.7334           10 
    5300    1.1521574    -6.023594    4240.3367            5 
    5400    1.1383069   -6.0323598    4243.0981            9 
    5500    1.1031189   -6.0218038    4256.5955           12 
    5600    1.1355788   -6.0211673    4272.8036            9 
    5700    1.1225703   -6.0317742     4260.918           10 
    5800    1.1339028   -6.0561602    4250.6423            7 
    5900    1.1220993    -6.045816    4254.7353            4 
    6000    1.1394647   -6.0519647    4252.1362            4 
    6100    1.1187338   -6.0426922    4242.7702            5 
    6200    1.1344878   -6.0223578    4244.6663            6 
    6300    1.1444963    -5.991446    4254.9839            4 
    6400    1.1403424   -6.0136422    4249.7412            3 
    6500    1.1453483   -6.0540361    4237.1986            2 
    6600    1.1041871   -6.0528247    4251.1694            2 
    6700    1.1279703   -6.0557606    4240.9229            5 
    6800    1.1173442    -6.049377    4244.1589            4 
    6900    1.1439436   -6.0448595     4247.935            5 
    7000    1.1354749   -6.0641489    4240.5785            3 
    7100    1.0989421   -6.0730245    4228.0817            4 
    7200    1.1161944   -6.0709287    4251.9617            3 
    7300    1.1437107   -6.0906433     4256.509            5 
    7400    1.1466184   -6.0331781    4262.8386            5 
    7500    1.1342803   -6.0338673    4255.0672            2 
    7600    1.1338836   -6.0825017    4250.1526            5 
    7700    1.1469903   -6.0592497    4251.3023            5 
    7800    1.1327974    -6.027954    4261.5821            2 
    7900    1.0996703   -6.0490845    4250.2993            6 
    8000    1.1358591   -6.0753794    4254.2829            4 
    8100    1.1585312   -6.0807464    4237.0664            4 
    8200    1.1279759   -6.0552951    4252.8936            6 
    8300    1.1072187   -6.0437654    4256.8115            3 
    8400    1.1022575   -6.0496681    4249.0281            5 
    8500     1.147647     -6.09722    4234.6941            4 
    8600    1.1184741   -6.0385607    4240.0042            4 
    8700    1.1467051   -6.0355826    4252.5995            4 
    8800    1.1201753   -6.0471386    4246.1835            3 
    8900    1.1256936   -6.0323518    4240.3108           13 
    9000    1.1480548    -6.025697    4235.0034           12 
    9100    1.1289575   -6.0320785    4235.5129            7 
    9200    1.1131855   -6.0403705    4237.2538           12 
    9300    1.1312512   -6.0380012    4251.9259            7 
    9400    1.1021416   -6.0240952    4274.7396            5 
    9500    1.1429475   -6.0496892    4262.4135            4 
    9600    1.1448553   -6.0649437    4241.7762            5 
    9700    1.1385794    -6.047033    4236.6572            2 
    9800    1.1321526   -6.0126778    4247.7146            7 
    9900    1.1608079   -6.0113857    4267.3393            3 
   10000    1.1326687   -6.0268091    4253.9017            4 
   10100    1.1206893   -6.0546317    4250.8229            4 
   10200    1.1379932   -6.0300962    4256.0215            2 
   10300    1.1235393   -6.0024196    4268.9239            3 
   10400    1.1398662   -6.0399746    4265.4695            3 
   10500    1.1200588   -6.0655138    4254.0386            2 
   10600    1.1201022   -6.0733249    4270.1309            5 
   10700    1.1122809   -6.0180833    4289.0938            8 
   10800    1.1197361   -6.0579145    4266.2747            4 
   10900      1.11178   -6.0335865    4268.8965            2 
   11000    1.1390417   -6.0237071    4250.9268            5 
   11100    1.1378983   -6.0480191    4244.1371            2 
   11200    1.1376294   -6.0657009    4248.9161            4 
   11300    1.1229074   -6.0418956    4255.0114            4 
   11400    1.1284084   -6.0281177    4276.2931            3 
   11500    1.1576483   -6.0297872    4278.5914            7 
   11600    1.1378314   -6.0486999    4244.9975            4 
   11700    1.1185517   -6.0101608    4252.4684            3 
   11800    1.1448633   -6.0320066    4250.9719            3 
   11900    1.1443848   -6.0665347    4240.9317            4 
   12000    1.1031294   -6.0555039    4233.4488            6 
   12100    1.1315171   -6.0486573    4247.6397            5 
   12200    1.1323359   -6.0728525     4251.689            6 
   12300    1.1455788   -6.0492069    4251.3411            3 
   12400    1.1355591    -6.020143    4260.8925            2 
   12500    1.1222957   -6.0489054    4251.1362            7 
   12600    1.1104202   -6.0529425    4252.1442            3 
   12700    1.1240337   -6.0540295    4251.9022            2 
   12800    1.1314818   -6.0063523    4252.5543            7 
   12900    1.1231896   -6.0419824    4257.2798            7 
   13000    1.1436572   -6.0736662    4256.2258            4 
   13100     1.128984   -6.0290307    4263.6228            4 
   13200    1.0986295   -6.0330989    4263.2416            5 
   13300    1.1050495   -6.0480006    4246.1074            3 
   13400    1.1310049   -6.0740486    4232.1634            4 
   13500    1.1380986   -6.0237966    4249.6075            3 
   13600    1.1427182   -6.0246681    4237.6963            3 
   13700     1.135115   -6.0377354    4236.9083            5 
   13800    1.1582677   -6.0101547    4257.7703            5 
   13900    1.1325998   -6.0161966    4251.3724            3 
   14000    1.1280265   -6.0550809    4252.9128            3 
   14100    1.1151593   -6.0407385    4255.5529            3 
   14200     1.121625   -6.0396978    4262.0628            5 
   14300    1.1411653   -6.0414509     4270.763            5 
   14400    1.1269256   -6.0680559    4249.3581            8 
   14500     1.138655   -6.0643025    4248.7495           11 
   14600    1.1692825   -6.0486615    4264.4217            4 
   14700    1.1277607   -6.0076117    4256.4078            5 
   14800     1.127233   -6.0520712     4251.738            2 
   14900    1.1585637   -6.0264381     4250.273            2 
   15000    1.1562494   -6.0117728    4246.9438            5 
   15100    1.1151125    -6.023639    4250.8708           11 
   15200    1.1332408   -6.0374245     4252.517            5 
   15300    1.1289672   -6.0429049    4255.2906            4 
   15400    1.1212626   -6.0616919    4245.0697            4 
   15500     1.135688   -6.0313536    4245.0885            5 
   15600    1.1515059   -6.0048587    4230.9006           10 
   15700    1.1499747   -6.0239612    4228.9894            6 
   15800    1.1226216   -6.0412783    4244.8604            7 
   15900    1.1097886   -6.0733551    4242.9018            4 
   16000    1.1234484    -6.048825    4244.4015            6 
   16100    1.1492056   -6.0540638    4242.8863            7 
   16200    1.1264065   -6.0565147    4229.5013            3 
   16300    1.1342091   -6.0604304    4237.9082            6 
   16400    1.1259552   -6.0374864    4248.1943            6 
   16500    1.1358827   -6.0253335    4254.6658            6 
   16600    1.1184403   -6.0406304    4255.8566           10 
   16700    1.1258257   -6.0555539    4251.7956            4 
   16800    1.1352638    -6.033736    4276.4301            6 
   16900    1.1436011   -6.0148637    4274.6649            6 
   17000    1.1310712   -6.0356586    4250.2249            5 
   17100    1.1166255   -6.0305916    4246.2554            5 
   17200    1.1436387   -6.0205697    4266.4501            5 
   17300    1.1112609   -6.0202457    4258.6412            3 
   17400    1.1231399    -6.063334    4246.7939            9 
   17500    1.1138923   -6.0962122    4237.8811            4 
   17600     1.124435    -6.045794    4262.5817            8 
   17700    1.1412451   -6.0612219    4262.2484            4 
   17800    1.1087367   -6.0641522    4238.2974            2 
   17900    1.1574314    -6.094841    4225.8449            5 
   18000    1.1405203   -6.0345332    4235.0036            8 
   18100    1.1386123   -6.0257444    4244.8507            4 
   18200    1.1011958   -6.0269886     4241.293            6 
   18300    1.1315438   -6.0570819    4243.8662            2 
   18400    1.1260063   -6.0191975     4251.498            4 
   18500     1.137602   -6.0369405    4251.3057            3 
   18600    1.1394505   -6.0504154    4254.8587            3 
   18700    1.1242811    -6.039864    4256.1845            4 
   18800    1.1380353   -6.0633293    4252.7183            5 
   18900    1.1398938    -6.056411    4251.3877            3 
   19000    1.1430949   -6.0199422    4250.9464            3 
   19100    1.1108242   -6.0160816    4249.9115            4 
   19200     1.115756   -6.0047237    4256.3112            3 
   19300    1.1411407   -6.0321371    4254.1602            8 
   19400    1.1262029    -6.031532    4248.4397            5 
   19500    1.1431073   -6.0550209    4245.0342            7 
   19600    1.1441792    -6.071812    4243.1089            3 
   19700    1.1073879   -6.0418845    4249.2458            3 
   19800    1.1328418   -6.0386245    4270.9645            5 
   19900    1.0906655   -6.0322659    4282.3339            6 
   20000    1.1397738   -6.0433546     4263.233            6 
   20100    1.1338335   -6.0455398     4246.677            4 
   20200    1.1250798   -6.0367971    4246.5342            9 
   20300    1.1483672   -6.0377564    4249.5981            2 
   20400    1.1303274   -6.0752939    4242.4564            7 
   20500    1.1186055   -6.0163385    4246.6918            8 
   20600    1.1297901   -6.0272052    4256.2292            8 
   20700    1.1317157   -6.0754983    4236.1007            7 
   20800    1.1270508   -6.0600217    4238.9902            4 
   20900    1.0978616   -6.0037313     4264.706            2 
   21000    1.1241161   -6.0333639    4253.8829            2 
   21100    1.1362926   -6.0333676    4252.2898            2 
   21200    1.1041381   -5.9919912    4249.5999            4 
   21300    1.1482603    -6.037671    4241.2856            4 
   21400    1.1518199    -6.012326    4251.3736            7 
   21500    1.1231647   -6.0009316    4251.3206            3 
   21600    1.1579044   -6.0172413    4238.9457            4 
   21700    1.1261303   -6.0361989    4245.8989            6 
   21800    1.1341535   -6.0124456    4248.7908            3 
   21900    1.1383122   -6.0232508    4265.6256            3 
   22000    1.1151143   -6.0347807    4251.7797           17 
   22100    1.1401111   -6.0741598    4242.7388            4 
   22200    1.1281527   -6.0766627    4232.7997            4 
   22300    1.1465906    -6.042932    4253.8565            3 
   22400    1.1304098   -6.0498273    4251.3695            7 
   22500    1.1333081    -6.070098    4246.1895            6 
   22600    1.0998375   -6.0564703    4260.2897            4 
   22700    1.1277979   -6.0553948    4260.4525            4 
   22800    1.1267944   -6.0351162    4261.2007            5 
   22900    1.1381005   -6.0615535    4254.2638            6 
   23000    1.1219838   -6.0296294    4250.5644            3 
   23100     1.125392    -6.029821    4263.0555            3 
   23200    1.1216556   -6.0010327    4265.0242            2 
   23300    1.1468945   -6.0271944    4253.7545            6 
   23400    1.1298636   -6.0460812    4233.9852            5 
   23500    1.1470227   -6.0394792    4232.9701            2 
   23600    1.1549435   -6.0338911    4239.4163            4 
   23700     1.114253   -6.0338921    4250.0087            5 
   23800    1.1437061   -6.0122957    4255.1789            4 
   23900     1.124668   -6.0420495     4241.033            7 
   24000    1.1309422   -6.0687784    4243.2976            3 
   24100    1.1416648   -6.0374386    4263.5273            3 
   24200    1.1118762   -6.0086805    4261.0284            4 
   24300    1.1172968   -6.0600944    4256.8036            7 
   24400    1.1373393   -6.0442147    4238.8934            3 
   24500    1.1336452   -6.0740722    4209.0379           14 
   24600    1.1355535   -6.0665942    4220.6768            7 
   24700    1.1664736   -6.0923596    4231.3111            5 
   24800    1.1090785   -6.0660246    4242.4824            3 
   24900    1.1143193   -6.0407122    4246.9524            2 
   25000    1.1654837   -6.0597785     4248.258            5 
   25100    1.1331909   -6.0791564    4246.7295            5 
   25200    1.1100589   -6.0496382    4258.8687            7 
   25300    1.1191203    -6.019808    4262.2329            3 
   25400    1.1173392    -6.003518    4265.7123            6 
   25500    1.1520546   -6.0141491    4265.1485            4 
   25600    1.1065107   -6.0087492     4271.252            6 
   25700     1.117823   -6.0224335    4280.4343            3 
   25800    1.1046648   -6.0473446    4265.4077           10 
   25900    1.1234514   -6.0489242    4248.1782            4 
   26000    1.1502496   -6.0267652    4233.5719            5 
   26100    1.1481743   -6.0132819    4242.1355            5 
   26200    1.1404473   -6.0198677     4258.691            3 
   26300    1.1302317   -6.0617659    4262.6256            2 
   26400    1.1292734   -6.0631398    4266.8218            4 
   26500    1.1308316    -6.035084    4256.1501            3 
   26600    1.1389776   -6.0549232    4254.2802            2 
   26700    1.1405802   -6.0073352    4264.3454            6 
   26800     1.152181   -6.0622117    4231.1559            4 
   26900    1.1341906   -6.0459741     4237.671            2 
   27000    1.1265478   -6.0291941     4250.319            4 
   27100    1.1337658   -6.0553488    4252.3794            8 
   27200    1.1177293   -6.0562315    4244.4342            4 
   27300     1.143307   -6.0477243    4253.1869            7 
   27400    1.1405727   -6.0189084    4254.1177            3 
   27500    1.1155885   -6.0521023    4247.5125            8 
   27600    1.1359899   -6.0569921    4254.4902            3 
   27700    1.1497813    -6.031136    4271.2823            6 
   27800    1.1160767   -6.0352322    4246.9648            4 
   27900    1.1211507   -6.0485292    4262.2333            5 
   28000    1.1320734    -6.032679    4273.1703            7 
   28100    1.1086525   -6.0397375    4255.9388            7 
   28200    1.1415636   -6.0524436    4248.0522            8 
   28300    1.1504551   -6.0212165    4238.3793            3 
   28400    1.1437987   -6.0748889    4243.5665            6 
   28500    1.1033677   -6.0760775    4243.3717           11 
   28600    1.1228104   -6.0466749    4243.4392           15 
   28700    1.1347657   -6.0608115     4244.703            4 
   28800    1.1289257   -6.0704514     4242.917            6 
   28900    1.1507913    -6.051599    4256.1236            3 
   29000    1.1306306   -6.0878399    4241.8363            7 
   29100    1.1080923   -6.0669109    4243.0619            4 
   29200    1.1474006   -6.0806861    4259.5082            6 
   29300    1.0969279   -6.0217328    4249.8104            3 
   29400    1.1359951   -6.0363085    4249.9169            5 
   29500    1.1466693   -6.0046429     4274.906            3 
   29600    1.1386503   -6.0070037    4251.0403            3 
   29700    1.1491439   -6.0443172    4242.4973            3 
   29800    1.1345302   -6.0536666    4235.4054            3 
   29900    1.1272991   -5.9998639    4261.3032            7 
   30000    1.1350538   -6.0258473    4261.3241            3 
   30100    1.1219989    -6.055784    4253.5209            6 
   30200    1.1065761   -6.0209004    4247.2888            4 
   30300    1.1437976    -6.024952    4242.7353            8 
   30400    1.1275274   -6.0592922    4234.5729           12 
   30500    1.1385568   -6.0595393    4248.3338            8 
   30600    1.1308114   -6.0772911    4253.9274            4 
   30700    1.1357716   -6.0617906    4272.1656            3 
   30800    1.0982705    -6.010547    4278.1511            2 
   30900    1.1278579    -6.022462    4261.6077            3 
   31000    1.1468536   -6.0442021    4249.2055            2 
   31100    1.1490916   -6.0905502    4253.2885            7 
   31200    1.1211426   -6.0983252    4238.2532            4 
   31300    1.1163629   -6.0506791    4262.3774            3 
   31400     1.147023   -6.0482755    4258.5674            6 
   31500    1.1309232   -6.0701885    4255.1842            3 
   31600    1.0974626   -6.0614453    4244.7957            7 
   31700    1.1272517   -6.0561891     4260.003            3 
   31800    1.1400518   -6.0283892    4259.0422            4 
   31900    1.1121575   -6.0393878     4248.772            3 
   32000     1.141978    -6.042191    4245.0529            3 
   32100    1.1562612   -6.0235284    4244.3679            3 
   32200    1.1391392   -6.0078777    4234.5246            2 
   32300    1.1302091   -6.0356388    4236.3867            5 
   32400    1.1421475   -6.0266387    4257.3316            2 
   32500    1.1241723   -5.9960788    4260.2534            3 
   32600    1.1398423   -6.0500327    4247.4647            6 
   32700    1.1391549   -6.0535463    4244.2496            3 
   32800    1.1123725   -6.0748389    4241.9157            4 
   32900    1.1293401   -6.0664302    4248.0344            7 
   33000    1.1431309    -6.068089    4239.0951            6 
   33100    1.1105721    -6.041723    4232.4179            6 
   33200    1.1417114    -6.028117     4257.442            3 
   33300    1.1141957   -6.0312023    4265.8126            4 
   33400    1.1011217   -6.0597735    4253.9285            7 
   33500    1.1164604   -6.0708877    4257.3177            5 
   33600    1.1431715   -6.0487448    4246.8432            4 
   33700    1.1103649   -6.0326696    4235.4641            4 
   33800    1.1401782    -6.041839    4253.8267            3 
   33900    1.1057231   -6.0088443    4257.5242            4 
   34000    1.1622323    -6.036021    4257.5989            4 
   34100    1.1486832   -6.0546523    4249.7219            4 
   34200    1.1348589   -6.0452333    4243.9459            4 
   34300      1.12177   -6.0373841    4252.2701            4 
   34400    1.1221888   -6.0452791    4247.8168            3 
   34500    1.1453059   -6.0345726    4241.0164            3 
   34600    1.1371622   -6.0120529    4243.6603            4 
   34700    1.1255202   -6.0143794    4242.2594            6 
   34800     1.137841   -6.0250717    4237.4401            9 
   34900    1.1202273   -6.0548698     4241.774            7 
   35000    1.1096025   -6.0796857    4238.5945            4 
   35100    1.1431787   -6.0754763    4237.0361            6 
   35200    1.1384154   -6.0298981    4237.2301            4 
   35300    1.1124522   -6.0339817    4228.9886            4 
   35400    1.1321495   -6.0610027    4240.7374            3 
   35500     1.108025   -6.0506222    4250.2865            5 
   35600    1.1216105   -6.0101787    4251.1701            4 
   35700    1.1493752   -6.0001015    4255.1655            4 
   35800    1.1335609   -6.0328823     4247.814            9 
   35900    1.1258173   -6.0218358    4237.7816            4 
   36000    1.1145104   -6.0316337    4244.9483            5 
   36100    1.1308112   -6.0045742    4260.0789            4 
   36200    1.1218636   -6.0177057    4249.1268            4 
   36300    1.1282418   -6.0393067    4248.6242            2 
   36400    1.1096911   -5.9998412    4266.8848            3 
   36500    1.1437921   -6.0192703    4268.4621           10 
   36600    1.1270643   -6.0346845    4246.8154            3 
   36700    1.1243926   -6.0123651    4246.0371            4 
   36800    1.1336898   -6.0442272    4251.7661            4 
   36900    1.1045087   -6.0238287    4257.7445            4 
   37000    1.1218991   -5.9992664    4277.0026            5 
   37100    1.1153834   -5.9898787    4271.0111            2 
   37200    1.1400763   -6.0607763    4237.7146            4 
   37300    1.1254369   -6.0500972    4249.7005            3 
   37400    1.1177207   -5.9975135    4253.0235            2 
   37500    1.1381977    -5.985841    4256.5018            6 
   37600    1.1467759    -6.054823    4244.4146            3 
   37700    1.1310512   -6.0449727    4253.5844            5 
   37800    1.1195487    -6.028584    4263.3707            7 
   37900    1.1252425   -6.0171513    4259.2651            7 
   38000    1.1363548   -6.0379805    4249.1096           11 
   38100    1.1223652   -6.0278905    4248.3146            6 
   38200    1.1100652   -6.0516298    4243.2642            5 
   38300     1.152336   -6.0493274    4241.4318            2 
   38400    1.1283725   -6.0260392     4251.247            6 
   38500    1.1273646   -6.0007753     4262.256            4 
   38600    1.1185784   -6.0356673     4239.256            3 
   38700    1.1201177   -6.0226018    4247.4404            3 
   38800     1.139194   -6.0204789    4248.4586            3 
   38900    1.1464021   -6.0676305     4247.403            8 
   39000    1.1180869   -6.0533186    4266.1016            5 
   39100    1.1099334   -6.0400928    4273.0992            4 
   39200    1.1311986   -6.0372141    4260.9861            3 
   39300    1.1263897    -6.073021    4245.3016            3 
   39400    1.1483491   -6.0480532    4240.7105            7 
   39500    1.1309561   -6.0357847    4243.0104            8 
   39600    1.1478396   -6.0221137    4259.8482           10 
   39700    1.1339359   -6.0552364     4241.055            4 
   39800    1.1285492   -6.1037525    4244.1984            8 
   39900    1.1207793   -6.0645682    4249.9025            3 
   40000    1.1448094   -6.0680978    4265.3644            5 
   40100    1.1179144   -6.0455618    4255.1729            2 
   40200    1.1151336   -6.0712504    4254.2334            6 
   40300     1.138704   -6.0560115    4256.4965            4 
   40400    1.1210975   -6.0336493    4245.8608            3 
   40500    1.1218173    -6.050037    4236.3332            4 
   40600    1.1405366   -6.0466167    4243.2801            5 
   40700    1.1059842   -6.0235986    4262.8653            9 
   40800    1.1472068   -6.0489173    4253.6085            3 
   40900    1.1206529   -6.0522347    4235.4267            2 
   41000    1.1484915   -6.0494092    4239.1607            4 
   41100    1.1341387   -6.0247302    4249.8256            4 
   41200    1.1309841   -6.0297463    4258.7154            5 
   41300    1.1042093   -6.0405265    4246.9744            2 
   41400    1.1239189   -6.0321987      4258.58            6 
   41500    1.1339586   -6.0255865    4261.5424            3 
   41600    1.0903294   -6.0373995    4259.9217            4 
   41700    1.1438476   -6.0678117    4249.5094            5 
   41800    1.1375026   -6.0322654    4248.6368            4 
   41900    1.1386738   -6.0451972    4231.2996            2 
   42000    1.1353634   -6.0106886    4223.5398            2 
   42100    1.1471155   -6.0285287    4250.6201            3 
   42200    1.1214687   -6.0368376    4261.5537            2 
   42300    1.1340029   -6.0602147    4258.8953            4 
   42400    1.1153385   -6.0270592    4259.8786            9 
   42500    1.1185974   -6.0081349    4260.9707            4 
   42600    1.1517534   -6.0168588    4258.0261            3 
   42700    1.1334828   -6.0142515    4255.2334            2 
   42800    1.1261795   -6.0500051    4255.5833            7 
   42900    1.1140184   -6.0734802    4250.8031            6 
   43000    1.1089822   -6.0914664     4255.879            5 
   43100    1.1446731   -6.0788301    4263.1254            4 
   43200    1.1266723   -6.0210131    4265.9847            2 
   43300    1.1421101   -6.0224134    4277.8867            3 
   43400    1.1384527   -6.0417019    4257.7696            3 
   43500    1.1216462    -6.060907    4253.6017            4 
   43600    1.1246823   -6.0506293    4248.7666            5 
   43700    1.1271624   -6.0132781    4259.8158            4 
   43800    1.1401914   -6.0041259    4264.4304            4 
   43900     1.125861   -6.0497169    4254.8372            6 
   44000    1.1115405   -6.0631755    4262.2917            6 
   44100     1.128782    -6.054799    4267.0522            8 
   44200    1.1407674   -6.0461584    4264.1516            8 
   44300    1.1176331   -6.0378737    4271.9836            4 
   44400    1.1214324   -6.0301236    4268.7878            4 
   44500    1.1323705   -6.0035634    4282.4529            5 
   44600    1.1573727   -5.9762062    4285.7395            4 
   44700    1.1411976   -5.9992606    4269.9219            3 
   44800    1.1292471   -6.0053605    4263.3634            3 
   44900    1.1173857   -6.0447385    4243.2525            2 
   45000    1.1290748   -6.0553638    4255.5488            4 
   45100    1.1286707   -6.0471307    4268.6599            7 
   45200    1.1020768   -6.0287898    4276.8774            7 
   45300    1.1290212   -6.0411167    4264.9379            4 
   45400    1.1322885    -6.055262     4252.845            3 
   45500    1.1219349   -6.0447106    4256.6381            4 
   45600    1.1338571   -6.0155657    4271.7435            4 
   45700    1.1314167   -6.0248511    4252.7102            5 
   45800    1.1349203    -6.028888    4242.7541            3 
   45900    1.1339575   -6.0125309     4246.116            7 
   46000    1.1285214    -5.971502    4258.3448            6 
   46100    1.1223251   -6.0258421    4247.0655            5 
   46200    1.1100869   -6.0188049     4255.605            5 
   46300    1.1331737   -6.0563265    4259.5002            2 
   46400    1.1195879   -6.0497167    4248.8783            5 
   46500    1.1363908   -6.0389261    4243.2612            3 
   46600    1.1479194   -6.0557256    4242.5921            3 
   46700    1.1350252   -6.0697817    4232.2221            2 
   46800    1.1180249   -6.0208549    4243.1816            3 
   46900    1.1379097   -6.0237105    4252.2552            4 
   47000    1.1364947   -6.0184587    4236.0481            3 
   47100    1.1273868   -6.0307412    4238.0002            5 
   47200    1.1383004     -6.00943    4258.7784            5 
   47300    1.1251509   -6.0214348    4264.9709            5 
   47400    1.1392192   -6.0714455    4241.9497            8 
   47500    1.1089113   -6.0427908    4241.1309            8 
   47600    1.1336504   -6.0145796     4255.122            9 
   47700    1.1486145   -6.0374517    4248.3136            5 
   47800    1.1200384   -6.0001802    4247.0247            2 
   47900    1.1354387   -6.0282506    4264.0441            4 
   48000    1.1272078   -6.0280471    4270.1029            3 
   48100    1.1302275   -6.0447223    4259.8384            4 
   48200    1.1367715   -6.0493721    4254.0194            8 
   48300    1.1099124   -6.0594441    4242.0624            2 
   48400    1.1371432   -6.0551721    4251.9493            2 
   48500    1.1284402   -6.0238985    4255.1374            6 
   48600    1.1190298   -6.0400003    4244.5893            5 
   48700    1.1128036   -6.0515364    4252.3087            2 
   48800    1.1452053   -6.0474291    4247.5018            5 
   48900    1.1512828   -6.0539594    4243.3548            6 
   49000    1.1267555   -6.0670749    4246.5062            3 
   49100    1.1350593   -6.0368149    4262.4727            6 
   49200    1.1360088   -6.0382808    4269.0094            5 
   49300    1.1111866   -6.0562295    4253.9377            4 
   49400    1.1330546   -6.0454151    4257.1022            6 
   49500     1.109118   -6.0145599    4265.5976            3 
   49600    1.1250608   -6.0183093     4250.975            3 
   49700    1.1525181   -6.0396394    4236.6255           11 
   49800    1.1526266    -5.999746    4261.3485            3 
   49900    1.1290515   -6.0174649     4248.825            6 
   50000    1.1210869   -6.0444878    4243.4073            5 
   50100     1.141812   -6.0763271    4241.4286            4 
   50200    1.1002144   -6.0511783    4242.9286            6 
   50300    1.1365908   -6.0561123      4247.65            5 
   50400    1.1441698   -6.0311671    4252.6139            3 
   50500    1.1336088   -6.0283327     4257.484            4 
   50600    1.1240511   -6.0291122    4245.7991            4 
   50700    1.1413518   -6.0264446    4245.0175            3 
   50800    1.1078556   -6.0350619    4254.6909            4 
   50900    1.1326213   -6.0412645    4257.0761            7 
   51000    1.1169542   -6.0387663    4271.8833            4 
   51100    1.1258792   -6.0331179    4263.2936            8 
   51200     1.115944   -6.0096295    4252.8652            5 
   51300    1.1419905   -6.0143742    4243.2565            5 
   51400    1.1215096    -6.011426     4239.685            2 
   51500    1.1517807   -6.0098377    4257.3974            6 
   51600     1.147752   -6.0044036    4267.9676            4 
   51700    1.1232653   -6.0249772    4251.6388            4 
   51800    1.1329608   -6.0414633    4253.0363            4 
   51900    1.1403555   -6.0114913    4279.6195            4 
   52000    1.1136087     -6.01002    4269.2812            2 
   52100    1.1147205   -6.0383212    4265.9722            3 
   52200    1.1146834   -6.0310326    4256.3597            3 
   52300    1.1316474   -6.0237486    4250.8379            5 
   52400     1.137959   -5.9889257    4249.5433            2 
   52500     1.119944   -6.0082435    4252.2775            4 
   52600    1.1494778    -6.016275      4258.75            2 
   52700    1.1201472   -6.0227254     4270.237            1 
   52800    1.1400832   -6.0554203    4279.2023            4 
   52900    1.1072814   -6.0424051    4269.9484            5 
   53000     1.126588   -6.0468144    4258.1805            8 
   53100    1.1516514   -6.0264015    4267.5761            7 
   53200    1.1389463     -6.04505    4244.8315            2 
   53300    1.1449445   -6.0672777    4241.3328            3 
   53400    1.1190733   -6.0015095    4249.2586            5 
   53500    1.1111155   -5.9889568    4258.8535            2 
   53600    1.1435297   -5.9968349    4253.5591            3 
   53700    1.1348341   -6.0081782    4259.6096            3 
   53800    1.1085296   -6.0264431    4252.4443            3 
   53900    1.1131682   -6.0343842    4246.9901            2 
   54000    1.1133435   -6.0298883    4246.2592            3 
   54100    1.1478699    -6.019397    4257.8938            3 
   54200    1.1299331   -6.0461716    4257.6535            2 
   54300    1.1256055   -6.0614971    4252.1423            4 
   54400    1.1360058   -6.0341422    4269.7329            6 
   54500    1.1419722   -6.0326171    4272.4105            6 
   54600    1.1413815   -6.0962509    4259.1579            5 
   54700    1.1300037   -6.0451698    4257.5256            5 
   54800    1.1265302   -5.9960812    4278.6626            7 
   54900    1.1634539   -5.9933119    4282.2534            4 
   55000    1.1410305    -6.028878    4258.2265            9 
   55100    1.1315097   -6.0354176    4241.4963            9 
   55200     1.132697   -6.0315961    4247.1276            9 
   55300    1.1344033   -6.0284237    4250.5894            3 
   55400    1.1199608   -6.0397521    4258.1189            6 
   55500    1.1229214   -6.0308933    4264.3571            3 
   55600    1.1471906   -6.0326111    4266.8777            4 
   55700    1.1276609   -6.0600887    4266.4349            4 
   55800    1.0936914   -6.0525264     4255.658            3 
   55900    1.1122438   -6.0464852    4259.5126            2 
   56000     1.140778   -6.0402729    4259.8158            4 
   56100    1.1222775   -6.0505869    4246.0965            5 
   56200    1.1113736     -6.04154    4230.3958            3 
   56300    1.1416381   -6.0360853    4242.0665            3 
   56400    1.1200417   -6.0206393    4255.2864            4 
   56500    1.1428459   -6.0220666    4253.9319            2 
   56600    1.1274169   -6.0440117    4241.8731            7 
   56700    1.1390729   -6.0644073    4239.8813            4 
   56800    1.1278618   -6.0237973    4260.4179            5 
   56900    1.1510861   -6.0274513    4273.4187           13 
   57000    1.1200774   -6.0349121    4248.5225            5 
   57100    1.1221898   -6.0404239    4250.6448            5 
   57200    1.1401381   -6.0231933    4273.6768            2 
   57300    1.1095166   -6.0134585    4284.9411            4 
   57400    1.0991297    -6.024921    4265.6854            3 
   57500     1.156112    -6.034338     4255.135            5 
   57600    1.1310869   -6.0206906    4251.5958            3 
   57700    1.1239301   -6.0368243    4244.3474            5 
   57800    1.1417295   -6.0425103    4239.0888            7 
   57900     1.133419   -6.0417482    4257.2346            4 
   58000    1.1394114   -6.0133133    4263.3446            7 
   58100    1.1238978   -6.0405352    4254.4705            2 
   58200    1.1079199   -6.0493499    4270.1594            4 
   58300    1.1402962   -6.0455494    4265.7017            5 
   58400    1.1307775   -6.0289868    4259.7625            8 
   58500    1.1166593   -6.0428639    4249.9153            3 
   58600    1.1323046   -6.0538639     4251.907            5 
   58700    1.1540815   -6.0281453     4260.363            3 
   58800    1.1341706   -6.0504541    4248.1133            2 
   58900    1.1279202   -6.0485865    4248.9185            6 
   59000     1.125105   -6.0499469    4259.0794            2 
   59100    1.1659594        -6.05    4284.2996            5 
   59200    1.1532394   -6.0543566    4267.6585            3 
   59300    1.0945337   -6.0255963    4269.5773            3 
   59400    1.1389551     -6.03517    4258.8397            3 
   59500    1.1282335    -6.021995    4250.6381            4 
   59600    1.1127356   -6.0476308    4239.9835            3 
   59700     1.151373   -6.0476375    4250.9743            3 
   59800    1.1226668   -6.0343467    4258.0419            4 
   59900    1.1801935   -6.0440121    4269.6086            3 
   60000    1.1276333   -6.0322601    4275.0453            4 
   60100    1.1206305   -6.0626345    4267.4039            3 
   60200    1.1274152   -6.0581771    4256.0144            3 
   60300    1.1173483    -6.052219    4243.2785            7 
   60400    1.1271201   -6.0421087    4243.5207            7 
   60500    1.1265084   -6.0201085    4246.2825            4 
   60600    1.1426553   -6.0159146    4256.2353            2 
   60700    1.1348277   -6.0195101    4260.5067            6 
   60800    1.1172891   -6.0318198    4242.7692            2 
   60900    1.1371204   -6.0283957    4248.4428            3 
   61000    1.1295077   -6.0150692    4249.5743            3 
   61100    1.1235345   -6.0296133    4247.7221            2 
   61200    1.1308581   -6.0371701    4244.5932            3 
   61300    1.1351464    -6.037998    4243.4113            6 
   61400    1.1184875   -6.0194914    4248.7942           10 
   61500    1.1424449   -6.0026366    4246.0475            3 
   61600    1.1414756   -6.0716258    4235.0943            5 
   61700    1.1079499   -6.0725802    4244.0519            7 
   61800     1.121852   -6.0447339    4256.9165            4 
   61900    1.1374159    -6.037913    4257.6174            1 
   62000    1.1372402   -6.0546907    4246.9281            3 
   62100    1.1207883   -6.0686183    4237.8611            4 
   62200    1.1156897   -6.0251119    4255.6143            4 
   62300    1.1466786   -6.0379548    4255.4182            5 
   62400    1.1430388   -6.0938651    4242.3067            3 
   62500    1.1083187   -6.0605011    4251.1553            2 
   62600    1.1216751   -6.0534712    4251.6355            4 
   62700    1.1461724   -6.0500096    4236.3393            6 
   62800     1.102952   -6.0358524    4233.9234            6 
   62900    1.1399233    -6.038998    4242.5851            8 
   63000    1.1237541   -6.0381989    4247.7523            3 
   63100    1.1396262   -6.0365041    4260.6494            5 
   63200    1.1496195   -6.0558728    4261.8465            2 
   63300      1.10275   -6.0542618    4258.4106            5 
   63400    1.1313069   -6.0608746    4267.0565            3 
   63500    1.1593205   -6.0423754    4266.4035            3 
   63600    1.1276766   -6.0454719     4257.496            5 
   63700    1.1506166   -6.0331118    4236.5302            3 
   63800    1.1321688   -6.0192885    4243.8714            3 
   63900    1.1261882   -6.0437633    4258.5171            2 
   64000     1.109326   -6.0129496    4255.1723            3 
   64100    1.1450081   -6.0325619    4257.7779            3 
   64200    1.1319423   -6.0663511    4230.4126            4 
   64300     1.139004   -6.0541492    4225.2532            6 
   64400    1.1227903   -6.0355452     4249.993            3 
   64500    1.1334362   -6.0401931    4259.3108            3 
   64600    1.1128345   -6.0534522    4250.9752            6 
   64700    1.1145681   -6.0337472    4248.6513            5 
   64800    1.1530478   -6.0303775    4239.2381            4 
   64900    1.1408575   -6.0536378    4244.4324            4 
   65000    1.1263371   -6.0821021    4249.9842           11 
   65100    1.1222867   -6.0990836    4250.0076            4 
   65200    1.1228517   -6.0519967    4265.8375            5 
   65300    1.1171541   -6.0438741    4265.2998            4 
   65400    1.1083332   -6.0339953     4253.795            4 
   65500     1.146232   -6.0265478    4262.4548            4 
   65600     1.123261   -6.0244482    4249.3739            4 
   65700    1.1269418   -6.0611409    4233.3616            7 
   65800    1.1021013   -6.0965305    4222.4684            2 
   65900    1.1336635   -6.1000334    4232.7133            1 
   66000    1.1126788   -6.0434677    4237.8073            4 
   66100    1.1380521   -6.0352565    4259.2392            4 
   66200    1.1453173   -6.0553031    4248.5312            5 
   66300    1.1229003    -6.064742    4255.8206            3 
   66400    1.1315715   -6.0500815    4251.8421            6 
   66500    1.1317219   -6.0835141    4234.9073            4 
   66600     1.127584   -6.0832548    4219.4601            4 
   66700    1.1379823    -6.034438    4236.7775            4 
   66800    1.1299046   -6.0326966    4235.2046            7 
   66900    1.0974818   -6.0205297    4246.6593            2 
   67000    1.1377827   -6.0269456    4262.7852            9 
   67100    1.1397356   -6.0587386    4262.2403            8 
   67200    1.1204065   -6.0827751    4244.9983           10 
   67300    1.1266722   -6.0346049    4249.9748            5 
   67400    1.1278041   -6.0453681    4246.5189            6 
   67500    1.1185001    -6.080592    4223.6839            5 
   67600    1.1374204   -6.0555078    4233.4317            7 
   67700    1.1434468   -6.0460704    4236.8499            5 
   67800    1.1280861   -6.0732716    4242.3557            6 
   67900    1.1131183   -6.0968596    4257.5704            4 
   68000    1.1233194   -6.0535451    4272.8173            5 
   68100    1.1520696   -6.0266725     4261.716            6 
   68200    1.1310505    -6.059651    4246.3964            6 
   68300    1.1253162   -6.0726757    4249.5016            3 
   68400    1.1322567   -6.0360055    4265.3708            3 
   68500    1.1240827   -6.0187573    4263.2815            2 
   68600     1.134925   -6.0515458    4245.8344            4 
   68700    1.1341589   -6.0319057    4234.9343            1 
   68800     1.127087   -6.0700952    4221.5657            5 
   68900    1.1041329    -6.062666    4229.4058            5 
   69000    1.1309031   -6.0532822    4250.2393            4 
   69100    1.1033888    -6.046489    4236.0315            8 
   69200     1.122759   -6.0451117     4243.699            3 
   69300    1.1471155    -6.040116    4245.6059            4 
   69400    1.1596023   -6.0344884    4239.4446            6 
   69500    1.1278228   -6.0011664    4258.5692            4 
   69600    1.1476923   -5.9893339    4277.3196            4 
   69700    1.1252854   -6.0064352    4272.4478            3 
   69800    1.1215152   -6.0363721    4259.4558            3 
   69900    1.1177486   -6.0417195    4242.2637            5 
   70000    1.1284034   -6.0273774    4253.3998            4 
   70100    1.1112513   -6.0049612    4256.4583           11 
   70200      1.11147   -6.0578121      4245.65            3 
   70300    1.1413679   -6.0459354    4247.8732            6 
   70400    1.1441386    -6.054201    4242.6337           11 
   70500    1.1511125   -6.0467913     4242.937            4 
   70600    1.1431154   -6.0291776    4249.7322            7 
   70700     1.114427   -6.0295553    4245.9932            3 
   70800     1.101735   -6.0522322    4236.6415            7 
   70900    1.1356473   -6.0425847     4248.509            5 
   71000    1.1295356   -6.0522631    4258.5779            4 
   71100    1.1436655    -6.065692    4255.3912            9 
   71200    1.1054331   -6.0425582     4251.084            4 
   71300    1.1141119   -6.0443906    4247.6719            6 
   71400    1.1516998   -6.0539836    4260.9404            7 
   71500    1.1268637   -6.0452382    4255.2214            5 
   71600    1.1235609   -6.0775106     4245.949            3 
   71700    1.1257789   -6.0582747    4257.0418            4 
   71800    1.1310243   -6.0561568    4269.9089            3 
   71900    1.1047487   -6.0432613      4287.21            5 
   72000    1.1294482   -6.0580828     4266.462            5 
   72100    1.1354667   -6.0577817    4252.5313            5 
   72200    1.1400632   -6.0290492    4246.5478           12 
   72300      1.12713   -6.0354063    4246.4906            4 
   72400    1.1401883   -5.9995655    4258.2469            6 
   72500    1.1477239   -6.0172413    4250.4158            4 
   72600    1.1338925   -6.0412287    4259.3131            8 
   72700     1.147413   -6.0473995     4263.614            7 
   72800    1.1292213   -6.0539119    4257.2704            4 
   72900    1.1330737   -6.0498463    4253.8692            4 
   73000    1.1354676   -6.0062073    4270.4372            3 
   73100    1.1173894   -6.0341924    4270.8991            4 
   73200    1.1114048   -6.0291388    4263.7599            4 
   73300    1.1549927   -6.0203862    4257.4778            3 
   73400    1.1210664   -6.0134654    4253.4397            4 
   73500      1.13308    -6.028115     4242.144            3 
   73600    1.1421629   -6.0840532    4229.2535            4 
   73700    1.1123129   -6.0744554    4239.4816            4 
   73800    1.1160895   -6.0474428    4247.5575            2 
   73900    1.1404257   -6.0499915    4250.6901            9 
   74000     1.143562   -6.0580509    4259.1335            5 
   74100    1.1223705   -6.0730051    4241.6604            3 
   74200    1.1553797   -6.0785356    4247.8277            4 
   74300    1.1297386   -6.0570203    4244.2441            4 
   74400    1.1149634   -6.0577999    4231.7939            4 
   74500    1.1153393   -6.0804367    4233.3944            6 
   74600    1.1264523   -6.0730822    4263.4375            6 
   74700    1.1123937   -6.0374634    4269.1787            3 
   74800     1.130026   -6.0227063    4270.0213            6 
   74900    1.1182195   -6.0490729    4249.5757            4 
   75000    1.1466484    -6.031257    4253.1144            3 
   75100    1.1489486   -6.0555363    4252.6499            2 
   75200    1.1408483   -6.0670088    4250.1228            7 
   75300    1.1353207   -6.0445065    4255.0998            5 
   75400     1.146447    -6.019353    4270.5655            5 
   75500    1.1458599   -6.0239212     4266.134            3 
   75600    1.1292965    -6.042978    4250.9947            3 
   75700    1.1166737   -6.0626903    4259.4683            9 
   75800    1.1335147   -6.0239516    4266.2552            3 
   75900    1.1173705   -6.0488399    4267.3631            3 
   76000    1.1300082   -5.9952814    4266.9226            3 
   76100    1.1300063   -6.0359553    4253.4285            3 
   76200    1.1457308   -6.0469376    4244.9475            3 
   76300    1.1342305   -6.0570758    4242.9892            5 
   76400    1.1399648   -6.0677413    4234.0023            4 
   76500     1.132509   -6.0238327    4243.3262            4 
   76600    1.1498397   -6.0341136    4265.3391            3 
   76700    1.1288587   -6.0194352    4279.8114            5 
   76800    1.0968656   -6.0255334     4262.567            4 
   76900    1.1481759   -6.0421644    4257.2916            5 
   77000    1.1298902   -6.0563981    4254.5671            4 
   77100    1.1454159   -6.0307078    4261.4729            4 
   77200    1.1262955   -6.0285107    4258.8342            4 
   77300    1.1304412   -6.0412716    4256.5437            5 
   77400    1.1206159   -6.0271262    4258.7251            5 
   77500    1.1530895   -6.0336835    4260.1393            3 
   77600    1.1356541   -6.0473596    4253.4171            3 
   77700    1.1243491   -6.0651259    4244.7233            6 
   77800    1.1159062   -6.0174961    4250.3243            4 
   77900    1.1505488   -6.0129086     4249.623            6 
   78000    1.1042689   -6.0031009    4241.1797            3 
   78100    1.1398426   -6.0297829    4243.9401            4 
   78200    1.1210837   -6.0390961    4239.6688            3 
   78300    1.1524324   -6.0443216    4246.9859            5 
   78400    1.1367809   -6.0527973    4257.4915            5 
   78500    1.0914486   -6.0550043    4255.9062            4 
   78600    1.1291887   -6.0615951    4250.1246            2 
   78700    1.1376578   -6.0273265     4255.594            4 
   78800    1.1298258   -5.9983044    4265.5039            4 
   78900    1.1218783   -6.0196945    4238.1777            7 
   79000    1.1661093   -6.0470576    4235.0927            3 
   79100    1.1557012   -6.0171118    4245.3047            4 
   79200    1.1147315   -6.0172567    4261.6086            2 
   79300    1.1511974   -6.0317536    4266.1741            7 
   79400    1.1257378   -6.0054732    4271.3291            1 
   79500    1.1190779   -6.0408751     4257.159            3 
   79600    1.1432209   -6.0073763    4259.4586            4 
   79700    1.1438127   -5.9921731    4259.1794            5 
   79800    1.1299929   -6.0261384    4257.8789            3 
   79900    1.1333329   -6.0417188    4258.4604            3 
   80000    1.1154947   -6.0318909    4249.5452            4 
   80100    1.1358811   -6.0673666    4249.6284            5 
   80200    1.1313123   -6.0182783    4258.0722            9 
   80300    1.1180146   -6.0261043    4260.7231            9 
   80400    1.0992396   -6.0483786      4260.47            5 
   80500    1.1279301   -6.0444913     4253.705            4 
   80600    1.1284099   -6.0467135     4250.872           10 
   80700    1.1442494    -6.060445    4249.0268            5 
   80800    1.1128015   -6.0442535    4262.1886            3 
   80900    1.1550009   -6.0615919    4250.5035            3 
   81000    1.1399036   -6.0089199    4259.2043            2 
   81100    1.1279242   -6.0414742    4241.6636            5 
   81200     1.138889   -6.0306369     4243.742            4 
   81300    1.1284358   -6.0134552    4259.3535            8 
   81400    1.1207825    -6.045215    4256.4486            3 
   81500    1.1296261   -6.0362675    4252.3498            4 
   81600    1.1385021   -6.0065087     4274.508            3 
   81700    1.1204003   -6.0271214    4278.9853            5 
   81800    1.1272881   -6.0458655    4265.3588            2 
   81900    1.1481681   -6.0838843    4251.7423            6 
   82000    1.1550753    -6.087356    4238.6806            8 
   82100     1.120821   -6.0623896    4244.3485            3 
   82200    1.1467648   -6.0693294    4255.7134            5 
   82300    1.1296051   -6.0262709    4275.7985            6 
   82400    1.1467165   -6.0241698    4281.3165            5 
   82500    1.1295544   -6.0535405    4260.9279            5 
   82600    1.1152927   -6.0317681    4249.9272            5 
   82700    1.1307658   -6.0173314    4247.6357            3 
   82800    1.1356761   -6.0280732    4241.8459            5 
   82900    1.1277289   -6.0429128    4238.5478            4 
   83000    1.1362478   -6.0282369     4252.285            4 
   83100    1.1375935   -6.0480408    4254.0726            6 
   83200    1.1238449   -6.0390277    4250.2058            5 
   83300    1.1267439   -6.0723004    4238.2279            3 
   83400    1.1327898   -6.0844744    4239.5048            3 
   83500    1.1385258   -6.0496623    4249.5414            5 
   83600    1.1309418   -6.0401267    4247.3282           10 
   83700     1.133825   -6.0504034    4253.4553            5 
   83800    1.1248314   -6.0453626    4266.8141            5 
   83900    1.0907697   -6.0573917    4245.2242            4 
   84000    1.1169177   -6.0435205    4242.7698            4 
   84100    1.1479935   -6.0327233    4254.2693            4 
   84200    1.1485145   -5.9983167    4264.6378            6 
   84300     1.124802   -6.0262916    4256.3748            5 
   84400    1.1233819   -6.0605629    4248.5049            7 
   84500    1.1506127   -6.0523772    4241.4028            5 
   84600    1.0987365    -6.003736    4257.9914            5 
   84700    1.1409004   -6.0013221     4252.748            3 
   84800    1.1306441   -6.0300777    4248.5742            2 
   84900    1.1391272   -6.0520667    4255.6589            3 
   85000    1.1385342   -6.0425887    4246.7926            2 
   85100    1.1289493   -6.0641644    4245.7346            5 
   85200    1.1219277   -6.0445027    4259.3806            7 
   85300    1.1239025   -6.0468925     4266.383            2 
   85400    1.1511283   -6.0323293    4279.2723            5 
   85500    1.1352639   -6.0534596    4245.5838            4 
   85600    1.1320176   -6.0470497    4238.4724            2 
   85700    1.1249076   -5.9909224    4248.0876            4 
   85800    1.1430578   -5.9907154    4244.3643            2 
   85900    1.1431892   -6.0470155    4220.9048            2 
   86000    1.1352112   -6.0419376    4217.9126            5 
   86100     1.131445   -6.0162585    4248.3386            9 
   86200    1.1220178   -6.0255059    4261.2051            5 
   86300    1.1244528   -6.0626667     4260.633           13 
   86400    1.1019771   -6.0640793    4252.9688            6 
   86500    1.1307954   -6.0441266    4256.1925            4 
   86600    1.1476281   -6.0457154    4252.5791            5 
   86700    1.1040577   -6.0465944    4245.9552            7 
   86800     1.145928   -6.0479421    4248.7073            6 
   86900    1.1346944   -6.0572597    4246.2097            3 
   87000    1.1082979   -6.0871785    4245.4954            5 
   87100    1.1358046   -6.0884364    4266.6597            6 
   87200    1.1197513   -6.0538387    4274.8362            9 
   87300     1.126642   -6.0477299    4267.6878           14 
   87400    1.1313029   -6.0901419    4249.6291            5 
   87500    1.1412539   -6.0747099    4232.8693            8 
   87600    1.1013827   -6.0474187    4230.8714            8 
   87700     1.146622   -6.0842215    4250.1586            4 
   87800    1.1157627   -6.0492747    4257.4526            4 
   87900      1.16722   -6.0642719    4261.5961            2 
   88000    1.1250845   -6.0530175    4248.8521            3 
   88100    1.1466643    -6.058872    4246.2067            2 
   88200    1.1505687   -6.0282474    4260.4361            6 
   88300    1.1244456   -6.0414016    4247.6225            3 
   88400    1.1132131   -6.0379526    4242.3774            6 
   88500    1.1406964   -6.0345082    4245.2699            3 
   88600     1.138092   -6.0104761    4249.4339            8 
   88700    1.1178777   -6.0449863    4249.8697            7 
   88800    1.1456777   -6.0710243    4251.7845            4 
   88900     1.129666   -6.0540302    4247.7586            9 
   89000    1.1123004   -6.0491368    4256.4698            2 
   89100     1.114904   -6.0225891    4263.3284            3 
   89200    1.1224784   -6.0170072     4271.385            2 
   89300    1.1564081   -6.0439106    4246.1467            5 
   89400    1.1400971   -6.0482071     4223.997            6 
   89500    1.1256352   -6.0476974    4231.0878            2 
   89600    1.1217178   -6.0385073     4242.156            9 
   89700     1.105637   -6.0578332    4244.5664           10 
   89800    1.1386942   -6.0626219    4248.4144            4 
   89900    1.1311746   -6.0771152    4240.6397            4 
   90000     1.134932   -6.0273461    4245.5906            3 
   90100    1.1346601   -6.0300589    4249.1946            4 
   90200    1.1395326   -6.0766947    4246.7019            3 
   90300    1.1500205   -6.0578371     4254.392            5 
   90400    1.0985983   -6.0230296    4268.4925            4 
   90500    1.1293271   -6.0173417    4268.1451            4 
   90600    1.1047634   -6.0208778    4255.3903            2 
   90700    1.1195437   -6.0564291    4247.9922            5 
   90800    1.1271492   -6.0151592    4256.6887            5 
   90900    1.1483045   -6.0441037    4247.5186            5 
   91000    1.1173898   -6.0536242    4244.8678            2 
   91100    1.1245482   -6.0222261    4252.9839            3 
   91200    1.1532818   -6.0216975    4260.6771            4 
   91300    1.1373721   -6.0472119    4247.2582            6 
   91400    1.1235577   -6.0331339    4228.7094            2 
   91500    1.1292707   -6.0400998    4244.8268            2 
   91600    1.1159577   -6.0214222    4261.1199            3 
   91700    1.1524632   -6.0129127    4271.2303            6 
   91800     1.159817   -6.0138218    4263.7104            4 
   91900    1.1226291   -6.0399759    4267.9932            2 
   92000    1.1382485       -6.042    4254.3307            6 
   92100    1.1110623   -6.0417851    4243.9745            4 
   92200    1.1420767   -6.0386172     4257.947            4 
   92300     1.119594   -6.0175376    4258.1243            6 
   92400    1.1290801    -6.029619    4251.3163            4 
   92500    1.1097025   -6.0581485     4241.277           11 
   92600    1.1402256    -6.075588    4233.7716           10 
   92700    1.1371195   -6.0751957    4242.1148            8 
   92800    1.1359744   -6.0820056    4241.5679            4 
   92900    1.1236016   -6.1002813      4232.11            6 
   93000    1.1321975    -6.044266    4240.6827            3 
   93100    1.1540604   -6.0134651    4239.5283            4 
   93200    1.1235796   -6.0310937    4244.7004            2 
   93300     1.153395    -6.041752    4251.9651           13 
   93400      1.11495   -6.0328252    4243.9909            6 
   93500    1.1304777   -6.0788636    4235.9883            5 
   93600    1.1426874   -6.0354857    4244.9321            5 
   93700    1.1138594   -6.0067096    4248.8805            4 
   93800    1.0993974   -6.0200077    4233.6546            4 
   93900    1.1214907   -5.9949838    4225.3551            2 
   94000    1.1456692    -6.033772    4230.4355            7 
   94100    1.1496368    -6.050493    4243.5326            8 
   94200    1.1523093   -6.0269468    4260.1822            6 
   94300    1.1158507   -6.0187387    4281.0434            3 
   94400    1.1114321   -6.0326348     4274.733            4 
   94500    1.1231325   -6.0315881    4273.1419            2 
   94600    1.1339639   -6.0224534     4269.785           12 
   94700    1.1511167   -6.0663369    4246.7121           11 
   94800    1.1427241    -6.061877    4242.5357            5 
   94900     1.133958   -6.0343201    4243.5101            4 
   95000    1.1112618   -6.0561863    4236.5466            4 
   95100    1.1259321   -6.0248046    4233.0581            6 
   95200     1.128025   -6.0295254    4244.8108            7 
   95300    1.1343605   -6.0233638    4254.6619            5 
   95400    1.1096858   -6.0418941     4244.597            3 
   95500    1.1344487   -6.0264891    4241.3491            2 
   95600    1.1382626   -6.0126487    4240.6707            3 
   95700    1.1168196   -6.0451587    4234.9555            6 
   95800    1.1452778   -6.0487298    4236.6836            4 
   95900    1.1524144   -6.0348771    4241.3559            3 
   96000    1.1255922   -6.0555821    4253.7156            3 
   96100    1.1139309   -6.0402584    4263.0168            4 
   96200    1.1288027   -6.0381834     4273.971            3 
   96300    1.1097304   -6.0156562    4262.0133            6 
   96400    1.1240092   -6.0226246      4254.36            7 
   96500    1.1373132   -5.9912345    4266.7082           14 
   96600    1.1525037   -6.0157387    4248.8896            4 
   96700    1.1273984   -6.0377436    4244.7715            6 
   96800    1.1411009   -6.0247664    4249.9522            6 
   96900    1.1238402   -6.0051708    4254.1485            4 
   97000    1.1316847   -6.0387619    4246.2048            2 
   97100    1.1235882    -6.024007    4251.2302            4 
   97200    1.1364844   -6.0256003    4278.6937            4 
   97300    1.1361496   -5.9989624    4272.8153            6 
   97400    1.1383331   -6.0265717    4247.1787            5 
   97500    1.1351945   -6.0461926    4248.1177            3 
   97600    1.1165423     -6.01006    4257.1573            3 
   97700    1.1233114   -6.0026538    4265.2466            4 
   97800    1.1366628   -6.0566671    4234.4501            7 
   97900    1.1346071   -6.0440198    4231.0636            3 
   98000    1.1505586   -6.0171117    4247.1582            4 
   98100    1.1266185   -6.0363873    4262.3953            7 
   98200    1.1092871   -6.0280714    4265.6281            6 
   98300    1.1270591   -6.0309036    4265.9279            4 
   98400    1.1228616   -6.0498495    4240.6812            5 
   98500    1.1485565   -6.0566835    4226.3202            5 
   98600    1.1248616   -6.0097523    4231.2799            6 
   98700     1.132971   -6.0364179    4252.7828            3 
   98800    1.1095438   -6.0516359    4228.5677            8 
   98900    1.1239993   -6.0519627    4239.4894            4 
   99000    1.1357625   -6.0330846     4252.692            3 
   99100    1.1152817   -6.0149131    4248.6859            3 
   99200    1.1431783   -6.0496864    4240.7401            2 
   99300    1.1163796   -6.0087063     4242.505            3 
   99400    1.1191813   -6.0225325      4252.29            5 
   99500    1.1239321   -6.0265877    4263.1296            4 
   99600    1.1525757   -6.0295329    4270.6819            2 
   99700    1.1221463   -6.0400317    4257.6579            2 
   99800    1.1381455   -6.0429888    4249.0574            3 
   99900    1.1248125   -6.0306827     4247.321            4 
  100000    1.1293362   -5.9907429    4253.6538            5 
  100100    1.1276953   -6.0503132    4241.9965            7 
  100200    1.1300974   -6.0586241     4256.891            4 
  100300    1.1002843   -6.0131668    4271.0152            4 
  100400    1.1238241   -6.0141426    4255.3247            5 
  100500    1.1497978   -6.0323542    4252.1807            4 
  100600    1.1125685   -6.0405629    4239.3366            2 
  100700    1.1316006   -6.0503197    4243.2684            2 
  100800    1.1696333   -6.0400613    4262.8736            4 
  100900    1.1303822   -6.0410063    4252.7395            8 
  101000    1.1406099   -6.0578718    4260.3424            3 
  101100    1.1456204   -6.0379056    4271.4303            4 
  101200    1.1046449   -6.0395998    4269.7968            6 
  101300    1.1350917   -6.0551412    4261.1973            5 
  101400    1.1086912   -6.0760966    4246.8474            4 
  101500    1.1229919   -6.0627875    4251.6125            7 
  101600    1.1281459   -6.0328341    4257.6502            4 
  101700    1.1161313   -6.0404882    4247.5745            8 
  101800    1.1415658   -6.0746231    4235.1846            6 
  101900    1.1276045   -6.0438761    4242.8975           10 
  102000    1.1430892    -6.059918    4239.4229            4 
  102100    1.1045357   -6.0546209    4235.8927            6 
  102200    1.1228492    -6.026509    4255.1881            1 
  102300    1.1158039     -6.03909    4266.7561            5 
  102400    1.1309697   -6.0423886    4264.1896            3 
  102500    1.1279812   -6.0199451    4269.1055            5 
  102600    1.1087171   -6.0454228     4246.951            4 
  102700    1.1534755    -6.074954    4243.0174            3 
  102800    1.1586538    -6.021704    4241.1408            5 
  102900    1.1246146   -5.9989393    4255.9561            5 
  103000      1.14012    -6.044349    4263.1682            4 
  103100    1.0948132   -6.0384043    4251.9037            3 
  103200    1.1298156   -6.0539301    4254.1372            5 
  103300    1.1455226   -6.0618179    4250.9159            7 
  103400    1.1154674   -6.0480614    4246.7884            4 
  103500    1.1251999   -6.0287279    4262.2371            5 
  103600    1.1525629   -6.0097398    4266.4685            4 
  103700    1.1306229   -6.0154732    4256.1798            5 
  103800    1.1478132   -6.0385739    4248.6488            3 
  103900    1.1165419   -6.0537672    4233.0253            4 
  104000    1.1153528   -6.0706696    4247.6322            3 
Loop time of 118.71 on 64 procs for 100000 steps with 4000 atoms

Performance: 145565.343 tau/day, 842.392 timesteps/s
99.9% CPU use with 64 MPI tasks x no OpenMP threads

MPI task timing breakdown:
Section |  min time  |  avg time  |  max time  |%varavg| %total
---------------------------------------------------------------
Pair    | 7.2186     | 7.327      | 7.7441     |   3.6 |  6.17
Neigh   | 1.1456     | 1.1573     | 1.194      |   0.8 |  0.97
Comm    | 9.7074     | 14.648     | 20.549     |  86.8 | 12.34
Output  | 5.9873     | 5.9887     | 5.9985     |   0.1 |  5.04
Modify  | 74.879     | 85.316     | 93.034     |  63.0 | 71.87
Other   |            | 4.273      |            |       |  3.60

Nlocal:        62.5000 ave          69 max          56 min
Histogram: 1 1 9 17 6 9 8 3 5 5
Nghost:        1428.00 ave        1445 max        1397 min
Histogram: 1 0 3 6 4 8 13 13 13 3
Neighs:        6717.81 ave        7503 max        5944 min
Histogram: 1 4 9 9 14 7 7 4 7 2
FullNghs:      13434.9 ave       15116 max       11874 min
Histogram: 1 3 10 12 8 13 4 7 4 2

Total # of neighbors = 859835
Ave neighs/atom = 214.95875
Neighbor list builds = 6351
Dangerous builds = 0

#clear
#
#next RN
#
#jump SELF
Total wall time: 0:01:59
