
units lj                  # Use reduced LJ style units
atom_style atomic         # Uncharged point particles
atom_modify map hash      # Needed for indexing of clusters etc
                          # Used to be able to find where atoms are in relation to each other.

lattice fcc 1.0 spacing 1 1 1
Lattice spacing in x,y,z = 1.5874011 1.5874011 1.5874011
region box block 0 10 0 10 0 10 units lattice
create_box 2 box
Created orthogonal box = (0.0000000 0.0000000 0.0000000) to (15.874011 15.874011 15.874011)
  3 by 4 by 4 MPI processor grid
create_atoms 1 box
Created 4000 atoms
  using lattice units in orthogonal box = (0.0000000 0.0000000 0.0000000) to (15.874011 15.874011 15.874011)
  create_atoms CPU = 0.003 seconds
set type 1 type/fraction 2 0.01 78393
Setting atom values ...
  36 settings made for type/fraction
mass 1 1.0
mass 2 1.0
pair_style lj/cut  3.5
pair_modify tail  yes
pair_coeff 1  1  1.0  1.0   # Intearaction between 1 and 1 set with epsilon = 1 and sigma = 1
pair_coeff 1  2  1.5  0.8
pair_coeff 2  2  0.5  0.88

write_data data.0
System init for write_data ...
Neighbor list info ...
  update every 1 steps, delay 10 steps, check yes
  max neighbors/atom: 2000, page size: 100000
  master list distance cutoff = 3.8
  ghost atom cutoff = 3.8
  binsize = 1.9, bins = 9 9 9
  1 neighbor lists, perpetual/occasional/extra = 1 0 0
  (1) pair lj/cut, perpetual
      attributes: half, newton on
      pair build: half/bin/atomonly/newton
      stencil: half/bin/3d
      bin: standard
WARNING: Not all mixed pair coeffs generated from mixing. Use write_data with 'pair ij' option to store all pair coeffs. (../write_data.cpp:312)


#############################
#   M E L T   S Y S T E M   #
#############################

velocity all create 2.4 5833274 mom yes dist gaussian # Assign velocities
                                                    # Temperature 2.4, random number seed, zero linear momentum
                                                                                # Gaussian distribution

timestep 0.002   # simulation timestep
thermo 1000       # output thermodynamic data every 1000 steps bf 100

# Define a fix  in this case with index 1 applied to all
# particles in the simulation. This fix is for simulations
# in the anisotropic NPT ensemble. Note that we use the MTK
# correction.
fix 1 all npt temp 2.4 2.4 0.1 iso 5.68 5.68 0.5 mtk yes tchain 5 pchain 5 # Use NPT ensemble
                                                                         # Set temperature and pressure and damping
                                                                         # Numbers of thermostats in chain and in barostat
run 10000          # run for 10000 steps
Per MPI rank memory allocation (min/avg/max) = 3.642 | 3.644 | 3.648 Mbytes
Step Temp E_pair E_mol TotEng Press Volume 
       0          2.4   -8.3261558            0   -4.7270558   -2.3168672         4000 
    1000    2.3698238   -4.4641801            0  -0.91033304    5.6759762    5140.0418 
    2000    2.4739926   -4.4026732            0  -0.69261206    5.8920393    5164.6088 
    3000    2.4068817   -4.3655404            0  -0.75612042    5.7800196    5202.0437 
    4000    2.3875049   -4.3278326            0  -0.74747067    5.9418608    5183.5331 
    5000    2.3989361   -4.4090226            0   -0.8115181    5.5553436    5196.9658 
    6000    2.3411908   -4.3959682            0  -0.88505986    5.4591429    5219.5405 
    7000    2.3654252   -4.4121781            0  -0.86492724    5.3759113    5230.1588 
    8000    2.3943842   -4.3514864            0  -0.76080793    5.8209776    5194.6737 
    9000    2.3880074   -4.3852258            0  -0.80411022    5.6660826    5195.6993 
   10000    2.3825727   -4.4040168            0  -0.83105121     5.616676    5187.9384 
Loop time of 2.09067 on 48 procs for 10000 steps with 4000 atoms

Performance: 826527.459 tau/day, 4783.145 timesteps/s
99.6% CPU use with 48 MPI tasks x no OpenMP threads

MPI task timing breakdown:
Section |  min time  |  avg time  |  max time  |%varavg| %total
---------------------------------------------------------------
Pair    | 0.85089    | 0.91481    | 1.0348     |   3.4 | 43.76
Neigh   | 0.16585    | 0.17296    | 0.19706    |   1.2 |  8.27
Comm    | 0.63689    | 0.7327     | 0.83201    |   4.9 | 35.05
Output  | 0.0002546  | 0.00025844 | 0.00031587 |   0.0 |  0.01
Modify  | 0.20691    | 0.25556    | 0.31562    |   5.4 | 12.22
Other   |            | 0.01439    |            |       |  0.69

Nlocal:        83.3333 ave          93 max          73 min
Histogram: 1 1 1 8 8 12 8 5 2 2
Nghost:        1386.50 ave        1403 max        1353 min
Histogram: 1 0 2 2 6 4 8 10 8 7
Neighs:        7328.67 ave        8384 max        6213 min
Histogram: 1 1 3 7 11 13 7 1 1 3

Total # of neighbors = 351776
Ave neighs/atom = 87.944000
Neighbor list builds = 902
Dangerous builds = 191

# Equilibrate just above the melting temperature to avoid step fn in T

fix 1 all npt temp 1.25 1.25 0.1 iso 5.68 5.68 0.5 mtk yes tchain 5 pchain 5
run 2000
Per MPI rank memory allocation (min/avg/max) = 3.642 | 3.644 | 3.648 Mbytes
Step Temp E_pair E_mol TotEng Press Volume 
   10000    2.3825727   -4.4040168            0  -0.83105121     5.616676    5187.9384 
   11000    1.2686063   -5.8262577            0   -3.9238239    5.7693869    4327.4506 
   12000     1.249173   -5.8931934            0   -4.0199023    5.4344704    4325.3647 
Loop time of 0.452775 on 48 procs for 2000 steps with 4000 atoms

Performance: 763293.853 tau/day, 4417.210 timesteps/s
99.6% CPU use with 48 MPI tasks x no OpenMP threads

MPI task timing breakdown:
Section |  min time  |  avg time  |  max time  |%varavg| %total
---------------------------------------------------------------
Pair    | 0.19816    | 0.21146    | 0.22076    |   1.1 | 46.70
Neigh   | 0.030914   | 0.032312   | 0.034512   |   0.3 |  7.14
Comm    | 0.14337    | 0.15551    | 0.17287    |   1.6 | 34.35
Output  | 5.3044e-05 | 5.4432e-05 | 6.5573e-05 |   0.0 |  0.01
Modify  | 0.044185   | 0.048881   | 0.053317   |   1.3 | 10.80
Other   |            | 0.004559   |            |       |  1.01

Nlocal:        83.3333 ave          92 max          76 min
Histogram: 2 4 5 10 6 9 6 1 3 2
Nghost:        1556.69 ave        1572 max        1534 min
Histogram: 1 2 1 4 4 13 7 4 8 4
Neighs:        8791.92 ave        9862 max        7982 min
Histogram: 2 5 6 10 8 7 5 2 2 1

Total # of neighbors = 422012
Ave neighs/atom = 105.50300
Neighbor list builds = 142
Dangerous builds = 5

#############################
# L I N E A R  Q U E N C H  #
#############################

# Define solid atoms. This closely follows ten Wolde  Ruiz-Montero and Frenkel  Faraday Discuss  1996  104  93-110
# Compute components of the per-atom q6 vector
compute q6 all orientorder/atom degrees 1 6 components 6 nnn NULL cutoff 1.3 # compute the Q6 parameter.
                                                                             # Use all neighbours within 1.3 unit cell.

# get number of connections
compute coord_number all coord/atom orientorder q6 0.5

# An atom is solid if it has 8 or more connections (of a possible 14)
variable is_solid atom c_coord_number>=8
group solid dynamic all var is_solid    # Must be dynamic to update
dynamic group solid defined

# do clustering
compute cluster solid cluster/atom 1.3 # Create a cluster where all atoms within are solid and max 1.3 units from another member

# define chunks one chunk per cluster
compute clus_chunks solid chunk/atom c_cluster nchunk every compress yes  # Says which atoms are in which chunk

# count the size of each chunk
compute size_chunks solid property/chunk clus_chunks count


# Find the maximum entry in the vector of chunk sizes
variable max_n equal max(c_size_chunks)


# Thermo style which includes this variable
# thermo_style custom step temp pe vol v_max_n

thermo ${N}  # Print the thermo information every 100 steps
thermo 1000  

# Reset the npt fix at a lower temperature (below freezing)
fix 1  all npt temp  ${temp} ${temp}  0.1  iso  5.68  5.68  0.5  mtk yes tchain  5  pchain  5
fix 1  all npt temp  0.45 ${temp}  0.1  iso  5.68  5.68  0.5  mtk yes tchain  5  pchain  5
fix 1  all npt temp  0.45 0.45  0.1  iso  5.68  5.68  0.5  mtk yes tchain  5  pchain  5

dump dmp2 all dcd ${N} traj.dcd
dump dmp2 all dcd 1000 traj.dcd


compute msd all msd com yes
variable twopoint equal c_msd[4]/6/(step*dt+1.0e-6)
fix 9 all vector 10 c_msd[4]
variable fit equal slope(f_9)/6/(10*dt)
thermo_style custom step temp pe c_msd[4] v_twopoint v_fit v_max_n

fix 1 all npt temp 1.25 ${temp} 0.1 iso 5.68 5.68 0.5 mtk yes tchain 5 pchain 5
fix 1 all npt temp 1.25 0.45 0.1 iso 5.68 5.68 0.5 mtk yes tchain 5 pchain 5
run 2000000 # 5000000  # Run for this many steps
Neighbor list info ...
  update every 1 steps, delay 10 steps, check yes
  max neighbors/atom: 2000, page size: 100000
  master list distance cutoff = 3.8
  ghost atom cutoff = 3.8
  binsize = 1.9, bins = 9 9 9
  4 neighbor lists, perpetual/occasional/extra = 1 3 0
  (1) pair lj/cut, perpetual
      attributes: half, newton on
      pair build: half/bin/atomonly/newton
      stencil: half/bin/3d
      bin: standard
  (2) compute orientorder/atom, occasional
      attributes: full, newton on
      pair build: full/bin/atomonly
      stencil: full/bin/3d
      bin: standard
  (3) compute coord/atom, occasional
      attributes: full, newton on
      pair build: full/bin/atomonly
      stencil: full/bin/3d
      bin: standard
  (4) compute cluster/atom, occasional
      attributes: full, newton on
      pair build: full/bin/atomonly
      stencil: full/bin/3d
      bin: standard
Per MPI rank memory allocation (min/avg/max) = 9.729 | 9.733 | 9.736 Mbytes
Step Temp PotEng c_msd[4] v_twopoint v_fit v_max_n 
   12000     1.249173   -5.8931934            0            0 8.3333333e+20            4 
   13000    1.2636792   -5.8868484   0.57954095  0.003715006  0.048068251            2 
   14000    1.2644684   -5.9053467    1.0896084 0.0064857639  0.045844838            7 
   15000    1.2587593   -5.8749305    1.6800338 0.0093335207  0.045836114            3 
   16000    1.2569988   -5.8927907    2.1930237  0.011421998  0.045836768            4 
   17000    1.2104674   -5.8848819      2.72846  0.013374804  0.045132556            3 
   18000    1.2473994   -5.8501663    3.2594683  0.015090131  0.045033155            4 
   19000    1.2329389   -5.8424626     3.836418  0.016826394  0.045159757            3 
   20000    1.2157814   -5.8519012    4.4154419  0.018397674  0.045321384            5 
   21000    1.2391435   -5.8722042    5.0272316  0.019949331  0.045701395            5 
   22000    1.2475705   -5.8920236    5.5531842  0.021034788  0.046011237            3 
   23000    1.2544479   -5.8684703     6.172956  0.022365782  0.046282665            3 
   24000     1.241317    -5.830869    6.7500261   0.02343759  0.046588205            2 
   25000    1.2460723   -5.9154088    7.2416995  0.024138998  0.046589513            3 
   26000    1.2611161   -5.8797064     7.923312   0.02539523  0.046757196            4 
   27000    1.2611102   -5.8651822    8.4651334  0.026126955  0.047042265            3 
   28000    1.2174826   -5.8801728    8.9044561  0.026501357  0.046994993            7 
   29000    1.2455386   -5.8338104    9.4828175  0.027249475  0.046856459            3 
   30000    1.2217001   -5.8776818     9.959325  0.027664791  0.046770257            3 
   31000    1.2532351    -5.917802    10.389165  0.027927862  0.046594625            4 
   32000    1.2714757   -5.8989807    10.985247  0.028607414  0.046350752            3 
   33000    1.2474788   -5.8699653    11.475916  0.028979586  0.046148622            3 
   34000    1.2383783   -5.8913484    11.951174  0.029292092  0.045922526            3 
   35000    1.2405453   -5.8999834    12.515306  0.029798347  0.045722844            3 
   36000    1.2176982   -5.8896776    12.968431  0.030019517  0.045555787            3 
   37000    1.2182633   -5.8567837    13.455017  0.030304091     0.045422            4 
   38000    1.2530976    -5.872956    14.079349  0.030875766  0.045282086            2 
   39000     1.238998   -5.8707207    14.535319  0.031058374  0.045165656            3 
   40000     1.258085   -5.8882808    15.074973  0.031406192  0.045043487            4 
   41000     1.250377    -5.857262    15.608424  0.031724438  0.044937076            4 
   42000    1.2232826   -5.9258806    16.117996   0.03198015  0.044830986            4 
   43000     1.255916   -5.8803904    16.505183  0.031986789  0.044733774            3 
   44000    1.2360076   -5.9207455    17.176615  0.032531468  0.044640694            3 
   45000    1.2264375    -5.893649    17.635073  0.032657542  0.044554187            2 
   46000    1.2113077   -5.9124316    18.149139  0.032878874  0.044455973            4 
   47000    1.2230081   -5.8520343    18.818242  0.033365677  0.044379835            5 
   48000    1.2192641   -5.9467912     19.28882  0.033487534  0.044368167            4 
   49000    1.2551188   -5.9346233    19.925076  0.033886183  0.044346268            3 
   50000    1.2217887   -5.8818004    20.544212  0.034240353  0.044356342            3 
   51000    1.2452968   -5.9148958    21.270456  0.034755647  0.044430397            4 
   52000      1.20934   -5.8800403    21.634048  0.034669948  0.044482882            4 
   53000    1.2192227   -5.8776272    22.163015  0.034847508  0.044519932            4 
   54000    1.2283205   -5.8685495    22.863116  0.035282586  0.044568756            3 
   55000    1.2540683   -5.9109177    23.349043  0.035377338  0.044611199            6 
   56000    1.2298959   -5.9211221    23.971547  0.035671944  0.044663654            2 
   57000     1.219616   -5.8472103    24.534737  0.035869499  0.044708975            6 
   58000     1.228913   -5.9100355    24.880728  0.035748172  0.044735709            2 
   59000    1.2309076   -5.9132349    25.404362  0.035881868  0.044752559            3 
   60000    1.2130535   -5.8793858    26.014149  0.036130763  0.044755176            4 
   61000    1.2537012   -5.8835383     26.54399  0.036262281  0.044769507            2 
   62000    1.2278163   -5.9489409    27.131835  0.036467519  0.044797719            7 
   63000    1.2278263   -5.9356794    27.650322  0.036574499  0.044831047            3 
   64000    1.2145379   -5.8995024    28.244331  0.036776473  0.044843711            2 
   65000    1.2110432   -5.9022432    28.846919  0.036983229  0.044871653            5 
   66000    1.2276066   -5.8846931    29.443226   0.03717579   0.04490676            2 
   67000    1.2260972   -5.8925687    29.921443  0.037215724  0.044936457            4 
   68000    1.2448669   -5.9290877    30.245165  0.037065153  0.044942458            3 
   69000    1.1992023   -5.9489142    30.804449  0.037203441  0.044928304            3 
   70000    1.2079757   -5.9080495    31.335693  0.037304396  0.044930853            2 
   71000    1.2392216   -5.9158031    31.777936  0.037298047  0.044926894            3 
   72000    1.2086934    -5.908054    32.424554  0.037528419   0.04490702            4 
   73000    1.2288215   -5.9019246    32.843425  0.037492494  0.044904943            5 
   74000    1.2111138   -5.8800805    33.296628  0.037496203  0.044886665            5 
   75000    1.2277882   -5.9207698    33.777654  0.037530727  0.044854035            2 
   76000    1.2252853   -5.9240815    34.351674  0.037666309  0.044821861            6 
   77000    1.2319793   -5.9129758    34.812532    0.0376759   0.04479042            3 
   78000    1.2272814   -5.9491338    35.283332  0.037695867  0.044750977            8 
   79000    1.2258341   -5.9146858    35.766237  0.037728098  0.044718737            3 
   80000     1.195217   -5.9252313    36.394095  0.037910515  0.044688142            2 
   81000    1.2211806   -5.9418336    37.119203   0.03818848   0.04467254            3 
   82000    1.2126828   -5.9047038    37.715388  0.038328646  0.044664626            3 
   83000    1.2312432   -5.9059845    38.190607  0.038343983   0.04466349            2 
   84000    1.2189446   -5.8984437    38.761035  0.038453408  0.044660991            2 
   85000    1.2343386   -5.8850528    39.531346  0.038756222  0.044666873            6 
   86000    1.2085596   -5.9034595    40.124986  0.038880801  0.044688174            3 
   87000    1.2274627   -5.9365217    40.459143  0.038753968  0.044709624            4 
   88000    1.2266295   -5.9539542    40.982822   0.03880949  0.044717768            3 
   89000    1.2242295   -5.9233377     41.21711  0.038592799   0.04471362            5 
   90000    1.2242756   -5.9143317    41.749518  0.038656961  0.044704116            2 
   91000    1.1983905   -5.9401653    42.230799  0.038672893  0.044673277            4 
   92000    1.2114034   -5.9358145     42.76026  0.038732119   0.04465203            4 
   93000     1.213144   -5.9525231    43.360062  0.038853102  0.044633854            4 
   94000    1.2085834   -5.9328884    43.929836   0.03894489  0.044617657            2 
   95000    1.2196698   -5.9141627    44.567188  0.039094024  0.044605065            3 
   96000    1.2119249   -5.9317411    45.183792  0.039222042  0.044603018            3 
   97000    1.2241588   -5.9199111    45.665697  0.039231699  0.044603604            4 
   98000     1.248777   -5.9194748    46.270983  0.039346074  0.044610493            5 
   99000    1.1978102   -5.8926485    46.583285   0.03921152  0.044604003            2 
  100000     1.213803   -5.9239924    47.134684  0.039278903  0.044587112            3 
  101000    1.2104708   -5.9008076     47.63822  0.039305462  0.044572441            2 
  102000    1.2183368   -5.9792456    47.935808  0.039163241  0.044561096            2 
  103000    1.2154913   -5.9237754    48.619017  0.039335774  0.044555789            2 
  104000    1.2078491   -5.9492511    48.887865  0.039172969  0.044541924            5 
  105000    1.2156374   -5.9014122    49.552461   0.03932735  0.044519286            3 
  106000    1.2076669   -5.9343668    50.117306  0.039400398  0.044495696            3 
  107000    1.2140928   -5.9239986    50.628572  0.039430352   0.04447397            3 
  108000    1.2089827   -5.9395147    51.109048  0.039435994  0.044452181            2 
  109000    1.2099965   -5.9458199     51.62062  0.039465306  0.044430876            4 
  110000    1.1942179   -5.9827703     51.68996   0.03915906  0.044399711            2 
  111000    1.2087997   -5.9433811    52.426246  0.039359043  0.044367895            2 
  112000    1.2062101    -5.951538    53.066832   0.03948425  0.044341448            3 
  113000    1.1899524   -5.9546271    53.605295  0.039531928  0.044323782            8 
  114000    1.2053792   -5.9152333    54.301633  0.039694176   0.04431161            4 
  115000    1.2079573   -5.9281317    54.816367  0.039722005  0.044292932            2 
  116000    1.1862868   -5.9480307    55.208706  0.039661426  0.044274436            5 
  117000     1.216573   -5.9457699    55.869893  0.039793371   0.04425844            4 
  118000    1.2093349   -5.9528463    56.244743  0.039720864  0.044244943            3 
  119000    1.2005276   -5.9388046    56.768909  0.039754138  0.044233637            5 
  120000     1.204948    -5.963155    57.423747  0.039877602  0.044220729            3 
  121000     1.209119    -5.974578    57.907531   0.03988122  0.044207597            5 
  122000    1.2074602   -5.9728253    58.442982  0.039920069  0.044196327            7 
  123000     1.222393   -5.9241951    59.021646  0.039987565  0.044184268            8 
  124000    1.2150813   -5.9252374    59.527507  0.040005045  0.044173917            4 
  125000    1.2196009   -5.9592024    59.907832  0.039938555  0.044165145            2 
  126000    1.2119529   -5.9526652    60.797861  0.040210225  0.044157066            2 
  127000    1.2061993   -5.9485577    61.341068  0.040250045  0.044154424           10 
  128000    1.2286813   -5.9660901    61.854908  0.040270122   0.04415497            3 
  129000     1.225264   -5.9728958    62.482689  0.040363494  0.044155094            3 
  130000    1.1991812   -5.8981992    62.863557  0.040297152    0.0441535            5 
  131000    1.1951848   -5.9572447    63.244838  0.040232085  0.044146779            5 
  132000    1.2001764   -5.9150284    64.152329  0.040500207  0.044148431            2 
  133000    1.1938608   -5.9014159    64.789304  0.040594802  0.044152933            2 
  134000    1.1998296   -5.9229277    65.180791  0.040535318  0.044156952            3 
  135000    1.2107934    -5.989797    65.490662  0.040426335  0.044158505            5 
  136000    1.1933191   -5.9839528    66.155257  0.040536309  0.044156783            5 
  137000    1.1924891   -5.9854745    66.566327  0.040490466  0.044156895            6 
  138000    1.2176728   -5.9596572     67.01976  0.040470869  0.044155894            3 
  139000    1.2155679    -5.967023    67.561955  0.040504769  0.044150348            4 
  140000    1.1937267    -5.992549    68.366639  0.040694428  0.044150581            6 
  141000    1.2155342    -5.982567    68.719551  0.040614392  0.044153856            1 
  142000    1.1976653   -5.9246515    69.191131  0.040605123  0.044158414            4 
  143000    1.2143007   -5.9488905    69.974407  0.040777626  0.044159394            2 
  144000    1.1891737   -5.9690944    70.499462    0.0407983   0.04416107            2 
  145000    1.1936932   -5.9474826    71.145793  0.040888387  0.044168259            3 
  146000    1.2054092   -5.9756396     71.60407  0.040869903  0.044176125            4 
  147000    1.1708981   -5.9325716      72.5153  0.041108447  0.044184387            2 
  148000    1.1752193   -5.9577338    72.532049  0.040840118  0.044191885            2 
  149000    1.1881282   -5.9437131    72.811531  0.040722333  0.044188754            3 
  150000     1.188777   -5.9997342    72.811821  0.040451011  0.044176948            3 
  151000    1.2155388   -5.9567059    74.199236  0.040948805  0.044170361            3 
  152000    1.1778111   -5.9642479      74.4655  0.040825384  0.044168987            4 
  153000    1.2077581   -5.9849359    75.134995    0.0409232  0.044168382            5 
  154000    1.2121986    -5.942978    75.759309  0.040995297  0.044170336            4 
  155000    1.1951833   -5.9639871    76.314485  0.041029293  0.044169964            5 
  156000    1.1755672   -5.9418094    76.657713  0.040949633  0.044167803            9 
  157000    1.2084757   -5.9414677     77.05236   0.04089828  0.044164182            5 
  158000    1.1961379   -5.9890621    77.593327  0.040924751  0.044161111            2 
  159000    1.2023032   -5.9917684    78.233446  0.041002854  0.044157797            8 
  160000    1.2205572   -5.9572067    78.596544    0.0409357  0.044154595            4 
  161000    1.1744005   -6.0189605    79.206724  0.040997269  0.044152251            5 
  162000    1.1657085   -5.9786345    79.488363  0.040889076  0.044148458            3 
  163000    1.1699593   -5.9588347    80.192317  0.040998117  0.044143204            3 
  164000     1.204643   -5.9413167    80.771203  0.041042278  0.044141366            5 
  165000    1.1992191   -5.9526925    81.472082  0.041147516  0.044142312            3 
  166000    1.1832008   -5.9458114     81.73588  0.041032068  0.044141614            4 
  167000    1.1968999   -6.0219573    82.064733  0.040950466  0.044132361            5 
  168000    1.1803608   -5.9921395    82.485608   0.04091548  0.044124507            3 
  169000    1.1878553   -6.0036857    83.045121  0.040949271  0.044113437            2 
  170000    1.1562268   -5.9927945    83.259007  0.040813239   0.04409719            3 
  171000    1.1720565   -5.9768305    83.893774  0.040883905  0.044080144            8 
  172000    1.1903781   -6.0158095    84.243275   0.04081554   0.04406661            5 
  173000    1.1919754   -5.9729307    84.573942  0.040738893  0.044051884            3 
  174000    1.1746543   -5.9526504    85.148607  0.040779984  0.044036185            5 
  175000    1.1718551   -5.9905524    85.722537  0.040820256  0.044018588            4 
  176000    1.1687001   -6.0030155    85.877027  0.040661471  0.044000177            3 
  177000     1.155456   -5.9647781    86.385471  0.040671126  0.043982078            3 
  178000    1.1576399   -5.9938588      87.3646   0.04090103  0.043968151            4 
  179000    1.2070206   -5.9576614    87.560016  0.040763508  0.043949602            6 
  180000    1.1703064   -5.9811055    87.849361  0.040671001  0.043930486            3 
  181000    1.1850072    -5.973511     88.47103  0.040732519  0.043909017            2 
  182000    1.1842248   -6.0175366    88.936563  0.040721869  0.043891679            1 
  183000    1.1916081   -5.9843606    89.664977  0.040831046  0.043875564            6 
  184000    1.1811078   -5.9613785    90.245648  0.040872123  0.043859417            3 
  185000    1.1683459   -5.9731706    90.735122  0.040871676  0.043841771            3 
  186000    1.1721994   -5.9724373    91.525306  0.041005961  0.043828389            4 
  187000    1.1945539    -5.969212     92.25323  0.041111065  0.043816227            4 
  188000    1.1699472    -6.002233    92.452574  0.040980751  0.043803714            4 
  189000    1.1866367   -5.9851183    92.657627  0.040854333  0.043790056            2 
  190000    1.1577343    -5.997159    93.314167  0.040927266  0.043776326            3 
  191000    1.1244067   -5.9863902    93.879115  0.040959474  0.043764676            8 
  192000    1.2105643   -5.9409547    94.836567  0.041161704  0.043755462            2 
  193000    1.1797171   -5.9802225    95.392964  0.041188672  0.043747306            1 
  194000    1.1558004   -5.9981008    95.538079  0.041038693  0.043740672            7 
  195000    1.1837901   -5.9764969    96.234559   0.04112588  0.043732662            5 
  196000    1.1870006   -6.0118054    96.737567  0.041129918     0.043725            2 
  197000    1.1816432   -5.9544512    97.396236  0.041199761  0.043717074            4 
  198000    1.2027484   -5.9901451     97.78819  0.041156645  0.043710989            6 
  199000    1.1825344   -5.9711286    98.682264  0.041324231  0.043705143            7 
  200000    1.1845791   -6.0075458    98.568379  0.041070158  0.043699994            4 
  201000    1.1618249   -5.9326324    99.543515  0.041270114  0.043693584            6 
  202000    1.1857413    -6.009056    99.752637  0.041152078  0.043687046            2 
  203000    1.1908665   -6.0196956    100.18754  0.041127892  0.043678241            3 
  204000    1.1833461   -6.0146682    100.32118  0.040980875  0.043667072            2 
  205000    1.1593181   -6.0493448     100.5467  0.040872643  0.043654888            8 
  206000    1.1838682   -6.0180269    101.18747  0.040933441  0.043639664            2 
  207000    1.1669686   -5.9767757    102.05412   0.04108459  0.043627625            6 
  208000    1.1682712   -6.0097462    102.53913  0.041081382  0.043614686            2 
  209000    1.1684046   -5.9826614    103.16631  0.041134893  0.043603573            3 
  210000    1.1678042   -6.0159428    103.45752  0.041054573  0.043594092            6 
  211000    1.1625796   -5.9934299     103.8188  0.041002684  0.043581894            3 
  212000    1.1430054   -6.0280908    104.15913  0.040943055  0.043568253            5 
  213000     1.167211   -6.0031139    104.58811  0.040918666  0.043552413            8 
  214000     1.161744   -5.9820515    105.35488  0.041026043  0.043539296            1 
  215000    1.1744992   -6.0010708    105.69654   0.04096765  0.043525645            4 
  216000    1.1609766   -6.0020628     106.1192  0.040941049  0.043511924            3 
  217000    1.1685505   -6.0089092    106.73479  0.040988782  0.043494994            5 
  218000    1.1657895   -5.9773134    107.11891  0.040947595  0.043478931            5 
  219000     1.181136   -6.0179023    107.16655  0.040778747  0.043461084            3 
  220000    1.1801811    -6.007482     107.8046  0.040835075  0.043444087            2 
  221000    1.1572584   -6.0161165    107.87141  0.040675492  0.043426496            4 
  222000    1.1649198   -6.0149825    108.68577  0.040797963  0.043407057            3 
  223000    1.1962641    -6.002261    109.24305  0.040823261  0.043388424            4 
  224000    1.1764535   -6.0494025    109.72603  0.040820694  0.043369416            4 
  225000    1.1831587   -6.0181522    109.90612   0.04070597  0.043349572            9 
  226000    1.1672012   -5.9931517    110.19546  0.040632545  0.043327739            3 
  227000    1.1625803   -5.9724269    110.64065  0.040616979  0.043306436            4 
  228000    1.1679779   -6.0381833     111.1113  0.040610855   0.04328778            4 
  229000    1.1761782   -5.9934723    111.77138   0.04067372  0.043266169            5 
  230000    1.1491645   -6.0376779    112.07529  0.040606988  0.043246444            8 
  231000    1.1734135   -6.0358418    112.93364  0.040740853  0.043224596            9 
  232000    1.1772446    -6.007693    113.48166  0.040762092  0.043205978            3 
  233000    1.1590567   -6.0309449     113.7054  0.040667168  0.043186814            2 
  234000    1.1677969   -6.0171989    114.34486  0.040721104  0.043166658            3 
  235000    1.1738942   -5.9818947    114.38131  0.040560748  0.043145698            5 
  236000    1.1564635   -6.0316241    114.56102  0.040452339  0.043122283            2 
  237000     1.160805   -6.0081953    115.02557  0.040444996  0.043099665            6 
  238000    1.1706465   -6.0364799    115.31779  0.040377379  0.043075546            3 
  239000    1.1521611    -5.999664    116.19059  0.040512757  0.043052271            5 
  240000    1.1625551   -6.0347475    116.88954  0.040586647  0.043029962            4 
  241000    1.1615598   -6.0114655    116.83591  0.040399692  0.043006955            4 
  242000    1.1638356   -6.0195422    117.46344  0.040448843  0.042982893            2 
  243000    1.1528785   -6.0478356    117.79074  0.040394628  0.042959362            6 
  244000    1.1472576   -6.0445758    118.23281  0.040380059  0.042936337            4 
  245000     1.153582   -6.0434864    118.56498  0.040328226  0.042910114            5 
  246000    1.1303358   -6.0715789    118.83233  0.040254855  0.042885328            3 
  247000    1.1808196   -6.0322851    119.35298  0.040267536  0.042859503            4 
  248000    1.1403109   -6.0246575    120.15678   0.04037526  0.042835691            2 
  249000    1.1725186   -6.0378842    121.03595  0.040507345  0.042814299            5 
  250000    1.1586758   -6.0492416     121.0633  0.040354434  0.042793422            6 
  251000    1.1464453   -6.0807136    121.32776  0.040281461  0.042772472            7 
  252000    1.1851611   -6.0161251    122.36569  0.040464843  0.042752102            4 
  253000    1.1405338   -6.0351126    123.18754  0.040575606  0.042734989            5 
  254000     1.137882   -6.0140244    123.80828  0.040619515  0.042718419            4 
  255000    1.1371946   -6.0297754    124.08478  0.040550581  0.042702118            2 
  256000     1.131084   -6.0393532    124.45316  0.040512097  0.042685388            2 
  257000     1.177366   -6.0278008    125.04525   0.04054645   0.04266923            3 
  258000    1.1582406   -6.0569824     125.3843  0.040498805   0.04265304            7 
  259000    1.1463454   -6.0099408    126.32986  0.040646675  0.042635414            4 
  260000    1.1381831   -6.0477742    125.79882  0.040320135  0.042617271            6 
  261000    1.1676803   -6.0125219    126.62595  0.040429742  0.042597633            4 
  262000    1.1595396   -6.0273664    126.83195  0.040340952  0.042577561            4 
  263000     1.144041   -6.0302769    127.29315  0.040333697  0.042558077            2 
  264000    1.1600857   -6.0448968    127.73083  0.040319076  0.042537669            3 
  265000    1.1863979   -6.0500306    128.53607  0.040420149  0.042518729            7 
  266000    1.1403262   -6.0370391    128.95559  0.040399621   0.04250015            8 
  267000    1.1644948   -6.0325576    129.46939  0.040408674  0.042482716            5 
  268000    1.1256373   -6.0487759    129.27277  0.040196757  0.042462873            5 
  269000     1.144627   -6.0421656    129.93307  0.040251879  0.042441955           11 
  270000    1.1232447   -6.0695863    130.47974  0.040271524  0.042422073            4 
  271000      1.17524    -6.090487    130.90807  0.040254633   0.04240226            4 
  272000    1.1517032   -6.0248261    131.39795  0.040256723  0.042382152            2 
  273000    1.1535837   -6.0672643    132.00528  0.040294652  0.042363669            5 
  274000    1.1260615   -6.0538214    132.65251  0.040344437  0.042346041            4 
  275000    1.1789435   -6.0072575    132.68104  0.040206375  0.042328217            2 
  276000    1.1325154   -6.0110602    133.82832  0.040407102  0.042310576            3 
  277000    1.1489744   -6.0715432    133.90916  0.040285548  0.042293296            3 
  278000     1.149835   -6.0165784    134.39573   0.04028649  0.042275404            6 
  279000    1.1572679   -6.0224694    134.69155  0.040230451  0.042256989            5 
  280000    1.1406582   -6.0477267    134.32739   0.03997839  0.042237136            5 
  281000    1.1280843   -6.0519712     135.1614  0.040083451  0.042215524            5 
  282000    1.1483543   -6.0479086    135.45493  0.040028051  0.042193619            7 
  283000    1.1529671   -6.0520777    136.23307  0.040115746  0.042171686            3 
  284000    1.1160208   -6.0532832    136.37956  0.040017476   0.04215026            4 
  285000    1.1376884   -6.0546548    137.55778  0.040221573   0.04213015            5 
  286000    1.1352878   -6.0541145    136.50078  0.039772953  0.042107132            6 
  287000    1.1332275   -6.0633997     137.0119  0.039782781  0.042081376            4 
  288000    1.1247825    -6.028921    137.46752  0.039776482  0.042054766            3 
  289000    1.1350251   -6.0230955    138.00304  0.039793263  0.042027821            6 
  290000    1.1595116   -6.0709487    138.78273  0.039880095  0.042002616            6 
  291000    1.1434454   -6.0515372    138.64939  0.039704865  0.041975618            3 
  292000    1.1167335    -6.035273    139.10717  0.039699534  0.041948274            5 
  293000    1.1334729    -5.994751      139.911  0.039792662  0.041922044            4 
  294000    1.1459494   -6.0640202    140.19129  0.039736759  0.041895957            3 
  295000    1.1108493   -6.0878511    140.42391   0.03966777  0.041870884            3 
  296000    1.1676126   -6.1071942    141.01569  0.039700364  0.041845313            2 
  297000    1.1456585   -6.0417575    141.81469  0.039790878   0.04182072            2 
  298000    1.1440598   -6.0349113    142.14735  0.039750376   0.04179873            4 
  299000    1.1385581   -6.0570005     142.2704  0.039651727  0.041776165           11 
  300000    1.1300173   -6.0871126     142.8628  0.039684112  0.041753162            4 
  301000     1.116477   -6.0895827    142.84873  0.039548375  0.041728891            4 
  302000    1.1263736   -6.0529317    143.85075  0.039693916  0.041704339            2 
  303000    1.1331932   -6.0763903     143.2738  0.039404235  0.041679249            2 
  304000    1.1351741   -6.0878801    144.16147  0.039517945  0.041654104            5 
  305000    1.1400664    -6.064998    144.77019  0.039554695   0.04162818            2 
  306000    1.1507381   -6.0676686    144.96408  0.039478236  0.041601248            3 
  307000    1.1393712   -6.0450971    145.08002  0.039381113  0.041575296            4 
  308000    1.1329351   -6.0484962    145.83221  0.039456766  0.041548932            4 
  309000    1.1169992   -6.0732779    146.33486  0.039464634  0.041522497            2 
  310000    1.1476976   -6.0555223    147.08596  0.039539235  0.041495804            5 
  311000    1.1304963   -6.0940807    147.24187  0.039453878  0.041469232            4 
  312000    1.1257222   -6.0362672    147.52549  0.039403176   0.04144349            4 
  313000     1.118817   -6.0543953    147.95393  0.039391354    0.0414188           14 
  314000    1.1165923   -6.1013662    147.93432    0.0392607  0.041392763            8 
  315000    1.1351218   -6.0536304    148.92435  0.039397975  0.041366391            5 
  316000    1.1329561   -6.0920369     149.2381  0.039356038  0.041340475            6 
  317000    1.1472347   -6.0752872    149.78848  0.039376572  0.041314553            3 
  318000     1.133413   -6.0792987    149.43051  0.039158939  0.041288829            2 
  319000    1.1434467    -6.081575    150.35467  0.039277604  0.041262208            3 
  320000    1.1152508   -6.0671033    150.68545  0.039241004  0.041236306            5 
  321000    1.1450456    -6.079985     151.0347  0.039209423  0.041208937            4 
  322000    1.1196409   -6.0517644    151.29873  0.039155986  0.041181906            4 
  323000    1.1459127   -6.0752618    151.63929  0.039122623  0.041154144            5 
  324000    1.1179868   -6.0604354    152.29197  0.039169745  0.041126597            7 
  325000    1.1299444   -6.0772707    152.54243  0.039113442  0.041100352            5 
  326000    1.1364281   -6.0909672    153.06545  0.039127159  0.041073518            4 
  327000    1.1387657   -6.0499458    152.91981   0.03897039  0.041045081            5 
  328000    1.1151691   -6.0911045    152.54373  0.038756029  0.041014674            2 
  329000     1.149924   -6.1061678    152.90565  0.038729901  0.040983019            4 
  330000    1.1043003   -6.0788873    153.55698  0.038777014  0.040952175            5 
  331000    1.1312595   -6.1107301    153.70067  0.038696039  0.040920369            2 
  332000    1.1214753   -6.0630386    154.17139  0.038697639  0.040888175            4 
  333000    1.1248924   -6.0998468    154.72137  0.038719061  0.040856182            2 
  334000    1.1414717   -6.0874347    154.93184  0.038655648  0.040825491            6 
  335000    1.1067583   -6.1006938    155.39022  0.038654283  0.040794969            5 
  336000    1.1490638   -6.0449438     156.0554  0.038704216  0.040764477            3 
  337000    1.1319154   -6.0701792     156.6098  0.038726458  0.040734303            8 
  338000    1.1277492   -6.0886002    156.92336  0.038689191  0.040703907            9 
  339000    1.1386321   -6.0774364    157.18512  0.038639409  0.040674037            4 
  340000    1.1181254   -6.0736411    158.07466   0.03874379  0.040646145            4 
  341000     1.125797   -6.0830222    158.76177  0.038798086  0.040619223            4 
  342000    1.1142881   -6.1092934    159.27373  0.038809388  0.040593329           10 
  343000    1.1058839   -6.1193159    159.98081   0.03886803  0.040567941            3 
  344000    1.1249808   -6.0928433    159.48254  0.038634337   0.04054328            8 
  345000    1.1412068   -6.0841353    160.17303  0.038689139  0.040517641            2 
  346000    1.1427765   -6.0978158    160.56248  0.038671117  0.040491831            4 
  347000    1.1035528   -6.1005133    161.33194  0.038744462   0.04046508            3 
  348000     1.118893   -6.1065204    161.31673  0.038629485  0.040438595            7 
  349000    1.1193379   -6.0691109    160.85317   0.03840811    0.0404106            4 
  350000    1.1097168    -6.119955    161.83375  0.038531845  0.040382767            7 
  351000    1.0904973   -6.1632665    161.55419  0.038355696  0.040354751            2 
  352000    1.1222695   -6.1233168    162.01219  0.038355158  0.040326011            3 
  353000    1.1138333   -6.0891901    162.85618  0.038445747  0.040297431            7 
  354000    1.1183715   -6.0977734    162.69054  0.038298149  0.040267957            3 
  355000    1.0930057   -6.1074555    163.62243   0.03840902  0.040238721            3 
  356000    1.1124661   -6.0961678    163.65427  0.038308584  0.040208172            7 
  357000    1.1314437   -6.0980706    163.85518  0.038248175  0.040178178            6 
  358000    1.1192022   -6.1201202    164.04489  0.038185496  0.040147901            2 
  359000    1.1145276   -6.1083509    164.44118   0.03817112   0.04011726            3 
  360000    1.1100072   -6.1247741    165.06467  0.038209415  0.040086831            6 
  361000    1.1175415   -6.1281752     164.9939  0.038087235  0.040056048           12 
  362000    1.1294336   -6.0865007    166.01113  0.038216189  0.040026755            5 
  363000    1.1033801   -6.1260227    165.64068  0.038025867    0.0399972            4 
  364000    1.1225403   -6.1345995    166.15389  0.038038894  0.039967706            4 
  365000    1.1124213   -6.1381169    166.81646  0.038085951  0.039937623            5 
  366000    1.0863544   -6.0994977     166.8654  0.037993032  0.039907181            6 
  367000    1.1272803   -6.1002191    167.33349  0.037995796  0.039877569            4 
  368000    1.0804575   -6.1034978    167.60135  0.037953205  0.039848372            3 
  369000    1.1089738    -6.102021     168.2603  0.037999164  0.039818305            5 
  370000    1.0917586   -6.1228844    168.43176   0.03793508  0.039787987            6 
  371000     1.106607   -6.0676002    168.80088   0.03791574  0.039757723            4 
  372000    1.1100459   -6.1210237    169.01057  0.037860791  0.039727298            4 
  373000    1.1034562   -6.1028095    169.39728  0.037845683  0.039697364           10 
  374000    1.0885113   -6.0936408    170.10446  0.037902062  0.039666869            2 
  375000    1.1365323   -6.1016667    169.66459  0.037703243  0.039636813            3 
  376000    1.0839387    -6.118233    170.43554  0.037773834  0.039606362            5 
  377000    1.0849175   -6.1028748    170.67153  0.037725802  0.039575966            4 
  378000    1.1072179   -6.1012696    171.50614  0.037809995  0.039546017            3 
  379000    1.0674506   -6.1252958     171.3176  0.037668778  0.039515957            9 
  380000    1.0982226   -6.0909851    171.61875  0.037635691  0.039485957            3 
  381000    1.1128883   -6.1218149    172.34777  0.037696362  0.039455684            6 
  382000    1.0854017   -6.1199132    173.03072  0.037746668  0.039426039            2 
  383000    1.0790127   -6.1541976    172.65368  0.037566076  0.039397304            5 
  384000    1.0808833   -6.1408277    172.97675  0.037538357  0.039367924            5 
  385000    1.0773662   -6.1294642    173.93238  0.037647702   0.03933885            6 
  386000    1.0919119    -6.159324    174.04238  0.037573917  0.039310079            5 
  387000    1.1048131   -6.1485212    174.72721  0.037624291  0.039281826            2 
  388000    1.1015264   -6.1220459    175.66254  0.037728209  0.039254132            5 
  389000    1.1014208   -6.1156185    175.97282   0.03769769  0.039226696            3 
  390000     1.092158   -6.0788748    176.61601  0.037738465   0.03919977            5 
  391000    1.1084911   -6.1378874    176.35734  0.037586815  0.039172507            7 
  392000    1.0980696   -6.0791748    176.95538  0.037618066  0.039145551            6 
  393000    1.1169282   -6.1333523    177.34744   0.03760548  0.039119257            5 
  394000    1.0897023    -6.177563    177.64956  0.037573935  0.039093436            5 
  395000    1.0850318   -6.1554664    177.90304  0.037532287  0.039067821            8 
  396000    1.0770452    -6.137001    178.52076  0.037567501  0.039042698            3 
  397000    1.1016257   -6.1295953     178.8845  0.037549223  0.039016568            5 
  398000    1.0809789   -6.1629325    179.38933   0.03756058  0.038991704            5 
  399000    1.0851118   -6.1564696    179.91349  0.037575918  0.038967085           10 
  400000    1.0703314   -6.1594433    179.92724  0.037484842  0.038941923            8 
  401000    1.0982862   -6.1397238    180.27904  0.037464472   0.03891718            9 
  402000    1.0874785   -6.1293819    181.17395  0.037556788  0.038892193            5 
  403000    1.0750863   -6.1356522    181.33044  0.037495955   0.03886723            9 
  404000    1.0890955   -6.1613495    181.54443  0.037447283  0.038841568            4 
  405000    1.1095492   -6.1612337    181.91313  0.037430685  0.038816321            9 
  406000    1.0978013   -6.1209076    182.29924  0.037417742  0.038791478            3 
  407000    1.0725134   -6.1340985      182.777  0.037423628   0.03876671            5 
  408000    1.0853995   -6.1372992    182.60967  0.037297728  0.038742413            8 
  409000    1.1090571   -6.1586797    183.35033  0.037357442  0.038717452           11 
  410000    1.0587466   -6.1544248    184.03474  0.037405434  0.038692607            3 
  411000    1.1070506   -6.1544771     183.9808  0.037303488  0.038668552            6 
  412000    1.1027754   -6.1432498    184.34421  0.037286451  0.038643506            2 
  413000     1.076414   -6.1443793    184.21184  0.037169459  0.038617989            5 
  414000    1.0890332   -6.1463588    184.51695  0.037141094  0.038592578            6 
  415000    1.0735501   -6.1334192    185.06838  0.037162325  0.038566632            3 
  416000    1.0873816   -6.1954947       184.81  0.037021235   0.03854019            5 
  417000    1.0967279   -6.1259985    185.64475  0.037099271  0.038512778            5 
  418000    1.0783318    -6.159953    186.00149  0.037081636  0.038485714            6 
  419000    1.0679975   -6.1340218    187.21489  0.037234466  0.038460457            7 
  420000    1.0566658   -6.1475985    186.92666  0.037088623  0.038435178            5 
  421000    1.0855057   -6.1945305     186.5854  0.036932977  0.038409245            6 
  422000    1.0613288   -6.1570785    187.08322  0.036943763  0.038382863            5 
  423000    1.0886154   -6.1579181    187.54717  0.036947826  0.038356384            3 
  424000    1.1149328   -6.1303332    187.69901  0.036890529  0.038330239            3 
  425000    1.0819872   -6.1425642    188.34174  0.036929753  0.038304549            5 
  426000    1.0676415   -6.1510892    189.07248  0.036986009  0.038278347            3 
  427000    1.0881555   -6.1460701    189.57677  0.036997809  0.038252277            6 
  428000    1.1071981   -6.1916489    189.01966  0.036802893   0.03822565            6 
  429000    1.0659126   -6.1747639    189.49361   0.03680917  0.038199404            5 
  430000    1.0782814   -6.1774991    189.89401  0.036801165  0.038173036            3 
  431000    1.0841217   -6.1715935    189.69841  0.036677959  0.038145729            4 
  432000    1.1080024   -6.1346016    190.19175  0.036688223  0.038118589            3 
  433000    1.0889053   -6.1710544     190.1079  0.036587355   0.03809126            7 
  434000    1.0668307   -6.1541318    191.06481  0.036686792  0.038063375            6 
  435000    1.1051147   -6.1197652    191.08433  0.036606194  0.038035691            3 
  436000    1.0836342   -6.1634281    190.58895  0.036427551  0.038007951            4 
  437000    1.0687217   -6.1737333    191.13873  0.036449033  0.037980064            6 
  438000    1.0900805   -6.2130671    191.95542  0.036521199  0.037952364            5 
  439000    1.0961839   -6.1531863    191.75382  0.036399737   0.03792428            3 
  440000     1.084685    -6.161589    192.60655  0.036478513  0.037896924            2 
  441000    1.0722985   -6.1592546    192.31353  0.036340424  0.037868817            4 
  442000    1.0762037   -6.1587704    192.81022  0.036351851   0.03784061            4 
  443000    1.0918483   -6.1589601    193.53255  0.036405671  0.037812967            3 
  444000    1.0435018   -6.1567095    193.93452  0.036399123  0.037785367            4 
  445000    1.0661482   -6.1657808    193.66773  0.036267366   0.03775835            6 
  446000    1.0849044   -6.2024268     194.7192  0.036382511  0.037731088            5 
  447000    1.0758942   -6.1797373    194.44352  0.036249724  0.037703456            4 
  448000    1.0795541   -6.2009644    195.04705  0.036281073  0.037676316            6 
  449000    1.0814599   -6.1447603    195.89824  0.036358248  0.037649441            3 
  450000    1.0756598   -6.1889905    196.26675  0.036345695  0.037623004            3 
  451000    1.0806698   -6.1403428      196.683  0.036342017  0.037596362            7 
  452000    1.0619388   -6.1599178     197.2245  0.036361449  0.037569672            5 
  453000    1.0796346    -6.210393    196.54868  0.036156858  0.037542599            3 
  454000    1.0743694   -6.1727096    197.24075  0.036204249  0.037516012            3 
  455000    1.0708097   -6.2026505    197.60543  0.036191471  0.037489097            6 
  456000    1.0731707   -6.1830788    197.78248   0.03614446  0.037462658            5 
  457000    1.0858425   -6.1634545    198.06479  0.036116848  0.037436303            5 
  458000    1.0860699   -6.2116379    198.65739  0.036145813  0.037410764           12 
  459000    1.0612888   -6.1615051    199.46857  0.036214337  0.037384474            5 
  460000    1.0896897   -6.1511327    199.43716  0.036129921  0.037358229            8 
  461000    1.0965085    -6.202563     199.8669   0.03612923  0.037332256            3 
  462000    1.0856066    -6.146268    199.96887  0.036069421   0.03730609            6 
  463000    1.0815176   -6.1702926    200.83188  0.036146847  0.037280452            3 
  464000    1.0723068   -6.1805142     200.7039  0.036045958  0.037255157            4 
  465000    1.0649147   -6.1820782    200.80204  0.035986029  0.037229567            4 
  466000    1.0954027    -6.184048    201.70811  0.036070835  0.037203553            4 
  467000    1.0663409   -6.2276351    200.88514  0.035846741  0.037177517            4 
  468000    1.0756283   -6.1934011    202.29597  0.036021363   0.03715154            8 
  469000    1.0539011   -6.1636274    202.87302  0.036047089  0.037125892            5 
  470000    1.0715998   -6.1910767    203.14979  0.036019466  0.037100865            7 
  471000    1.0590076     -6.22099     202.7873  0.035878856  0.037075424            4 
  472000    1.0613235   -6.1889773    203.60916  0.035947945   0.03705081            5 
  473000    1.0831745   -6.1718628     204.0471  0.035949102  0.037026362            6 
  474000    1.0741327    -6.168118    204.18641  0.035897751  0.037001491            5 
  475000    1.0928566   -6.2039272    204.09465   0.03580608  0.036976635            3 
  476000    1.0894143   -6.1677915    204.60798  0.035820725  0.036951737            5 
  477000    1.0565586   -6.1876307    205.21947  0.035852458  0.036926428            5 
  478000    1.0892492   -6.1799902    205.13211  0.035762222  0.036901654            9 
  479000    1.0932956   -6.1558028    206.05407  0.035847959  0.036877151           12 
  480000    1.0631853   -6.1727871    206.42631    0.0358379  0.036853017           10 
  481000    1.0747541   -6.1944341    206.18908  0.035722293  0.036827579           15 
  482000    1.0748177   -6.2102374    206.34109  0.035674463  0.036802156            5 
  483000    1.0743955   -6.2076472    206.98311  0.035711371  0.036776715            7 
  484000    1.0707037   -6.1890295    207.40803  0.035710749  0.036752028            4 
  485000    1.0836719   -6.1685862    207.72587  0.035691731  0.036727357           10 
  486000    1.0736088   -6.1736645    208.23728  0.035705981  0.036702909            4 
  487000    1.0381478   -6.1851413    208.99143   0.03576171  0.036678664            5 
  488000    1.0676681    -6.213725    208.01119  0.035521037  0.036653675            4 
  489000    1.0530587   -6.1912331    208.60735  0.035549992  0.036627913            4 
  490000    1.0346118   -6.1975405    209.09015  0.035559549  0.036602691            4 
  491000    1.0704326   -6.1711598    209.07224  0.035484087   0.03657702            5 
  492000    1.0436971   -6.2053571    209.36794   0.03546205  0.036551095            9 
  493000    1.0485318   -6.1933958    209.51386  0.035414784  0.036525818            2 
  494000    1.0692481   -6.1920767    209.88763  0.035406146  0.036500549            6 
  495000    1.0566156   -6.2158522    209.34426  0.035243142  0.036474638            9 
  496000     1.065292   -6.2037541    210.35663  0.035342177  0.036448507            4 
  497000    1.0474878   -6.2237726    209.99265  0.035210035   0.03642257            7 
  498000    1.0508542   -6.2060933    209.96996  0.035135535  0.036396385            7 
  499000    1.0558781   -6.2118963    210.63853  0.035176775  0.036369687            5 
  500000         1.07   -6.1949665    210.85237  0.035142061  0.036343057            6 
  501000    1.0462051   -6.2199707    212.14175  0.035286386  0.036316625            8 
  502000    1.0470316   -6.2297715    212.17024  0.035220824  0.036290866            5 
  503000    1.0524955   -6.2061481    212.24857   0.03516378  0.036265537            3 
  504000    1.0686824   -6.2198157    212.98166  0.035215221  0.036240102            6 
  505000    1.0499891   -6.1549828    213.97647  0.035309649  0.036214933            3 
  506000    1.0449248   -6.2014463    213.63156  0.035183062  0.036189925           11 
  507000    1.0390709   -6.2623395    212.84233  0.034983947  0.036164325            3 
  508000    1.0642549   -6.2148728     214.2487  0.035145784  0.036139459            6 
  509000    1.0662947   -6.2504134    214.51855  0.035120915  0.036114787            8 
  510000    1.0544814   -6.2078947    215.73491  0.035250802  0.036090519           10 
  511000    1.0620729   -6.2128262    215.92116  0.035212192  0.036066454            5 
  512000    1.0342206   -6.1911361    215.84267  0.035130643  0.036042665            9 
  513000    1.0394557   -6.2163936    216.07259  0.035099511   0.03601873            5 
  514000    1.0465476   -6.2131052    216.26698  0.035062739  0.035994917            6 
  515000    1.0417351   -6.2322635    217.00762  0.035114502  0.035971063           12 
  516000    1.0445363   -6.2469412    216.94392  0.035036163  0.035947471           17 
  517000    1.0400968   -6.2215312    217.46214  0.035051925  0.035923725            3 
  518000    1.0658592   -6.1990639    217.75288   0.03503103  0.035899797           11 
  519000    1.0315348   -6.1878012    218.18012  0.035032132  0.035876605            3 
  520000    1.0586963   -6.2357497    218.76178  0.035057978  0.035853669            9 
  521000    1.0484623   -6.2166203    218.83625  0.035002599  0.035830375            5 
  522000    1.0333539   -6.2086825     218.7729   0.03492543  0.035807411            6 
  523000     1.045501   -6.2461971    219.01149  0.034896668  0.035784238            6 
  524000    1.0424966   -6.2552083    219.55277  0.034916153   0.03576091            6 
  525000    1.0363745   -6.2312373    219.70821  0.034874319  0.035737323            7 
  526000    1.0702143   -6.1995678    220.24518  0.034893089   0.03571424            5 
  527000    1.0283455   -6.2462247    220.82424  0.034918444  0.035691353            5 
  528000    1.0723321   -6.2174188    221.34417   0.03493437  0.035668551            8 
  529000    1.0378121   -6.1972364    220.88185  0.034795503  0.035645653            5 
  530000     1.056739   -6.2292486     221.7858  0.034871982  0.035622536            3 
  531000     1.038368   -6.2143811     221.9201  0.034827385  0.035598715            7 
  532000    1.0374884    -6.225801    221.83175  0.034748081  0.035575806            7 
  533000    1.0585449   -6.1890102    222.76752  0.034829193  0.035552887           11 
  534000    1.0405705   -6.2256888    223.43727  0.034868487  0.035530696            6 
  535000    1.0287417   -6.2304182     223.0981  0.034750483  0.035508536            4 
  536000    1.0303793   -6.2117244    224.54568  0.034910709  0.035486385            4 
  537000    1.0432181   -6.2106549    223.48924  0.034681757  0.035464296            5 
  538000    1.0634072    -6.224999    224.48449  0.034771451  0.035442805            8 
  539000     1.062319   -6.2515084    223.94559  0.034623623  0.035420761           14 
  540000    1.0355421   -6.2257758    225.35109  0.034776402  0.035398808            8 
  541000    1.0306857   -6.2240512    225.80316  0.034781756  0.035376922            7 
  542000    1.0260545   -6.2178725    224.98533   0.03459184  0.035354814            3 
  543000    1.0342487   -6.2235289    225.67267  0.034633621  0.035333227            5 
  544000    1.0385556   -6.2597586    226.70675  0.034728363  0.035311603            4 
  545000    1.0210814   -6.1963341    226.70721  0.034664711  0.035290202            4 
  546000    1.0399389   -6.2718417    226.40922  0.034555742  0.035269094            7 
  547000    1.0401142   -6.2496128    228.01702   0.03473751  0.035247807            9 
  548000    1.0321334   -6.2499178    227.99729  0.034671121  0.035227031            4 
  549000     1.037625   -6.2602817    228.33029  0.034658514  0.035206274            6 
  550000    1.0103358   -6.2410561    228.85394  0.034674839   0.03518578           11 
  551000    1.0294951   -6.2466431    228.81632  0.034606219  0.035165315            4 
  552000    1.0365348   -6.2730521    229.32003   0.03461957  0.035144419            5 
  553000    1.0366939   -6.2457689    229.50952  0.034585522  0.035123718            5 
  554000    1.0548172   -6.2646147    229.19427  0.034475672   0.03510239           16 
  555000    1.0242976   -6.2522713    230.52256  0.034612996  0.035081884            7 
  556000    1.0218712    -6.232324     230.9398   0.03461328  0.035062115            6 
  557000    1.0495165   -6.2147707    231.46385  0.034629541  0.035042567            5 
  558000    1.0511199   -6.2565459    230.95547  0.034491557  0.035022911            8 
  559000    1.0430773   -6.2532734    231.33778  0.034486849  0.035003271            6 
  560000    1.0437996   -6.2384868    232.59118  0.034611782  0.034983585            7 
  561000    1.0520327   -6.2609644    232.09702  0.034476682  0.034963606            6 
  562000    1.0324212   -6.2391835    231.97792  0.034397675  0.034943051            3 
  563000    1.0368872   -6.2602739     232.3355  0.034389505  0.034922656            3 
  564000    1.0105846   -6.2376168    233.12443  0.034445099  0.034902318            3 
  565000    1.0603758   -6.2316392    233.19438  0.034394452  0.034882054            8 
  566000    1.0196521   -6.2533266    233.24732  0.034341479  0.034861698            4 
  567000    1.0218798   -6.2162253    233.46163  0.034312409  0.034841181            6 
  568000    1.0437793   -6.2688825    233.46824  0.034252969  0.034820261            8 
  569000     1.007168   -6.2543718    234.11291  0.034287186   0.03479968            8 
  570000    1.0077498   -6.2675457    234.78376  0.034325111  0.034779518            3 
  571000    1.0106763   -6.2848504     235.2458  0.034332429  0.034758926            4 
  572000    1.0453011   -6.2638255    234.62506  0.034181972  0.034738618           18 
  573000    1.0348627   -6.2559881    235.15178  0.034198922  0.034718047           11 
  574000    1.0007852    -6.277673    236.09693  0.034276558  0.034697877            5 
  575000    1.0009342   -6.2567176    236.07997  0.034214488  0.034678069            4 
  576000    1.0244676   -6.2502872    236.27557  0.034183386  0.034658159            4 
  577000    1.0202766   -6.2556185    237.11768  0.034245766  0.034638462            9 
  578000    1.0270297   -6.2620929    236.84237  0.034146823  0.034618945            4 
  579000    1.0285473   -6.2387139    237.58946  0.034195374  0.034599013            6 
  580000    1.0213004   -6.2604628    237.34281  0.034100978   0.03457854            6 
  581000     1.031953   -6.2516851    236.84416  0.033970762  0.034558322            4 
  582000    1.0248464   -6.2378882    237.58254  0.034018119  0.034538022            7 
  583000    1.0236188   -6.2189744    238.42366  0.034079997  0.034517498            5 
  584000     1.022812   -6.2222976    238.44055  0.034024051  0.034497214            3 
  585000    1.0397993   -6.2723546    238.64143  0.033994506  0.034476444            4 
  586000    1.0240743   -6.2882603    238.40828  0.033903339  0.034455538            8 
  587000    1.0262038   -6.2453387    238.46416  0.033853515  0.034434817            4 
  588000    1.0111268   -6.2756172    239.69453  0.033970313  0.034414165            5 
  589000   0.99773032    -6.277188     238.7425  0.033777943  0.034393737            8 
  590000    1.0319753    -6.269542    239.04225   0.03376303  0.034373074            6 
  591000      1.03357    -6.276467    239.75952  0.033807039  0.034352407            7 
  592000     1.006093    -6.300891    240.14181  0.033803745  0.034331538            5 
  593000    1.0097501   -6.2981412    240.58353  0.033808815  0.034310675            4 
  594000     1.011108    -6.247629    241.17036  0.033834226  0.034289725            6 
  595000     1.018703   -6.3081146    240.76274  0.033720272    0.0342686            3 
  596000    1.0251011    -6.254943    241.63115  0.033785117  0.034247612            4 
  597000   0.98939652   -6.2762236    241.90852  0.033767242  0.034227044            4 
  598000    1.0171919   -6.2725667    242.00829  0.033724678  0.034206697            8 
  599000    1.0081065    -6.290016    242.30722  0.033709964  0.034186418            6 
  600000    1.0200183   -6.2419758    243.07703  0.033760698  0.034166514            7 
  601000    1.0346269   -6.2558139    242.62289  0.033641554  0.034146428            3 
  602000    1.0239706   -6.2997238    243.51824  0.033709613  0.034126604            6 
  603000    1.0391245   -6.2754802    243.79942  0.033692568  0.034107233            9 
  604000    1.0020566   -6.3222815    244.22911   0.03369607  0.034087559            7 
  605000     1.017851   -6.2231453    244.83197  0.033723411  0.034067798            8 
  606000    1.0213866   -6.2706979    244.37155  0.033604449  0.034048116            6 
  607000      1.02166   -6.2835997    245.17567  0.033659483  0.034028536            4 
  608000    1.0081324   -6.2884665    245.55219  0.033655727  0.034008954            4 
  609000    1.0023606   -6.2941898    244.66932  0.033479655  0.033989388           10 
  610000    1.0113689   -6.2848067    246.07177  0.033616361  0.033970345            5 
  611000    1.0051792   -6.2893171    246.29235  0.033591428  0.033951382            9 
  612000    1.0228352   -6.3069323    246.35197  0.033544658  0.033932248            6 
  613000    1.0169574   -6.3149887     246.6773  0.033534162  0.033912832            5 
  614000   0.99238637   -6.3123207    247.09606  0.033536381  0.033893496            7 
  615000    1.0064824   -6.2831064    248.14221  0.033623605  0.033874569            6 
  616000     1.005239   -6.2872581    247.35568  0.033462618  0.033855615           10 
  617000    1.0064198   -6.2845668    248.13063  0.033513051  0.033836428            5 
  618000    1.0010696   -6.3083348    248.18764  0.033466511  0.033817199           11 
  619000    1.0283367   -6.3020616     248.1945  0.033413369  0.033797729            6 
  620000    1.0149239   -6.3333196    248.45064  0.033393903  0.033777833            5 
  621000    1.0195749    -6.276603    248.72097  0.033376405   0.03375808            5 
  622000    1.0266008   -6.3213314    249.16765   0.03338259  0.033738403            9 
  623000   0.99463662   -6.3151185    248.59885  0.033252923  0.033718618            9 
  624000    1.0218395   -6.3025281    249.24906  0.033286466  0.033698748            4 
  625000    1.0282641   -6.3165997    249.22333  0.033229778  0.033679302            8 
  626000    1.0052652   -6.2879728    250.55594  0.033354092  0.033659605            5 
  627000   0.99609355    -6.292842    250.66607  0.033315533  0.033639964            7 
  628000    1.0129018   -6.3058702    250.21779  0.033202998  0.033620109            7 
  629000    1.0026004   -6.2942688    250.67027  0.033210157   0.03360019            5 
  630000    1.0233557   -6.3097617    251.44153  0.033259462  0.033580614            5 
  631000   0.98613122   -6.2482016    251.59643   0.03322721  0.033561071            4 
  632000   0.98039767   -6.2914217     251.0634  0.033104352  0.033541453           17 
  633000      1.01268   -6.3114814    250.94295  0.033036196  0.033521283            7 
  634000   0.99853721   -6.3174898    251.71278  0.033085276  0.033501146            2 
  635000    1.0276821   -6.3153995    252.86955  0.033184981  0.033481647           13 
  636000   0.99208032   -6.2916349    253.28964  0.033187846   0.03346258           10 
  637000    1.0081685   -6.3388632    253.04763  0.033104086  0.033443056            3 
  638000    1.0030258    -6.281305    254.06063  0.033184513  0.033423912           13 
  639000   0.99994366   -6.2876887    253.57272  0.033068952  0.033404924            7 
  640000   0.99650165   -6.2980021    254.61085  0.033152454  0.033386345           10 
  641000   0.99323411   -6.3444397    253.50509   0.03295698   0.03336695            4 
  642000    1.0118142   -6.3331863    254.23483  0.033000367  0.033347432            5 
  643000    0.9888274   -6.3241765    254.77638   0.03301923   0.03332784            4 
  644000   0.98875279   -6.3511891    254.41257  0.032920881  0.033308008           12 
  645000     1.000197   -6.2812469    255.50089  0.033010451  0.033288296            4 
  646000   0.99285249   -6.3104983    255.44117  0.032951648  0.033268704            7 
  647000    1.0021981     -6.33869    255.20187  0.032869896  0.033248664           10 
  648000    1.0001816   -6.3347011    255.58146  0.032867986  0.033228717            4 
  649000   0.98666817    -6.322322      256.645  0.032953904  0.033208975            9 
  650000   0.99191311   -6.3036623    256.89597   0.03293538  0.033189738           10 
  651000   0.99766138   -6.2738415    256.70264  0.032860041  0.033170754            5 
  652000    1.0080538   -6.2780738    257.33677  0.032890691  0.033151965            6 
  653000    0.9887717   -6.3069099    257.43362  0.032852682  0.033133063            4 
  654000   0.99050184   -6.2978769    257.51133  0.032812351  0.033114227            7 
  655000    0.9986922   -6.3487465    257.94637  0.032817605  0.033094879            5 
  656000    0.9959581   -6.2962967    257.68076  0.032733837  0.033075328           11 
  657000   0.97541032   -6.3425282    258.17215   0.03274634  0.033055956           22 
  658000   0.98269221   -6.2994394    258.49044  0.032736884  0.033037068           12 
  659000   0.98882389   -6.3008171    259.44022  0.032807311  0.033018584            6 
  660000    1.0077406   -6.3346884    259.88248  0.032813444  0.033000021            3 
  661000    1.0029438   -6.2907782    259.56754  0.032724097  0.032981264            8 
  662000   0.99737342   -6.3417245    259.37132  0.032649965  0.032962332            9 
  663000    1.0022532   -6.3674833    259.98394  0.032677719  0.032942939            7 
  664000    1.0028943   -6.3134429    259.97969  0.032627973  0.032923472            2 
  665000    1.0059206   -6.3220978    259.62404  0.032534341  0.032903592            7 
  666000   0.97707476   -6.3155102    259.50809  0.032470982  0.032883708            4 
  667000   0.99409448   -6.3213006    259.60083  0.032433887  0.032863691            3 
  668000   0.99661659   -6.3190941    259.28805  0.032346314  0.032843276            7 
  669000   0.98491701   -6.3457635     259.6368  0.032341406  0.032822797            8 
  670000   0.98186443   -6.2930042    261.08862  0.032473709  0.032802409            9 
  671000   0.97108586   -6.3640886    260.37286   0.03233642  0.032781903            3 
  672000   0.97001688   -6.3468761    261.44603  0.032421383  0.032761653            8 
  673000   0.96861451   -6.3595353    261.15472  0.032337137  0.032741387            7 
  674000   0.97691964   -6.3266487    261.15915  0.032289706  0.032721002            6 
  675000   0.99070444   -6.3366029    260.74786  0.032191094  0.032700694            3 
  676000    0.9739376   -6.3704038    262.06022  0.032305254  0.032680091            4 
  677000   0.96922117   -6.3713129    260.40847  0.032054218  0.032659138           10 
  678000   0.99055316    -6.341457    261.30318   0.03211691  0.032638173            7 
  679000   0.98123021   -6.3241745    262.51275  0.032218059  0.032617051            6 
  680000   0.98848344   -6.3651347     261.8595  0.032090625  0.032596251            4 
  681000   0.98401765   -6.3696705    262.38064  0.032107274   0.03257526           12 
  682000   0.97007111   -6.3743841    262.80926  0.032112568  0.032554517            6 
  683000   0.97716543    -6.292259    263.22737  0.032116565  0.032534068            4 
  684000   0.97478104   -6.3634929    262.66932  0.032001622  0.032512777            8 
  685000   0.99769254   -6.3520488    262.71895  0.031960942  0.032491509            9 
  686000   0.95717418   -6.3209057    263.16349  0.031968354  0.032470255            5 
  687000   0.97558328   -6.3367832     263.8308  0.032002766  0.032449333            3 
  688000   0.99687704   -6.3287315    263.81146  0.031953908  0.032428301           10 
  689000    0.9733231   -6.3520229    264.13957  0.031947214  0.032407157           11 
  690000   0.97227707   -6.3026928    265.18106  0.032026698  0.032386425            3 
  691000   0.98184563   -6.3519208    265.03821  0.031963123  0.032365322           12 
  692000   0.99254322   -6.3491615    264.80974  0.031889419    0.0323443            6 
  693000   0.97432158   -6.3630453    265.49557  0.031925875   0.03232372           10 
  694000   0.95166462   -6.3716356      265.358  0.031863352  0.032302967            5 
  695000     0.983562    -6.372813    265.37444  0.031819477  0.032282294           11 
  696000    0.9758095   -6.3382934    265.65571  0.031807436  0.032261655            5 
  697000   0.98176742   -6.3690997    265.63296  0.031759082  0.032240707           11 
  698000   0.99369472   -6.3514788    265.77718  0.031730799  0.032219504            8 
  699000   0.97552002   -6.3232895    266.80331  0.031807739  0.032198266           16 
  700000   0.95784193   -6.3675602    265.62357  0.031621854  0.032176897            9 
  701000   0.97383351   -6.3892436    266.14502  0.031638733  0.032155359            7 
  702000    0.9592092   -6.3540019    266.64883   0.03165347  0.032133965           11 
  703000   0.97502434   -6.3754518     267.1354  0.031666122  0.032112816            6 
  704000    0.9811266   -6.3626896    267.43736  0.031656884  0.032092071            7 
  705000   0.97323484   -6.3687164     268.4021  0.031726016  0.032071258           10 
  706000   0.93671845   -6.3623343    267.30758  0.031551887  0.032050723            9 
  707000   0.95361015   -6.3450329    268.29732  0.031623918  0.032030274            6 
  708000   0.98159931   -6.4010407    268.78835  0.031637046  0.032009938           21 
  709000   0.95573487   -6.3753028    268.60894  0.031571337   0.03198964            5 
  710000    0.9855067   -6.3610001    269.15978  0.031591523  0.031969373            4 
  711000   0.96974283   -6.3502582    269.90602  0.031634554  0.031949225            8 
  712000    0.9602242   -6.3570912    270.03131  0.031604788  0.031929136           11 
  713000   0.99242155   -6.3559919    270.20454  0.031580708  0.031909301            3 
  714000    0.9409227   -6.3788105     271.1933  0.031651879  0.031889568            4 
  715000   0.97816354   -6.3440138    271.10961  0.031597857   0.03186995            5 
  716000   0.94771252   -6.3496196    271.40776  0.031588426  0.031850457            4 
  717000   0.96622355   -6.3956548    270.99425   0.03149631  0.031830832           12 
  718000   0.97646961   -6.3816015    271.19694  0.031475968  0.031810684           10 
  719000   0.96428562   -6.3670962    271.63667  0.031483156   0.03179049            4 
  720000   0.97119401   -6.3349408     271.3012  0.031400601  0.031770646           13 
  721000   0.95207469   -6.3721805    271.93664  0.031430494  0.031750834           13 
  722000   0.95194464   -6.3370809    272.88804  0.031496772  0.031731122            5 
  723000   0.95467935   -6.3920069      272.451  0.031402836  0.031711401            8 
  724000   0.97499029   -6.3302489    273.14874  0.031439772  0.031691649            8 
  725000   0.98393689   -6.3783373    273.20016  0.031402318  0.031672241           21 
  726000   0.95630268   -6.3581704    273.35151  0.031376436  0.031652596            5 
  727000   0.97524865   -6.3703545    272.73974  0.031263152  0.031632715            5 
  728000   0.95866908    -6.356718     273.7124  0.031331547   0.03161282            5 
  729000   0.96009583   -6.3796505    273.74137   0.03129188  0.031592907            7 
  730000   0.96880531   -6.3872876     273.6712  0.031241005  0.031573406            8 
  731000   0.94241905   -6.3843067    274.22734  0.031261666  0.031553762            4 
  732000   0.94438798   -6.3815656    274.40573  0.031239268  0.031534172            8 
  733000   0.95572986   -6.3719739    274.25877  0.031179942  0.031514114            7 
  734000   0.95375794    -6.368911    274.41328  0.031155004  0.031494073            7 
  735000   0.93958331   -6.3948311    274.43532  0.031115115  0.031473714            8 
  736000   0.95826469   -6.3617342      274.573  0.031088428  0.031453547           16 
  737000   0.95216269   -6.3882465    275.98375   0.03120576  0.031433469            6 
  738000   0.95757168   -6.3845954    274.99503  0.031051832  0.031413695            8 
  739000   0.95591433   -6.3544358    276.26699  0.031153247  0.031393694            6 
  740000   0.94071477   -6.3667779     276.1562  0.031098671  0.031373897           16 
  741000   0.95570302   -6.3851057    276.13516  0.031054337  0.031354079           25 
  742000    0.9688522    -6.381309    276.67753  0.031073398  0.031334019            8 
  743000   0.96153587   -6.3815086    276.65693  0.031029265  0.031314101            5 
  744000   0.97014955   -6.3843831    276.14266  0.030929958  0.031293929            5 
  745000   0.96598561   -6.4177562    276.51989  0.030930636  0.031273633            7 
  746000   0.96282973   -6.3683808    276.75592  0.030915541  0.031253272            8 
  747000   0.95978294   -6.3247449    277.47716  0.030954614  0.031233137           11 
  748000   0.95514465   -6.3886821    276.54291  0.030809147  0.031213052            9 
  749000   0.94877235   -6.4296007    277.61005  0.030886744  0.031192826            9 
  750000   0.96247577   -6.3481297    278.01409  0.030890454  0.031172914            7 
  751000    0.9422683   -6.3995011    277.72844  0.030817625  0.031152615            5 
  752000   0.94315304   -6.3913319    278.20238  0.030829165  0.031132049            5 
  753000   0.94192118   -6.4265985    277.74526  0.030737634  0.031111478            8 
  754000   0.97889631   -6.3583628    278.17386  0.030744238  0.031091286            6 
  755000   0.95704955   -6.3879727    278.25515  0.030712489  0.031071008           20 
  756000   0.94803112   -6.3836399    278.48019   0.03069667  0.031050889           11 
  757000   0.94554817   -6.3867611    279.16143  0.030731113  0.031030597            5 
  758000   0.94350614   -6.4149881    278.99814  0.030672619   0.03101065            7 
  759000   0.96956889   -6.3739992    279.31598  0.030667104  0.030990599            4 
  760000   0.95119119    -6.417302    279.62842  0.030661011  0.030970214            9 
  761000    0.9497501   -6.4072604    278.97568  0.030549242  0.030949677            9 
  762000   0.95110226   -6.3894587    280.32149   0.03065633  0.030929551            7 
  763000   0.92666403   -6.3835337    279.58445  0.030535655  0.030909318            4 
  764000   0.96133988   -6.3958308    280.47062  0.030592345  0.030889263           11 
  765000    0.9354709   -6.4178032    280.81641  0.030590023  0.030869279            9 
  766000   0.92451639   -6.3860118    281.07554  0.030578279  0.030849326            8 
  767000   0.92166455   -6.3714491    279.92746  0.030413675  0.030829334            8 
  768000   0.94712875   -6.4093425    280.20781  0.030404493  0.030808971            8 
  769000   0.93895779   -6.4152149    281.48374  0.030503223  0.030788637            6 
  770000   0.92528099   -6.3955932    282.04081  0.030523897  0.030768818            7 
  771000   0.95558279    -6.391754    282.13349  0.030494324   0.03074888           11 
  772000   0.94506883   -6.4418605    281.70561  0.030408636  0.030728751           12 
  773000    0.9464294   -6.4375978    281.88251  0.030388368  0.030708317            8 
  774000   0.93230707   -6.4065905    281.85479  0.030346123  0.030687806            9 
  775000   0.93233878   -6.3967225    282.05591  0.030328593  0.030667454           11 
  776000    0.9269932    -6.401973    281.68214   0.03024937  0.030647116            6 
  777000   0.95201723    -6.389601    282.33408  0.030280361  0.030626466            3 
  778000   0.94605101   -6.4005874    281.82926  0.030187367  0.030605755           10 
  779000   0.94179793   -6.4177029    282.44674   0.03021467   0.03058506            5 
  780000   0.95233615     -6.40358    282.26631  0.030156657  0.030564368            5 
  781000   0.92607591    -6.416722    283.04144  0.030200751   0.03054358           13 
  782000   0.93082873   -6.4234084    283.39415  0.030199718  0.030522617            5 
  783000    0.9275001   -6.4245836    281.89236  0.030001315  0.030501699            7 
  784000    0.9618052   -6.4033374    283.73712  0.030159133  0.030480775            6 
  785000   0.94931478   -6.4347279    283.01287  0.030043829  0.030459675            4 
  786000   0.94771632   -6.4065007    283.49858  0.030057101  0.030438631            9 
  787000   0.93633065   -6.4495912    282.60069  0.029923834  0.030417417            5 
  788000   0.92493803   -6.4170909    283.68865  0.030000915   0.03039626            9 
  789000   0.92302119   -6.4137868    283.33811  0.029925867  0.030375084           16 
  790000   0.93186959   -6.4216326    283.77001  0.029933545  0.030353992            5 
  791000   0.93824648   -6.4316127    283.54166  0.029871646  0.030332561           11 
  792000   0.94635881   -6.4203343     283.9063  0.029872296  0.030311199           11 
  793000   0.91406455   -6.3878923    283.78799  0.029822193  0.030289753           11 
  794000   0.94673381   -6.4175208    284.02612  0.029809626  0.030268543            7 
  795000   0.92188131   -6.4275801    284.63462  0.029835914  0.030247172            5 
  796000   0.93416177   -6.3910354    285.07531  0.029844567   0.03022593            6 
  797000    0.9463722    -6.440616    284.89801  0.029788583  0.030204801           11 
  798000   0.92256126   -6.4649171     285.0184  0.029763826  0.030183532            5 
  799000   0.95430534   -6.4144582    285.87551  0.029815969  0.030162213           12 
  800000   0.94055887   -6.4568693    285.62282  0.029752377  0.030140977           12 
  801000   0.94592414   -6.4372987    285.27405  0.029678948  0.030119579            9 
  802000   0.94318734   -6.4333453    286.00611  0.029718008  0.030098355           24 
  803000   0.92520421   -6.4440816      286.229   0.02970413  0.030077282           12 
  804000   0.93826973   -6.4345635    287.05199  0.029752486  0.030056305            5 
  805000   0.94185486   -6.3919336    287.03933  0.029714216  0.030035481            8 
  806000   0.93891392   -6.4614186    286.29554  0.029600449  0.030014464            6 
  807000    0.9111584   -6.4666105    287.00818  0.029637359  0.029993295           11 
  808000   0.92307593    -6.424565    287.29272  0.029630025   0.02997225            6 
[...]
 1800000   0.53719883   -7.7334759     331.9282  0.015367046   0.01405739         3966 
 1801000   0.54721343   -7.7389401    331.11426  0.015320852  0.014045276         3958 
 1802000   0.53263778   -7.7258853    331.30632  0.015321232  0.014033174         3958 
 1803000   0.52460975    -7.732048    331.21357  0.015308448  0.014021084         3966 
 1804000     0.540128   -7.7255896    331.27653   0.01530287  0.014009009         3966 
 1805000   0.53775219   -7.7552767     331.6627  0.015312221  0.013996945         3968 
 1806000   0.52495956   -7.7407259    330.96246  0.015271431  0.013984894         3971 
 1807000   0.51828523   -7.7308831    331.42821  0.015284459  0.013972863         3964 
 1808000   0.52224742   -7.7392053    330.95021  0.015253973  0.013960831         3968 
 1809000   0.52307342   -7.7478793     331.6224  0.015276506  0.013948827         3970 
 1810000   0.51091564   -7.7447746    331.15977  0.015246766  0.013936814         3965 
 1811000   0.54038638   -7.7383936    330.98794  0.015230441  0.013924821         3968 
 1812000   0.53648737   -7.7452418    330.74268  0.015210756  0.013912849         3975 
 1813000    0.5189778   -7.7270924    331.12739  0.015220049   0.01390089         3966 
 1814000   0.52395659   -7.7608887    331.25812  0.015217664  0.013888944         3966 
 1815000   0.52442581   -7.7498991    331.84944   0.01523643  0.013877007         3967 
 1816000   0.52273638   -7.7535851     331.3668  0.015205892  0.013865078         3960 
 1817000   0.53205684    -7.748488    331.42899  0.015200376  0.013853177         3969 
 1818000   0.52981316   -7.7276128    331.27794  0.015185091  0.013841275         3967 
 1819000    0.5267437   -7.7211647    330.94678  0.015161571  0.013829391         3965 
 1820000     0.520055    -7.748387    331.31491  0.015170097  0.013817517         3970 
 1821000   0.53577943   -7.7484478    330.99955  0.015147334  0.013805649         3964 
 1822000   0.53213627   -7.7406754    331.22497  0.015149331  0.013793808         3969 
 1823000   0.52523418    -7.747506    331.58138  0.015157313  0.013781979         3961 
 1824000   0.52612033    -7.743131     331.1285  0.015128312   0.01377016         3967 
 1825000   0.54438853   -7.7536375    331.51383  0.015137618  0.013758347         3970 
 1826000   0.51515495   -7.7500075    331.08043  0.015109549  0.013746548         3970 
 1827000   0.52299608   -7.7471654     330.7941  0.015088219  0.013734761         3961 
 1828000   0.52892326   -7.7496412    330.72018  0.015076595  0.013722982         3973 
 1829000   0.52069279   -7.7421661    330.73692  0.015069114  0.013711217         3966 
 1830000    0.5201066    -7.745163    331.12261  0.015078443  0.013699469         3963 
 1831000   0.53232501   -7.7504048     331.1042   0.01506937  0.013687738         3966 
 1832000   0.52052943   -7.7454223    331.36935  0.015073205  0.013676013         3964 
 1833000   0.51883894   -7.7765268    331.05006  0.015050467  0.013664301         3965 
 1834000   0.52224168   -7.7558443    331.43607    0.0150598  0.013652601         3965 
 1835000   0.52876021   -7.7650219    331.28931  0.015044928  0.013640906         3967 
 1836000   0.51486521   -7.7438192    330.71406  0.015010624  0.013629228         3964 
 1837000   0.52746627   -7.7617718    330.85576   0.01500888  0.013617571         3974 
 1838000   0.52148998   -7.7541878    330.60344  0.014989274  0.013605928         3968 
 1839000   0.54545549   -7.7607062    331.40742  0.015017556  0.013594299         3966 
 1840000   0.51312443   -7.7571786    330.69256  0.014977018  0.013582682         3966 
 1841000   0.53377795    -7.755021    331.33885  0.014998138  0.013571076         3965 
 1842000   0.52464462   -7.7680824    331.58538  0.015001148  0.013559477         3969 
 1843000   0.51891742   -7.7534111     330.9491  0.014964238  0.013547892         3965 
 1844000   0.52600285   -7.7499056     330.8359  0.014951008  0.013536318         3966 
 1845000   0.51371201   -7.7702368    331.39793   0.01496829  0.013524766         3967 
 1846000   0.52411988   -7.7604123    330.70586  0.014928939  0.013513221         3969 
 1847000   0.51753073   -7.7398621    330.85841  0.014927739  0.013501679         3970 
 1848000   0.51335102   -7.7519727    330.90712  0.014921858  0.013490154         3961 
 1849000     0.523348   -7.7661921     330.7616  0.014907229  0.013478646         3971 
 1850000   0.50789427   -7.7618746    330.80213  0.014900997  0.013467153         3973 
 1851000   0.50819283   -7.7730588    330.68518  0.014887682  0.013455664         3971 
 1852000   0.51701896   -7.7480386    330.59981  0.014875801   0.01344419         3967 
 1853000   0.51900683   -7.7808691    331.30049  0.014899285  0.013432733         3961 
 1854000   0.50472577   -7.7547886    330.70748  0.014864594  0.013421279         3970 
 1855000   0.50892771   -7.7617844    330.93749  0.014866913  0.013409843         3969 
 1856000   0.50057497   -7.7683171    331.04869  0.014863896  0.013398423         3964 
 1857000   0.51716203   -7.7617874    330.95263  0.014851581  0.013387006         3967 
 1858000   0.51665847   -7.7600341     331.1346  0.014851749  0.013375604         3971 
 1859000   0.50935679   -7.7524998    330.69584  0.014824092  0.013364218         3969 
 1860000   0.51277032    -7.768497    330.83177  0.014822212   0.01335284         3963 
 1861000   0.51095705   -7.7714258    331.55932  0.014846826  0.013341472         3964 
 1862000   0.50757209   -7.7537478    331.02315  0.014814856  0.013330117         3965 
 1863000   0.50097222   -7.7718741     331.2003  0.014814828  0.013318777         3969 
 1864000   0.50422734   -7.7722901    331.11572  0.014803099  0.013307444         3968 
 1865000   0.49451869   -7.7785631    330.90563  0.014785774  0.013296122         3962 
 1866000   0.51534024   -7.7673086    331.16117  0.014789263  0.013284816         3964 
 1867000   0.51286628   -7.7720836     330.6191  0.014757146  0.013273526         3969 
 1868000   0.50474976    -7.777087    331.03063  0.014767605  0.013262248         3962 
 1869000   0.51358845   -7.7615577    331.25587  0.014769746   0.01325098         3976 
 1870000   0.51256891   -7.7753259    330.18981  0.014714341  0.013239721         3964 
 1871000   0.49625153   -7.7764583    330.50728  0.014720616  0.013228478         3964 
 1872000   0.51040605   -7.7893272    330.76404  0.014724183  0.013217252         3966 
 1873000   0.50851694   -7.7744902    330.76263  0.014716259  0.013206026         3963 
 1874000   0.50867403   -7.7700596    331.00851   0.01471934  0.013194817         3962 
 1875000   0.50179689   -7.7657906    330.91626  0.014707389   0.01318362         3966 
 1876000   0.50592127    -7.792665     330.6596  0.014688148  0.013172436         3968 
 1877000   0.50525669   -7.7746519    330.56207  0.014675993  0.013161265         3966 
 1878000   0.49996398   -7.7662225    330.81033  0.014679194  0.013150108         3956 
 1879000   0.49760967   -7.7742277     330.7315  0.014667886  0.013138952         3961 
 1880000   0.50944356   -7.7740205    330.37089    0.0146441  0.013127811         3957 
 1881000    0.4934945   -7.7732886    330.80751  0.014655658  0.013116687         3960 
 1882000   0.49795298   -7.7782237    330.82783  0.014648771  0.013105588         3963 
 1883000   0.50124731     -7.78784    331.05416  0.014651007   0.01309449         3964 
 1884000   0.49691934   -7.7618186    330.24625  0.014607495  0.013083403         3963 
 1885000   0.50516445   -7.7770604    330.49135  0.014610581  0.013072333         3962 
 1886000   0.50906068    -7.768268     331.0322  0.014626732  0.013061273         3960 
 1887000     0.496145   -7.7750902    330.59247  0.014599562  0.013050216         3964 
 1888000   0.50255758   -7.7705988    330.57684  0.014591139  0.013039173         3959 
 1889000    0.4950959   -7.7896781    331.53782  0.014625808  0.013028147         3967 
 1890000    0.5028079   -7.7764473     330.8164  0.014586261  0.013017134         3966 
 1891000   0.48467477   -7.7858497    331.13759  0.014592702  0.013006132         3963 
 1892000   0.49190722   -7.7889156    330.54576  0.014558922  0.012995141         3965 
 1893000   0.48671842   -7.7970738    330.40271  0.014544933  0.012984162         3964 
 1894000   0.49700051   -7.7892768    329.91981  0.014516007  0.012973188         3975 
 1895000   0.48791137   -7.7761839    330.54562  0.014535867  0.012962231         3967 
 1896000   0.48877039   -7.7760831    330.03307  0.014505673  0.012951284         3968 
 1897000   0.50270276   -7.7790069    331.18928  0.014548817   0.01294035         3965 
 1898000   0.50337765   -7.7849406    330.15205  0.014495612  0.012929427         3967 
 1899000   0.48418356   -7.7641666    330.44003  0.014500616  0.012918506         3973 
 1900000   0.50210904   -7.7868234    330.64809  0.014502109  0.012907613         3970 
 1901000   0.49153098   -7.7848015     330.9448  0.014507487  0.012896727         3970 
 1902000   0.48758601   -7.7857428    330.57551   0.01448368  0.012885853         3963 
 1903000   0.49229199   -7.7766794    330.36793  0.014466979  0.012874982         3962 
 1904000   0.49157213   -7.7776764    330.61634  0.014470253  0.012864128         3963 
 1905000   0.49965055   -7.8140908    330.98924  0.014478969  0.012853292         3964 
 1906000   0.49460961   -7.7991974    330.09001  0.014432057  0.012842468         3969 
 1907000   0.48972019   -7.7887743    330.11279  0.014425485  0.012831653         3969 
 1908000   0.49638717   -7.8024615    330.50395  0.014435008  0.012820845         3973 
 1909000   0.48400414   -7.7995046    330.06074  0.014408099  0.012810042         3967 
 1910000   0.48403951   -7.7966522    330.29939  0.014410968  0.012799252         3972 
 1911000   0.48577941   -7.8024953    330.41271  0.014408369  0.012788477         3972 
 1912000    0.4906619   -7.7941012    330.10855  0.014387576  0.012777719         3972 
 1913000   0.48316221   -7.7948149    330.40011  0.014392756  0.012766966         3971 
 1914000   0.48361121   -7.7989459    330.57858  0.014393007  0.012756237         3969 
 1915000      0.49408   -7.7901573    330.47596  0.014381025  0.012745507         3963 
 1916000   0.50166376   -7.7940751    330.58556  0.014378286  0.012734792         3969 
 1917000   0.48752645   -7.8023856    330.75198   0.01437802  0.012724089         3973 
 1918000   0.49099811   -7.7870794    330.62821  0.014365146  0.012713395         3977 
 1919000   0.48415646   -7.7862696    330.30115  0.014343458  0.012702715         3972 
 1920000   0.48889424   -7.8188209    330.72966  0.014354586  0.012692044         3970 
 1921000   0.48973534   -7.8037958    330.08343   0.01431908   0.01268139         3966 
 1922000   0.48467446   -7.8030006    330.11771  0.014313116  0.012670742         3969 
 1923000   0.48531033    -7.783583    330.11666  0.014305627   0.01266011         3968 
 1924000   0.48556267   -7.8067979    330.32042  0.014307018  0.012649485         3968 
 1925000   0.48669892   -7.7984364    330.09558  0.014289852  0.012638878         3973 
 1926000   0.47732558   -7.8057334    330.46405  0.014298375  0.012628273         3970 
 1927000   0.48725466   -7.8056141    329.93443  0.014268052  0.012617683         3969 
 1928000   0.47765133    -7.809958    330.32638  0.014277592  0.012607109         3970 
 1929000    0.4783703   -7.8079535    330.42114  0.014274285  0.012596545         3970 
 1930000   0.47544599   -7.8069829    330.21063  0.014257799  0.012585984         3971 
 1931000   0.47887219   -7.8196311    330.35203  0.014256518  0.012575445         3970 
 1932000   0.47615127   -7.8048957    330.33304   0.01424832  0.012564913         3971 
 1933000   0.48692088     -7.81007    330.17484  0.014234128  0.012554388         3968 
 1934000   0.46942021   -7.8072871    330.51162   0.01424128  0.012543876         3961 
 1935000   0.47279436   -7.8313455    330.38827  0.014228608  0.012533371         3955 
 1936000   0.47796071   -7.8179624    330.09957  0.014208831  0.012522849         3965 
 1937000    0.4694444   -7.8282967    330.00487  0.014197422  0.012512343         3962 
 1938000   0.49169293   -7.8145023    330.01129  0.014190372  0.012501843         3972 
 1939000   0.48443593   -7.8257291    329.87254   0.01417709  0.012491366         3965 
 1940000   0.47539956   -7.8346259    330.24627  0.014185836  0.012480898         3966 
 1941000   0.48068377   -7.8325745    330.08418  0.014171569  0.012470438         3971 
 1942000   0.47409176   -7.8217244    330.03596  0.014162202  0.012459985         3969 
 1943000   0.47599704   -7.8214007    329.63576  0.014137749  0.012449544         3968 
 1944000    0.4845034   -7.8444046    329.77169  0.014136304  0.012439114         3967 
 1945000   0.47453027   -7.8450009    330.36425  0.014154424  0.012428705         3966 
 1946000   0.46466428   -7.8364675    329.55031  0.014112295  0.012418294         3965 
 1947000    0.4657829   -7.8226876    329.92105  0.014120915  0.012407899         3969 
 1948000    0.4756067   -7.8418357    329.91183  0.014113272  0.012397521         3966 
 1949000   0.46360141   -7.8382785    330.37817  0.014125969   0.01238715         3960 
 1950000    0.4742566   -7.8341231    329.80756   0.01409434  0.012376791         3967 
 1951000   0.48181945   -7.8270162    329.88869  0.014090581  0.012366442         3965 
 1952000     0.474155   -7.8434305    330.04688  0.014090116  0.012356103         3971 
 1953000   0.47420894   -7.8363162    329.84168  0.014074146  0.012345777         3964 
 1954000   0.47424356   -7.8609888    329.58384  0.014055947  0.012335462         3971 
 1955000    0.4759838   -7.8375968    329.71971  0.014054549  0.012325151         3971 
 1956000   0.46743394   -7.8360158    329.97755  0.014058348  0.012314862         3969 
 1957000   0.46738568   -7.8208876      329.881  0.014047053  0.012304578         3962 
 1958000   0.48422813   -7.8373104    329.94235   0.01404249  0.012294309         3963 
 1959000   0.46921892    -7.847626    329.78531  0.014028642  0.012284053         3972 
 1960000   0.47582922   -7.8230942    329.99469  0.014030387   0.01227381         3970 
 1961000    0.4832869   -7.8472506    329.53844  0.014003843  0.012263577         3965 
 1962000   0.46988425   -7.8483341    330.35593  0.014031428  0.012253351         3969 
 1963000   0.47063317   -7.8230592    329.71268  0.013996972  0.012243139         3965 
 1964000   0.46966563   -7.8381264    329.62919  0.013986303  0.012232936         3966 
 1965000   0.48079486   -7.8343292    329.84893  0.013988504  0.012222739         3969 
 1966000   0.47831896   -7.8449632    329.56573  0.013969385  0.012212562         3970 
 1967000    0.4657553   -7.8328435     329.7766  0.013971217  0.012202394         3967 
 1968000   0.47734754   -7.8209028    329.61454  0.013957255  0.012192238         3965 
 1969000   0.46596234   -7.8345827    329.50849  0.013945678  0.012182082         3958 
 1970000   0.47708423   -7.8558776    329.95062  0.013957302  0.012171949         3974 
 1971000   0.46900466   -7.8450021    329.37654  0.013925949  0.012161826         3969 
 1972000   0.46558842   -7.8518316    329.83575  0.013938292  0.012151711         3966 
 1973000   0.46930151   -7.8386474     329.5234  0.013918035  0.012141601         3968 
 1974000   0.46518355   -7.8246659    329.73186  0.013919785  0.012131508         3971 
 1975000     0.459061   -7.8461042    329.62033  0.013908031  0.012121422         3971 
 1976000    0.4595762   -7.8498085    329.88581  0.013912189   0.01211135         3971 
 1977000   0.46851024   -7.8503962    329.60035  0.013893119  0.012101287         3969 
 1978000   0.47121209   -7.8476923    329.72068  0.013891164  0.012091234         3967 
 1979000   0.45475554   -7.8459598    329.87332  0.013890573  0.012081187         3971 
 1980000   0.46237327   -7.8393927    329.31683  0.013860136  0.012071156         3963 
 1981000   0.45708353   -7.8502151    329.62343  0.013866037  0.012061138         3969 
 1982000   0.46307854    -7.842789    329.51778  0.013854599  0.012051127         3969 
 1983000   0.46386414   -7.8373356    329.45635  0.013845031  0.012041128         3971 
 1984000    0.4584798   -7.8466495     329.7198  0.013849118  0.012031136         3967 
 1985000   0.46970921   -7.8477142    329.47565  0.013831891  0.012021164         3965 
 1986000   0.46598825   -7.8560758    329.76274  0.013836973  0.012011195         3966 
 1987000    0.4595855   -7.8475666    329.21612  0.013807084  0.012001237         3969 
 1988000   0.46426731   -7.8514692    329.12674  0.013796393  0.011991295         3969 
 1989000   0.45622408   -7.8495205    329.65111  0.013811426  0.011981361         3969 
 1990000   0.45579193   -7.8366411    329.49842  0.013798091  0.011971435         3974 
 1991000    0.4656339   -7.8527907    329.80502  0.013803994  0.011961523         3965 
 1992000   0.45216727   -7.8542139    329.19144  0.013771395   0.01195162         3967 
 1993000   0.45375928   -7.8656713    329.79552  0.013789744  0.011941725         3964 
 1994000   0.45505778   -7.8523257    329.34977    0.0137642  0.011931843         3967 
 1995000   0.46443286   -7.8474892    329.17016  0.013749798  0.011921972         3959 
 1996000   0.46147098    -7.855842    329.77079  0.013767986  0.011912108         3969 
 1997000   0.45648173   -7.8570631     329.6285  0.013755154  0.011902257         3966 
 1998000   0.46072946   -7.8643929    329.73222  0.013752595  0.011892421         3967 
 1999000    0.4581546   -7.8549118    329.61602  0.013740871  0.011882596         3968 
 2000000   0.44724382   -7.8595593    329.25602  0.013719001   0.01187278         3968 
 2001000   0.45773248   -7.8520995    329.08119  0.013704864  0.011862968         3974 
 2002000   0.45212804   -7.8548897    329.42522  0.013712339  0.011853172         3972 
 2003000   0.45744982   -7.8682756    329.56338  0.013711241  0.011843382         3964 
 2004000    0.4550068   -7.8584099    329.28865  0.013692975  0.011833604         3967 
 2005000   0.45786218   -7.8463087    329.38915  0.013690322  0.011823844         3964 
 2006000   0.45571113    -7.856325    329.24809  0.013677638  0.011814085         3969 
 2007000   0.45389496   -7.8687401    329.42761  0.013678276  0.011804345         3968 
 2008000   0.46035982   -7.8643898    329.21162  0.013662501  0.011794607         3963 
 2009000   0.44407743   -7.8562677    329.21001  0.013655633   0.01178488         3970 
 2010000   0.44933902   -7.8493277    329.73488  0.013670601  0.011775169         3966 
 2011000   0.45638363   -7.8639701    328.98251  0.013632625   0.01176547         3960 
 2012000   0.44384703   -7.8485442    329.47546  0.013646266  0.011755777         3972 
Loop time of 4226.16 on 48 procs for 2000000 steps with 4000 atoms

Performance: 81776.339 tau/day, 473.243 timesteps/s
99.4% CPU use with 48 MPI tasks x no OpenMP threads

MPI task timing breakdown:
Section |  min time  |  avg time  |  max time  |%varavg| %total
---------------------------------------------------------------
Pair    | 256.53     | 268.7      | 287.31     |  35.2 |  6.36
Neigh   | 26.636     | 27.05      | 27.537     |   3.8 |  0.64
Comm    | 215.8      | 238.77     | 252.24     |  46.3 |  5.65
Output  | 5.5928     | 5.5944     | 5.6248     |   0.2 |  0.13
Modify  | 3625       | 3640.5     | 3655.6     |  13.9 | 86.14
Other   |            | 45.53      |            |       |  1.08

Nlocal:        83.3333 ave          91 max          77 min
Histogram: 2 2 14 3 6 8 3 8 1 1
Nghost:        1760.79 ave        1776 max        1746 min
Histogram: 1 4 8 4 8 5 7 4 2 5
Neighs:        10475.1 ave       11506 max        9541 min
Histogram: 2 1 7 10 6 7 8 4 2 1
FullNghs:      20950.1 ave       22730 max       19135 min
Histogram: 2 0 6 11 5 7 5 7 2 3

Total # of neighbors = 1005603
Ave neighs/atom = 251.40075
Neighbor list builds = 108032
Dangerous builds = 1

#clear
#
#next RN
#
#jump SELF
Total wall time: 1:10:29
