
units lj                  # Use reduced LJ style units
atom_style atomic         # Uncharged point particles
atom_modify map hash      # Needed for indexing of clusters etc
                          # Used to be able to find where atoms are in relation to each other.

lattice fcc 1.0 spacing 1 1 1
Lattice spacing in x,y,z = 1.5874011 1.5874011 1.5874011
region box block 0 10 0 10 0 10 units lattice
create_box 2 box
Created orthogonal box = (0.0000000 0.0000000 0.0000000) to (15.874011 15.874011 15.874011)
  3 by 4 by 4 MPI processor grid
create_atoms 1 box
Created 4000 atoms
  using lattice units in orthogonal box = (0.0000000 0.0000000 0.0000000) to (15.874011 15.874011 15.874011)
  create_atoms CPU = 0.002 seconds
set type 1 type/fraction 2 0.06 78393
Setting atom values ...
  252 settings made for type/fraction
mass 1 1.0
mass 2 1.0
pair_style lj/cut  3.5
pair_modify tail  yes
pair_coeff 1  1  1.0  1.0   # Intearaction between 1 and 1 set with epsilon = 1 and sigma = 1
pair_coeff 1  2  1.5  0.8
pair_coeff 2  2  0.5  0.88

write_data data.0
System init for write_data ...
Neighbor list info ...
  update every 1 steps, delay 10 steps, check yes
  max neighbors/atom: 2000, page size: 100000
  master list distance cutoff = 3.8
  ghost atom cutoff = 3.8
  binsize = 1.9, bins = 9 9 9
  1 neighbor lists, perpetual/occasional/extra = 1 0 0
  (1) pair lj/cut, perpetual
      attributes: half, newton on
      pair build: half/bin/atomonly/newton
      stencil: half/bin/3d
      bin: standard
WARNING: Not all mixed pair coeffs generated from mixing. Use write_data with 'pair ij' option to store all pair coeffs. (../write_data.cpp:312)


#############################
#   M E L T   S Y S T E M   #
#############################

velocity all create 2.4 2750902 mom yes dist gaussian # Assign velocities
                                                    # Temperature 2.4, random number seed, zero linear momentum
                                                                                # Gaussian distribution

timestep 0.002   # simulation timestep
thermo 1000       # output thermodynamic data every 1000 steps bf 100

# Define a fix  in this case with index 1 applied to all
# particles in the simulation. This fix is for simulations
# in the anisotropic NPT ensemble. Note that we use the MTK
# correction.
fix 1 all npt temp 2.4 2.4 0.1 iso 5.68 5.68 0.5 mtk yes tchain 5 pchain 5 # Use NPT ensemble
                                                                         # Set temperature and pressure and damping
                                                                         # Numbers of thermostats in chain and in barostat
run 10000          # run for 10000 steps
Per MPI rank memory allocation (min/avg/max) = 3.642 | 3.644 | 3.648 Mbytes
Step Temp E_pair E_mol TotEng Press Volume 
       0          2.4   -7.9704536            0   -4.3713536   -2.7323792         4000 
    1000    2.3968852   -4.5266376            0  -0.93220859    5.7782503    4973.1347 
    2000    2.3711444   -4.5262726            0  -0.97044516    5.8673918    4957.0678 
    3000    2.3834039   -4.5193462            0  -0.94513405    5.5669029    5007.4039 
    4000    2.4181998   -4.5321832            0  -0.90579029     5.714617    4979.6099 
    5000    2.4095794    -4.484674            0  -0.87120854    5.8623164    4982.1226 
    6000    2.3991004   -4.4746669            0  -0.87691607    5.4379308    5059.6366 
    7000    2.4308364   -4.5204184            0  -0.87507527    5.4127838    5029.6692 
    8000    2.3557526   -4.5093519            0  -0.97660647    5.6195112    4997.0278 
    9000    2.4318693    -4.541223            0  -0.89433098    5.6175176    4990.3281 
   10000    2.3912023   -4.5053347            0  -0.91942796     5.428691    5024.9582 
Loop time of 2.1388 on 48 procs for 10000 steps with 4000 atoms

Performance: 807929.661 tau/day, 4675.519 timesteps/s
99.6% CPU use with 48 MPI tasks x no OpenMP threads

MPI task timing breakdown:
Section |  min time  |  avg time  |  max time  |%varavg| %total
---------------------------------------------------------------
Pair    | 0.86467    | 0.93525    | 1.0326     |   3.6 | 43.73
Neigh   | 0.17835    | 0.18786    | 0.20996    |   1.4 |  8.78
Comm    | 0.65507    | 0.74895    | 0.82738    |   4.5 | 35.02
Output  | 0.00024041 | 0.00024546 | 0.00030184 |   0.0 |  0.01
Modify  | 0.20052    | 0.25186    | 0.29226    |   4.8 | 11.78
Other   |            | 0.01464    |            |       |  0.68

Nlocal:        83.3333 ave          97 max          74 min
Histogram: 2 4 3 18 8 6 5 1 0 1
Nghost:        1410.06 ave        1448 max        1390 min
Histogram: 5 5 11 9 8 6 1 1 1 1
Neighs:        7587.23 ave        9091 max        6695 min
Histogram: 3 5 9 10 11 5 3 0 1 1

Total # of neighbors = 364187
Ave neighs/atom = 91.046750
Neighbor list builds = 904
Dangerous builds = 204

# Equilibrate just above the melting temperature to avoid step fn in T

fix 1 all npt temp 1.25 1.25 0.1 iso 5.68 5.68 0.5 mtk yes tchain 5 pchain 5
run 2000
Per MPI rank memory allocation (min/avg/max) = 3.643 | 3.646 | 3.650 Mbytes
Step Temp E_pair E_mol TotEng Press Volume 
   10000    2.3912023   -4.5053347            0  -0.91942796     5.428691    5024.9582 
   11000    1.2517565   -6.0336643            0    -4.156499    5.6931398     4138.912 
   12000    1.2637731   -6.0358171            0   -4.1406314     5.950644    4116.6828 
Loop time of 0.45017 on 48 procs for 2000 steps with 4000 atoms

Performance: 767709.732 tau/day, 4442.765 timesteps/s
99.7% CPU use with 48 MPI tasks x no OpenMP threads

MPI task timing breakdown:
Section |  min time  |  avg time  |  max time  |%varavg| %total
---------------------------------------------------------------
Pair    | 0.2012     | 0.21376    | 0.22568    |   1.4 | 47.48
Neigh   | 0.030623   | 0.032316   | 0.034515   |   0.4 |  7.18
Comm    | 0.13953    | 0.15363    | 0.16719    |   1.8 | 34.13
Output  | 4.8838e-05 | 5.0511e-05 | 8.254e-05  |   0.0 |  0.01
Modify  | 0.041363   | 0.046088   | 0.050501   |   1.1 | 10.24
Other   |            | 0.004325   |            |       |  0.96

Nlocal:        83.3333 ave          94 max          73 min
Histogram: 1 3 2 5 16 9 7 3 1 1
Nghost:        1621.65 ave        1642 max        1588 min
Histogram: 1 0 3 3 2 11 10 9 5 4
Neighs:        9267.42 ave       10736 max        7817 min
Histogram: 1 0 4 6 14 13 5 3 1 1

Total # of neighbors = 444836
Ave neighs/atom = 111.20900
Neighbor list builds = 143
Dangerous builds = 7

#############################
# L I N E A R  Q U E N C H  #
#############################

# Define solid atoms. This closely follows ten Wolde  Ruiz-Montero and Frenkel  Faraday Discuss  1996  104  93-110
# Compute components of the per-atom q6 vector
compute q6 all orientorder/atom degrees 1 6 components 6 nnn NULL cutoff 1.3 # compute the Q6 parameter.
                                                                             # Use all neighbours within 1.3 unit cell.

# get number of connections
compute coord_number all coord/atom orientorder q6 0.5

# An atom is solid if it has 8 or more connections (of a possible 14)
variable is_solid atom c_coord_number>=8
group solid dynamic all var is_solid    # Must be dynamic to update
dynamic group solid defined

# do clustering
compute cluster solid cluster/atom 1.3 # Create a cluster where all atoms within are solid and max 1.3 units from another member

# define chunks one chunk per cluster
compute clus_chunks solid chunk/atom c_cluster nchunk every compress yes  # Says which atoms are in which chunk

# count the size of each chunk
compute size_chunks solid property/chunk clus_chunks count


# Find the maximum entry in the vector of chunk sizes
variable max_n equal max(c_size_chunks)


# Thermo style which includes this variable
# thermo_style custom step temp pe vol v_max_n

thermo ${N}  # Print the thermo information every 100 steps
thermo 1000  

# Reset the npt fix at a lower temperature (below freezing)
fix 1  all npt temp  ${temp} ${temp}  0.1  iso  5.68  5.68  0.5  mtk yes tchain  5  pchain  5
fix 1  all npt temp  0.45 ${temp}  0.1  iso  5.68  5.68  0.5  mtk yes tchain  5  pchain  5
fix 1  all npt temp  0.45 0.45  0.1  iso  5.68  5.68  0.5  mtk yes tchain  5  pchain  5

dump dmp2 all dcd ${N} traj.dcd
dump dmp2 all dcd 1000 traj.dcd


compute msd all msd com yes
variable twopoint equal c_msd[4]/6/(step*dt+1.0e-6)
fix 9 all vector 10 c_msd[4]
variable fit equal slope(f_9)/6/(10*dt)
thermo_style custom step temp pe c_msd[4] v_twopoint v_fit v_max_n

fix 1 all npt temp 1.25 ${temp} 0.1 iso 5.68 5.68 0.5 mtk yes tchain 5 pchain 5
fix 1 all npt temp 1.25 0.45 0.1 iso 5.68 5.68 0.5 mtk yes tchain 5 pchain 5
run 2000000 # 5000000  # Run for this many steps
Neighbor list info ...
  update every 1 steps, delay 10 steps, check yes
  max neighbors/atom: 2000, page size: 100000
  master list distance cutoff = 3.8
  ghost atom cutoff = 3.8
  binsize = 1.9, bins = 9 9 9
  4 neighbor lists, perpetual/occasional/extra = 1 3 0
  (1) pair lj/cut, perpetual
      attributes: half, newton on
      pair build: half/bin/atomonly/newton
      stencil: half/bin/3d
      bin: standard
  (2) compute orientorder/atom, occasional
      attributes: full, newton on
      pair build: full/bin/atomonly
      stencil: full/bin/3d
      bin: standard
  (3) compute coord/atom, occasional
      attributes: full, newton on
      pair build: full/bin/atomonly
      stencil: full/bin/3d
      bin: standard
  (4) compute cluster/atom, occasional
      attributes: full, newton on
      pair build: full/bin/atomonly
      stencil: full/bin/3d
      bin: standard
Per MPI rank memory allocation (min/avg/max) = 9.743 | 9.748 | 9.753 Mbytes
Step Temp PotEng c_msd[4] v_twopoint v_fit v_max_n 
   12000    1.2637731   -6.0358171 1.8995771e-30 1.3191507e-32 8.3333333e+20            3 
   13000    1.2770407   -6.0651468   0.57396167 0.0036792413  0.047309095            2 
   14000    1.2647712   -6.0141929    1.1556111  0.006878637  0.048041501            3 
   15000    1.2681909   -6.0953618    1.7080965 0.0094894246  0.047426451            3 
   16000    1.2414821   -6.1030229     2.273617  0.011841755  0.046730342            4 
   17000    1.2389432   -6.0222229    2.8620566  0.014029689  0.047536406            2 
   18000    1.2486022   -6.0612368    3.3914652  0.015701227  0.047313686            1 
   19000    1.2307179   -6.0390345    3.9790331  0.017451899  0.047107949            4 
   20000    1.2245193   -6.0473404    4.6234745  0.019264476  0.047516865            2 
   21000    1.2400896   -6.0597736    5.1994884   0.02063289  0.048083532            3 
   22000    1.2767952   -6.0905669    5.7822761   0.02190256  0.048214378            3 
   23000    1.2344937   -6.0939587    6.4096282   0.02322329  0.048436961            5 
   24000    1.2324288   -6.0804197    6.9811301  0.024240035  0.048596174            2 
   25000    1.2373605   -6.0900891    7.4348142  0.024782713  0.048466047            2 
   26000    1.2599826   -6.0576458     8.089172  0.025926833  0.048327704            3 
   27000    1.2695862   -6.0979614    8.6862632  0.026809454  0.048311976            3 
   28000    1.1934368   -6.0952689     9.173469  0.027301991  0.048275521            3 
   29000    1.2411073   -6.0942729    9.6218099  0.027648879  0.047998425            2 
   30000     1.244312   -6.0649628    10.133302  0.028148062  0.047696097            2 
   31000    1.2414396   -6.0289136    10.688246  0.028731843  0.047427779            3 
   32000    1.2525256   -6.0741971    11.178189  0.029109868  0.047175331            2 
   33000    1.2286113   -6.0598347    11.699209  0.029543456  0.046916032            2 
   34000    1.2230059   -6.0609279    12.291954  0.030127338  0.046727091            4 
   35000    1.2089467     -6.05883    12.819115  0.030521703  0.046579395            2 
   36000     1.229321   -6.0269314    13.361695   0.03092985  0.046435775            2 
   37000    1.2334933   -6.0309661    13.964073  0.031450615  0.046326778            5 
   38000     1.209444   -6.0911279    14.346982  0.031462678  0.046209186            3 
   39000     1.245373   -6.0781976    14.935877  0.031914266  0.046095024            3 
   40000    1.2424993   -6.0562929    15.411929  0.032108186  0.045958383            3 
   41000    1.2564026   -6.0822819    15.846489  0.032208311  0.045810147            2 
   42000    1.2384581   -6.0332335     16.49923  0.032736568  0.045651239            2 
   43000    1.2451412   -6.0593462    17.076323   0.03309365  0.045584136            3 
   44000    1.2298736   -6.1180323    17.716215  0.033553438  0.045563347            3 
   45000    1.2049301   -6.0551133    18.382068  0.034040866     0.045597            1 
   46000    1.2483912   -6.0675473    18.982883  0.034389281  0.045621058            3 
   47000    1.2149578   -6.0624347    19.371328  0.034346325  0.045652916            1 
   48000    1.2393158   -6.0478982    19.953836  0.034642076  0.045667138            4 
   49000    1.2529854   -6.0897089    20.527913  0.034911416  0.045675369            2 
   50000    1.2304811   -6.0458701    21.108983  0.035181639  0.045677682            3 
   51000    1.2379591   -6.1292752    21.469722  0.035081244  0.045676235            5 
   52000    1.2428071   -6.0860441    21.784472  0.034911013  0.045630158            1 
   53000    1.2464589   -6.0631337    22.298538  0.035060595  0.045538272            3 
   54000     1.221542   -6.1016995    22.748809  0.035106187  0.045451995            3 
   55000    1.2167485   -6.0892482     23.32476  0.035340546  0.045356887            1 
   56000    1.2170485    -6.095554     23.84272  0.035480238  0.045271918            2 
   57000     1.231197   -6.0344149    24.511435  0.035835431  0.045199505            2 
   58000    1.2394335   -6.0556663    24.875181  0.035740202  0.045135804            5 
   59000    1.2101285   -6.0995876    25.275507  0.035699868  0.045042702            6 
   60000    1.2035971   -6.0854971    25.833078  0.035879274  0.044936875            5 
   61000    1.2664065   -6.1029579    26.187875  0.035775786  0.044835731            2 
   62000    1.2121106   -6.0762834    26.767995  0.035978487  0.044737484            4 
   63000    1.2461018   -6.0951863    27.230975  0.036019807  0.044647487            2 
   64000    1.2240594   -6.0877406    27.876037  0.036296923  0.044575149            3 
   65000    1.2463616   -6.0815543    28.537469  0.036586499  0.044521278            1 
   66000    1.2285506   -6.1064204    28.988919  0.036602171  0.044485511            2 
   67000    1.2339038    -6.098858    29.538816  0.036739821  0.044440311            3 
   68000    1.2424533   -6.1184307    29.945596  0.036698034  0.044394803            3 
   69000    1.2468225   -6.1367632     30.59819  0.036954336  0.044357811            1 
   70000    1.2386893   -6.1232897    31.153407  0.037087389  0.044337312            6 
   71000    1.2167614   -6.1119301    31.746032  0.037260601  0.044326341            5 
   72000    1.2292684   -6.1171369    32.289267  0.037371837  0.044314185            3 
   73000    1.2192167   -6.0851471    32.826021  0.037472626  0.044302474            3 
   74000    1.2329844   -6.0638502    33.325899  0.037529165  0.044284227            2 
   75000    1.2279345   -6.1050336    33.655598  0.037395108  0.044271162            3 
   76000    1.2106505   -6.0899233    34.134232  0.037427886  0.044238064            1 
   77000     1.239263    -6.073791    34.791081  0.037652684  0.044213112            4 
   78000    1.2173637   -6.1201325    35.554713  0.037985804  0.044198383            9 
   79000    1.2236812   -6.1303546    36.168128  0.038152033  0.044207331            4 
   80000    1.2071757   -6.1271003    36.680187  0.038208528   0.04422183            5 
   81000     1.238388   -6.1366286    37.112182  0.038181257  0.044231645            4 
   82000    1.2274734   -6.0795144     37.68311  0.038295844  0.044238283            2 
   83000    1.2113925   -6.0616676    37.825932  0.037977843  0.044234981            3 
   84000    1.2355717   -6.1294404    38.310375  0.038006324  0.044211532            4 
   85000    1.2160504    -6.126703    38.912043  0.038149062   0.04418664            3 
   86000    1.2311455   -6.0601385     39.36164  0.038141124  0.044160267            2 
   87000    1.2053557   -6.1075869    39.476506  0.037812745  0.044115985            3 
   88000     1.219544   -6.1102557    40.089694  0.037963725  0.044064836            4 
   89000    1.2031343     -6.12519    40.465439  0.037888988  0.044017493            4 
   90000    1.2370091   -6.1027819    41.114702  0.038069168   0.04397069            3 
   91000    1.2131142   -6.1388148     41.78423  0.038263947   0.04393013            2 
   92000    1.2008959   -6.1244206    42.281555   0.03829851  0.043896806            3 
   93000    1.2274079   -6.1042962    42.958599  0.038493368  0.043866136            5 
   94000    1.2126547   -6.1159634    43.306043  0.038391882  0.043829836            4 
   95000    1.2302098   -6.0855872    43.747702  0.038375177  0.043790745            4 
   96000     1.217052   -6.0881137     44.34565  0.038494488  0.043761831            4 
   97000    1.1996564   -6.1106722    44.806942  0.038493936  0.043730946            2 
   98000    1.2071974   -6.1118942    45.289643  0.038511601   0.04370679            8 
   99000    1.2274211    -6.144693    45.779237  0.038534711  0.043676506            5 
  100000    1.2165411   -6.1029489    46.456431  0.038713692  0.043643885            4 
  101000     1.210649   -6.1595942    46.729022  0.038555298   0.04361191            3 
  102000    1.2360168   -6.1236546    46.939994  0.038349668  0.043568792            4 
  103000    1.2135482   -6.1387495    47.622447  0.038529487   0.04352226            2 
  104000     1.197545   -6.1154217    48.124979  0.038561682  0.043481015            2 
  105000    1.2015448    -6.125192    48.583801  0.038558572  0.043445621            2 
  106000    1.2294246   -6.1930091    49.030585  0.038546057  0.043413855            1 
  107000    1.1777714   -6.1129744    49.633329   0.03865524  0.043380578            1 
  108000    1.2344172   -6.1448926    50.456396  0.038932404  0.043358304            3 
  109000    1.2288623   -6.1031114    50.932491  0.038939213   0.04333629            2 
  110000    1.2101741   -6.1283595    51.367274  0.038914601  0.043313751            2 
  111000    1.2123957   -6.0946544    51.997968  0.039037513  0.043294554            5 
  112000    1.2321408   -6.1191406    52.776621  0.039268319  0.043288474            2 
  113000    1.2122527   -6.1221876    53.350522  0.039344043  0.043291933            3 
  114000    1.1921403   -6.1349592    53.940158   0.03942994   0.04329407            2 
  115000    1.1893434   -6.1378783    54.183896  0.039263692  0.043296707            3 
  116000    1.1958421   -6.0969562    54.743331  0.039327106  0.043294674            3 
  117000    1.2020636   -6.1363592    54.967444  0.039150601  0.043282919            2 
  118000    1.1993618   -6.1486814    55.321468  0.039068833  0.043266702            2 
  119000    1.1887824   -6.1229992     55.84857  0.039109642  0.043243942            6 
  120000    1.2250995   -6.1049456    56.397766  0.039165115  0.043223994            4 
  121000    1.2128995    -6.109656    56.926776  0.039205768   0.04320843            2 
  122000    1.1913089   -6.1246817    57.578535    0.0393296  0.043193466            5 
  123000    1.1840039   -6.1117099    57.790065  0.039153161  0.043177151            7 
  124000    1.1853599   -6.1303258    58.537135  0.039339473  0.043159605            6 
  125000    1.1979966   -6.1132685    58.838196  0.039225464  0.043137095            3 
  126000    1.2089332   -6.1309725    59.017529  0.039032757  0.043111483            3 
  127000    1.2085118   -6.1357803    59.851467  0.039272616  0.043087865            3 
  128000    1.2121066   -6.1083473    59.846307   0.03896244  0.043060489            2 
  129000    1.1869443   -6.1723201     60.39111  0.039012345  0.043024519            7 
  130000    1.2167896   -6.1223859    60.849982  0.039006399  0.042990205            2 
  131000    1.2298445    -6.142771    61.682731  0.039238379  0.042955012            5 
  132000    1.1795038   -6.1674862    61.631154  0.038908556  0.042920812            2 
  133000    1.1908491     -6.12347    62.114538  0.038918883  0.042885067            2 
  134000    1.1972764   -6.1382444    62.520393  0.038880841  0.042851358            2 
  135000    1.2120576   -6.1621924    63.207163  0.039016767  0.042817723            3 
  136000    1.2047231   -6.1480334    63.995677  0.039213037  0.042788738            3 
  137000    1.2158489   -6.1639539    64.328355   0.03912917  0.042766165            3 
  138000    1.2000396   -6.1640369     64.92279  0.039204583  0.042744417            3 
  139000    1.1845315   -6.1685027    65.447775  0.039237275  0.042720654            2 
  140000    1.1981047   -6.1519461    66.278361  0.039451405  0.042701495            3 
  141000    1.1952211   -6.1620332    66.756409  0.039454142  0.042686576            4 
  142000    1.1950493   -6.1580764    66.979988  0.039307505  0.042670973            2 
  143000    1.1689734    -6.130574    67.276411  0.039205368  0.042650334            3 
  144000    1.1778505   -6.1178973     68.03258  0.039370706  0.042631002            2 
  145000    1.1893535   -6.1491834    68.260327  0.039230073  0.042607685            3 
  146000    1.1942627   -6.1511628    68.628265  0.039171384  0.042581127            3 
  147000    1.1794607   -6.1410975    69.271051  0.039269303  0.042555492            6 
  148000    1.2066146     -6.17894    69.476012  0.039119376  0.042526875            2 
  149000    1.2054376   -6.1344477    70.052151  0.039179055   0.04249942            2 
  150000     1.187817   -6.1935314    70.708753  0.039282641  0.042472606            5 
  151000    1.1828787   -6.1206713    71.219243  0.039304218  0.042449738            4 
  152000    1.2155901   -6.1539677    71.677743  0.039297008  0.042428802            3 
  153000    1.1967488   -6.1550394    71.915896  0.039169878  0.042404084            6 
  154000    1.1781969   -6.1295152    72.561465  0.039264862  0.042381346            3 
  155000    1.1841029   -6.1371597     73.37476  0.039448796   0.04236063            2 
  156000    1.2068943   -6.1639413    73.837617  0.039443171  0.042347008            3 
  157000    1.2219192    -6.132992    74.396276  0.039488469  0.042338794            4 
  158000     1.163745   -6.1640233    74.994711  0.039554172  0.042331322            4 
  159000    1.2042712   -6.1584505    75.306759  0.039468951  0.042319148            3 
  160000    1.1877573   -6.1285361    75.927786  0.039545721  0.042304544            2 
  161000    1.2265612   -6.1260951    76.417128  0.039553379  0.042291623            2 
  162000    1.1688774   -6.1732803    76.896397   0.03955576  0.042278275            5 
  163000    1.2016239   -6.1477988    77.283891  0.039511192  0.042261051            3 
  164000    1.1775656   -6.1562475    77.867299  0.039566717  0.042243671            4 
  165000     1.195641   -6.1461525    78.015873  0.039401956   0.04222788            3 
  166000    1.1745013   -6.1345699    78.567008  0.039441269  0.042211942            3 
  167000    1.1866608   -6.1832361     78.88489  0.039363717  0.042193426            3 
  168000    1.1956891   -6.1416836    79.217703  0.039294495  0.042172784            3 
  169000    1.1729841   -6.1468405    79.811349  0.039354709  0.042151234            4 
  170000     1.192274    -6.161677     80.11489  0.039272005  0.042124633            4 
  171000    1.1921093   -6.1710515    80.680569  0.039318016  0.042100981            3 
  172000    1.1767395   -6.1488766    81.246966   0.03936384  0.042081446            4 
  173000    1.1659484   -6.1956863    81.633082  0.039322294  0.042061654            3 
  174000    1.1941376   -6.1578895    82.007031  0.039275398  0.042044319            2 
  175000    1.1954943   -6.1853087     82.66149  0.039362614   0.04202643            3 
  176000    1.1988381   -6.1730641     83.35413  0.039466917  0.042011888            1 
  177000    1.1845769   -6.1669003    83.727228  0.039419599  0.041998965            3 
  178000    1.1753905   -6.1599658    84.345796  0.039487732  0.041981574            3 
  179000    1.1853955   -6.1849396    84.898095  0.039524253  0.041966985            3 
  180000    1.1894046   -6.1443746    85.576105  0.039618567  0.041954417            3 
  181000    1.1979942   -6.2362637    85.569466  0.039396623  0.041940058            3 
  182000    1.2000245   -6.1806197    86.845269  0.039764317  0.041931285            3 
  183000    1.1633579   -6.1572276     87.48942  0.039840355  0.041927532            4 
  184000    1.2035997   -6.1783982     87.75898  0.039745915   0.04192316            4 
  185000    1.1858588   -6.1549199    88.219029  0.039738301  0.041916635            3 
  186000     1.177204   -6.1789684    88.873909  0.039818059  0.041913992            1 
  187000    1.1546293   -6.2082111    89.484561  0.039877255  0.041912064            5 
  188000    1.1833599   -6.1826818    89.444281  0.039647287  0.041906143            2 
  189000    1.1882482   -6.1854489    89.915629  0.039645339  0.041900347            3 
  190000    1.1734853   -6.1766572    90.310417  0.039609832  0.041890569            3 
  191000    1.1836546   -6.2126776    91.065203  0.039731764  0.041882818            2 
  192000     1.182163   -6.1651158     91.54414    0.0397327  0.041872876            1 
  193000    1.1625774   -6.1931191    91.867823   0.03966659  0.041863785            3 
  194000    1.1782545   -6.1741658    92.319283  0.039656049  0.041854766            3 
  195000     1.168912   -6.1870368    92.777581  0.039648539  0.041846771            4 
  196000    1.1780628   -6.1757008     93.50965  0.039757504  0.041838681            6 
  197000    1.1667335   -6.2105725    93.813023   0.03968402  0.041829488            2 
  198000    1.1692159   -6.1903323    94.274767  0.039677932  0.041817999            8 
  199000    1.1916149   -6.1974393    94.836444  0.039713754  0.041808382            2 
  200000    1.1740711   -6.1888551    94.881004  0.039533752  0.041798237           13 
  201000    1.1648706   -6.1709798    95.815257  0.039724402  0.041786976            4 
  202000    1.2090403   -6.1916952    96.516688  0.039817116  0.041779414            3 
  203000    1.1753837   -6.1806927    96.920972  0.039786934  0.041769485            2 
  204000    1.1547488   -6.1819499    97.268805  0.039733989  0.041757543            4 
  205000    1.1845097    -6.116588    97.272505  0.039541668  0.041745428            2 
  206000    1.1623876   -6.2176203    97.638615  0.039497821  0.041732017            4 
  207000    1.1656712   -6.2035815    98.165411  0.039519087  0.041715984            9 
  208000    1.1358471   -6.1865214    98.416023  0.039429496  0.041698975            2 
  209000    1.1941567   -6.2039432    99.072396   0.03950255  0.041684274            2 
  210000    1.1727008   -6.1895023    99.588367  0.039519193  0.041669504            3 
  211000    1.1771121   -6.2637666    99.434369  0.039271078  0.041651758            2 
  212000    1.1993206   -6.1845833    100.29615  0.039424586  0.041634686            3 
  213000    1.1715237   -6.2310043    100.47915   0.03931109  0.041617449            3 
  214000    1.1939386   -6.2023026    100.93281  0.039304055  0.041599189            4 
  215000     1.175094   -6.1879839    101.65272  0.039400278  0.041580693            4 
  216000    1.1799574   -6.2084264     102.2524  0.039449228   0.04156302            3 
  217000    1.1825849   -6.1978868    102.54182  0.039378578  0.041543961            3 
  218000    1.1768057    -6.185637     103.3097  0.039491475  0.041527729            4 
  219000    1.1592516   -6.1915694     103.7792    0.0394898  0.041512133            1 
  220000     1.139157   -6.2024548    104.20258  0.039470676  0.041493666            3 
  221000    1.1485184   -6.2005409    104.39771  0.039365652  0.041477388            4 
  222000    1.1508159   -6.2001901    105.13128  0.039463693  0.041460672            3 
  223000    1.1416928   -6.1900422    105.33375  0.039362389  0.041443961            3 
  224000    1.1805452   -6.2275406     105.4004  0.039211458  0.041427866            3 
  225000    1.1476651   -6.2233215    106.31901  0.039377411  0.041410663            5 
  226000    1.1370575   -6.2158429    106.54305  0.039285784  0.041395121            4 
  227000    1.1489069   -6.2256825    107.04924  0.039298548  0.041377425            3 
  228000     1.168553   -6.2333015    107.66589  0.039351567   0.04135884            3 
  229000    1.1311279   -6.2185965    107.87107  0.039254393  0.041340844            2 
  230000    1.1689251   -6.1729443    108.26978  0.039228182  0.041320567            6 
  231000    1.1439562   -6.2160053    108.36524  0.039092798   0.04129948            2 
  232000    1.1633194   -6.2102214    109.07377  0.039178796  0.041278998            3 
  233000    1.1541463   -6.1642926    109.33494  0.039104055  0.041259974            2 
  234000    1.1821269   -6.2209096    109.78699   0.03909793  0.041238624            3 
  235000     1.146302   -6.1890622    110.72753  0.039265083  0.041217603            2 
  236000    1.1612954   -6.1974904    111.15998  0.039251406  0.041197938            4 
  237000    1.1583482   -6.2110741    111.46036  0.039191408  0.041180166            5 
  238000    1.1736027   -6.2226378    112.03761  0.039228857  0.041164904            1 
  239000    1.1408543   -6.2193518    112.81783  0.039336762  0.041151989            5 
  240000    1.1523141   -6.2165805    113.49182  0.039406881  0.041137937            2 
  241000    1.1727334   -6.2309077      113.786   0.03934509  0.041125432            5 
  242000    1.1713349   -6.2648544    114.28689  0.039354991  0.041111679            3 
  243000    1.1557782   -6.2054371    114.74801  0.039351168  0.041099648            4 
  244000    1.1550028   -6.2099879    114.97651  0.039267935  0.041087726            2 
  245000    1.1671549   -6.2245005    115.60104  0.039320081  0.041074881            3 
  246000    1.1786134   -6.2472093    116.17731  0.039355457   0.04106276            3 
  247000    1.1490526   -6.1965418    117.15179  0.039524894   0.04105228            3 
  248000     1.149612   -6.1993483    117.62838  0.039525664  0.041042026            2 
  249000    1.1588175   -6.2221821    118.23902  0.039571292  0.041032602            1 
  250000    1.1658233   -6.1834067     118.8515  0.039617166  0.041025201            3 
  251000    1.1542832   -6.2196934    119.16206  0.039562436  0.041019648            3 
  252000     1.126923   -6.2330514    119.64725  0.039565888     0.041015            4 
  253000    1.1380471   -6.2345728    120.55939  0.039709943  0.041009768            4 
  254000    1.1607478   -6.2421006    120.27688  0.039460919  0.041003276            3 
  255000    1.1451858    -6.239044    120.57558  0.039403785   0.04099333            2 
  256000    1.1690602   -6.2096781     121.1245  0.039428549  0.040982907            6 
  257000    1.1294677   -6.2419259     121.2875  0.039327982  0.040971979            4 
  258000    1.1536682   -6.2254744    122.37776  0.039527699  0.040960891            5 
  259000    1.1561907    -6.196107    122.58616  0.039442137  0.040950906            5 
  260000    1.1352763    -6.214182    122.68182  0.039321095  0.040939106            6 
  261000    1.1387762   -6.2532271    122.50362  0.039113545  0.040926089            3 
  262000    1.1402468   -6.2113067    123.82518    0.0393846  0.040911408            2 
  263000    1.1771726   -6.2556198    123.80716  0.039229138  0.040897595            3 
  264000    1.1639883   -6.2346246    123.73157  0.039056683  0.040881761            8 
  265000    1.1478634    -6.251245    124.20684  0.039058756  0.040863763            3 
  266000    1.1410278   -6.2422595    123.76588  0.038773772  0.040843653            2 
  267000    1.1532082    -6.280835    124.73711  0.038931681  0.040822468            5 
  268000    1.1559584    -6.222889     125.1723  0.038921736  0.040800664            3 
  269000    1.1675578   -6.2604242    125.60966  0.038912535   0.04077988            4 
  270000    1.1658508   -6.2668582     125.8162  0.038832162  0.040758848            3 
  271000    1.1490047   -6.2301636    126.56354  0.038918679  0.040736703            4 
  272000    1.1462172   -6.2397619    126.55492  0.038772954  0.040713969            1 
  273000     1.149474   -6.2555309    127.19483  0.038826259  0.040690641            6 
  274000    1.1592172   -6.2196001    127.86052   0.03888702  0.040667622            3 
  275000    1.1547292   -6.2430914    127.48017  0.038630353  0.040643042            4 
  276000    1.1228412   -6.2519553    128.19444   0.03870605  0.040618749            2 
  277000    1.1417656   -6.2608798    128.10294  0.038538792  0.040595644            1 
  278000    1.1541231   -6.2346022    128.78475  0.038604542  0.040571685            4 
  279000    1.1272874   -6.2532047    128.56962  0.038401916  0.040545829            3 
  280000     1.163338   -6.2543251    129.67533  0.038593847  0.040521493            4 
  281000    1.1410333   -6.2392505    130.22122  0.038618392  0.040498468            3 
  282000    1.1550824    -6.223133     130.8564  0.038669148  0.040476546            3 
  283000    1.1456041    -6.269203    131.00657  0.038576727  0.040454151            7 
  284000    1.1549246   -6.2367511    131.08824  0.038464858  0.040430682            4 
  285000    1.1402039   -6.2527253     131.6133   0.03848342  0.040407008            4 
  286000    1.1628819   -6.2816743    132.24802  0.038533804  0.040382116            2 
  287000    1.1399745   -6.2415444    132.49063  0.038469986  0.040357467            2 
  288000      1.12362    -6.264069    132.27838  0.038274994  0.040331778            3 
  289000    1.1012388   -6.2703155    132.73408  0.038273955  0.040304993            4 
  290000    1.1181529   -6.2644165     133.4547  0.038349053  0.040277972           10 
  291000    1.1398377   -6.2831153    133.28653  0.038169109  0.040250533            4 
  292000    1.1582767   -6.2851198    134.02003  0.038247726   0.04022339            2 
  293000     1.113579   -6.2758544    134.00835  0.038113866  0.040196837            2 
  294000    1.1392188   -6.2618199    135.26002  0.038339007  0.040170507            3 
  295000    1.1480971   -6.2527985    136.12598  0.038453668  0.040146881            2 
  296000    1.1404661   -6.2622142    136.56212  0.038446543  0.040123286            5 
  297000    1.1192041   -6.2614591    136.21892  0.038220796  0.040100195            5 
  298000    1.1438123   -6.2827187    136.83428  0.038264618  0.040075459            3 
  299000    1.1399405   -6.2813926    137.52972  0.038330467  0.040051611            6 
  300000    1.1418237   -6.2538733    138.38407  0.038440021  0.040028187            4 
  301000    1.1136071   -6.2195569    138.67747  0.038393542  0.040006917            3 
  302000    1.1402719   -6.2612866    138.68055   0.03826726  0.039985873            4 
  303000    1.1332599   -6.2446184    139.73382  0.038430643  0.039963301            2 
  304000    1.1272832   -6.2923036    139.61144   0.03827068  0.039941393            4 
  305000    1.1461679   -6.2492567    139.82085  0.038202419  0.039917839            2 
  306000    1.1144531   -6.2617292    140.39638  0.038234308   0.03989433            4 
  307000    1.1227144   -6.2460043    140.64675  0.038177727  0.039868635            3 
  308000    1.1629586   -6.2878516    140.36335  0.037977098  0.039841897            4 
  309000    1.0973913   -6.2625341    141.30847  0.038109081  0.039816066            5 
  310000     1.110237   -6.2740068     141.3743  0.038003844  0.039789643            3 
  311000    1.1171137   -6.2430317    141.50893  0.037917721  0.039763273            3 
  312000    1.1511892   -6.2699659    142.27307  0.038000287  0.039737213            4 
  313000     1.140383   -6.2711757    142.77288   0.03801195   0.03971228            3 
  314000    1.1173457   -6.2774612    143.14238  0.037988955   0.03968876            5 
  315000    1.1340151   -6.2714525    143.34028  0.037920708  0.039664985            3 
  316000    1.1176642   -6.2695958    144.47442  0.038099793  0.039641991            3 
  317000    1.1113307   -6.2934133     144.5065   0.03798804  0.039619487            8 
  318000    1.1179806   -6.3152929    145.42919  0.038110374  0.039597861            5 
  319000    1.1321062   -6.2266764    145.89161  0.038111705  0.039577512            4 
  320000    1.1420536   -6.2492664    146.16749   0.03806445  0.039555737            3 
  321000    1.1296372   -6.2662881    146.14759  0.037940703  0.039533398            4 
  322000    1.1362351   -6.2335497    146.47123  0.037906633  0.039511473            3 
  323000    1.1363402   -6.2794876    147.00771  0.037927686  0.039489482            4 
  324000    1.1466322   -6.2681737    147.84538  0.038026075  0.039468376            3 
  325000    1.1303838   -6.2988111    148.57962  0.038097339  0.039447737            4 
  326000     1.140513   -6.2682011    148.73597  0.038020443  0.039427223            5 
  327000    1.1149604   -6.3022847    149.06888  0.037989011  0.039406532            5 
  328000    1.1346954   -6.2807615    149.63962  0.038018195  0.039386808            3 
  329000    1.1169781   -6.3023166    149.34977  0.037829222  0.039366887            5 
  330000    1.1241896   -6.2427531    150.73825  0.038065215  0.039345733            4 
  331000    1.1399408   -6.2694083    150.46446  0.037881285  0.039324361            3 
  332000    1.1215316   -6.2829737    150.42518  0.037757324  0.039301556            2 
  333000     1.104573   -6.2959038    150.25339  0.037600947  0.039277757            4 
  334000    1.1201719   -6.3024552    150.96254  0.037665304  0.039251917            2 
  335000    1.1057654   -6.2815241    151.01081  0.037564879  0.039225822            3 
  336000    1.1248755   -6.2802865    151.25984  0.037514842  0.039199963            3 
  337000    1.1278515   -6.2940927    152.23576  0.037644846  0.039174294            6 
  338000    1.1122275   -6.3047947    152.44192    0.0375843  0.039149847            3 
  339000    1.1139909   -6.2640801    152.85422  0.037574783  0.039123293            4 
  340000    1.1279817   -6.3323001    153.15919  0.037539017  0.039098728            5 
  341000    1.1116135   -6.2763954    153.23037  0.037446326  0.039073377            3 
  342000    1.1109883   -6.2951385    154.22412  0.037578977  0.039047745            6 
  343000    1.1104163   -6.2793064    154.20073  0.037463733  0.039021471            2 
  344000    1.1376733   -6.2703439    154.11862  0.037334936  0.038995867            3 
  345000    1.0959509   -6.3343672    154.79613   0.03739037  0.038970203            2 
  346000    1.0974418   -6.2733297    155.13218  0.037363241  0.038944202            7 
  347000    1.1222137   -6.2940159    155.63442  0.037376182  0.038918384            6 
  348000    1.1265212   -6.2722274    156.22692  0.037410661  0.038893196            4 
  349000    1.1310634   -6.2838195    156.47734  0.037363262  0.038868453            7 
  350000    1.1436404   -6.2909833    156.80259  0.037333949  0.038842928            2 
  351000    1.1183938   -6.3068267    156.55059  0.037167755  0.038817621            2 
  352000    1.1087755   -6.2952203    157.03765  0.037177474  0.038792972            7 
  353000    1.0953822   -6.2977592    157.46754   0.03717364  0.038767739            3 
  354000    1.0978544   -6.3039043    157.96509  0.037185755  0.038741877            3 
  355000    1.1082185   -6.3092316    158.36639  0.037175209  0.038715929            4 
  356000    1.1106126   -6.3120968    158.74434  0.037159256  0.038689843            4 
  357000    1.1173754   -6.2648895    159.60131  0.037255209  0.038665882            4 
  358000    1.1192292   -6.3089004    159.46838  0.037120199  0.038642347            6 
  359000    1.0976808    -6.246724    160.52122  0.037261193  0.038618717            2 
  360000    1.1300705   -6.3005843    160.35913  0.037120169  0.038595412            3 
  361000    1.1082122   -6.3401047    160.71124  0.037098623  0.038570648            3 
  362000    1.1068277   -6.3115132    161.10405  0.037086568  0.038545493            5 
  363000    1.0964431   -6.3340786    161.19537  0.037005365  0.038520896            3 
  364000    1.1184992   -6.3156852    160.74987   0.03680171  0.038494507            7 
  365000    1.0998061   -6.3208614    161.62288    0.0369002  0.038468389            3 
  366000     1.107886    -6.312152    162.50188  0.036999517   0.03844295            4 
  367000    1.1258274    -6.295213    162.18412  0.036826549  0.038416573            5 
  368000    1.1199978   -6.3253087    162.27628  0.036747346  0.038389489            2 
  369000    1.1137338   -6.3039806    163.27763  0.036873901  0.038362837            4 
  370000    1.1082612   -6.3237607    163.72089  0.036874074  0.038337142            4 
  371000    1.0928183   -6.3034879     164.3366  0.036912983  0.038310608            3 
  372000    1.1234006   -6.2986175     164.9077  0.036941688  0.038284726            3 
  373000    1.1003215   -6.3213323    165.02361  0.036868545   0.03826014            2 
  374000    1.1108526   -6.2882074    164.60515  0.036676726  0.038234983            3 
  375000    1.1093059   -6.2932222    165.58909  0.036797576  0.038209022            4 
  376000    1.1185692   -6.3014831    165.48372  0.036676356   0.03818197            3 
  377000    1.0912846   -6.3480265    165.22697  0.036522319   0.03815545            3 
  378000    1.1125847   -6.2900188    165.60793  0.036509684  0.038128963            2 
  379000    1.0812022   -6.3211875    166.39953  0.036587408  0.038102248            3 
  380000    1.0923224   -6.3228372    166.91137  0.036603371    0.0380757            3 
  381000    1.0831644   -6.3260486    167.18802  0.036567809  0.038049906            5 
  382000    1.1041373   -6.3725463    167.72324  0.036588839  0.038023377            2 
  383000    1.0879931   -6.2976583    168.59573  0.036683145  0.037998827            3 
  384000    1.1071171   -6.2653752    169.58906  0.036803182  0.037975376            3 
  385000    1.1176085    -6.357889    169.28994  0.036642844  0.037952169            3 
  386000    1.0899401   -6.3522478    170.02382  0.036706351  0.037929764            3 
  387000    1.1036978   -6.3832351    170.55544  0.036725978  0.037907031            4 
  388000    1.1049194   -6.3208138     171.0831  0.036744653  0.037884707            5 
  389000    1.0967389   -6.3023405    171.70164    0.0367827  0.037863211            2 
  390000    1.0789987   -6.3288436    172.02164  0.036756761  0.037841945            7 
  391000    1.1031669   -6.3133656    171.83382  0.036622724   0.03782022            3 
  392000    1.0759372   -6.3605335    172.29815  0.036628007  0.037797433            3 
  393000    1.0848979   -6.3332253    172.63335  0.036605884  0.037774818            3 
  394000    1.1270006   -6.3635014    172.63735  0.036513823  0.037752323            4 
  395000     1.089031   -6.3131505    173.12045  0.036523302  0.037730689            4 
  396000    1.0905569   -6.3343069    174.20277  0.036658831  0.037709773            5 
  397000    1.0864508    -6.292596    174.55726  0.036640902  0.037688859            4 
  398000    1.0950147   -6.3118465    174.52686  0.036542475   0.03766757            5 
  399000    1.0889235   -6.3331571    174.81484  0.036511035  0.037645892            5 
  400000    1.0696323   -6.2944417    175.75052  0.036614692  0.037624444            4 
  401000    1.0792975   -6.3248874    175.60577  0.036493302  0.037602049            7 
  402000    1.0981191   -6.3416429    175.28992  0.036337048   0.03758044            2 
  403000    1.1001325   -6.3423322    175.55828  0.036302374  0.037557974            3 
  404000     1.110064   -6.3182571    175.98714  0.036300977   0.03753467            4 
  405000     1.096515   -6.3365694    176.58896  0.036335176  0.037512018            4 
  406000    1.1191282   -6.3164827    177.14086  0.036358961  0.037489529            3 
  407000    1.0886582   -6.3373569    176.63494   0.03616604  0.037466726            4 
  408000    1.0919031   -6.3479517    178.05945  0.036368352  0.037444404            6 
  409000    1.0861585   -6.3790469    177.59581  0.036184964  0.037422131            4 
  410000    1.0940385   -6.3439181    177.87235  0.036152916  0.037399195            3 
  411000    1.1180834   -6.3375535    179.24838  0.036343955  0.037376466            4 
  412000    1.0752698   -6.3331685     179.2986  0.036265897  0.037353448            4 
  413000    1.1117302   -6.3589222    179.87693  0.036294779  0.037330302            2 
  414000    1.0778779   -6.3597091    179.55516  0.036142343  0.037307807            2 
  415000    1.0893369   -6.3196011    180.14693  0.036174082  0.037285037            5 
  416000    1.0942875   -6.3599588     180.4539  0.036148618  0.037262182            2 
  417000    1.1031801   -6.3397006    180.69273  0.036109658  0.037238951            3 
  418000    1.0798149   -6.3213317    181.08696  0.036101867  0.037215794            3 
  419000    1.1192466   -6.3326094    181.51803  0.036101437  0.037193113            4 
  420000     1.096073   -6.3118251    181.37592  0.035987285  0.037170352            6 
  421000    1.0879334   -6.3734334    181.81388  0.035988495  0.037147825            2 
  422000    1.0873696   -6.3455176    182.26018  0.035991346   0.03712481            2 
  423000    1.0918474   -6.3721852    182.83909  0.036020309  0.037101212            7 
  424000    1.0962921   -6.3707569    182.82017  0.035931637  0.037077225            6 
  425000    1.0962806   -6.4010142    182.75006  0.035833345  0.037053849            4 
  426000    1.0735094   -6.3965101    182.94013  0.035786409  0.037030228            2 
  427000    1.1088254   -6.3363888    184.50673   0.03600834   0.03700674            5 
  428000    1.0594483   -6.3492583    184.90463  0.036001681  0.036983853            3 
  429000    1.0973493   -6.3660188    184.69256  0.035876566  0.036960668            4 
  430000    1.0800372   -6.3492181    184.87477  0.035828443   0.03693798            3 
  431000    1.0852305   -6.3372154    184.87209  0.035744797  0.036915703            5 
  432000    1.0906665   -6.3898741    185.67197  0.035816353  0.036893478            5 
  433000    1.0926385   -6.3743792    185.66624  0.035732533  0.036870424            3 
  434000    1.0898846   -6.3168136    186.49738  0.035809789  0.036847834            2 
  435000    1.0811566   -6.3212696    187.20246   0.03586254  0.036824799            4 
  436000    1.0822524    -6.321392     186.8589  0.035714622  0.036801356            6 
  437000    1.0784802   -6.3648848      187.425  0.035740847  0.036778054            3 
  438000    1.0604823   -6.3604599    186.75135  0.035531079   0.03675409            3 
  439000    1.0671907   -6.3776356    187.64551  0.035619877  0.036730011            2 
  440000    1.0832596   -6.3430539    188.77187  0.035752248   0.03670672            2 
  441000    1.0747762   -6.3738029    188.77434  0.035671643   0.03668364            2 
  442000     1.079185   -6.3500559     188.7194   0.03558058  0.036660655            5 
  443000    1.0980652   -6.3635324    188.91084  0.035536276  0.036637894            4 
  444000    1.0895868    -6.357763    189.68901  0.035602292  0.036615366            3 
  445000    1.0502752   -6.3524481    189.50021  0.035486931  0.036592097            3 
  446000    1.0777438    -6.392243     189.8467  0.035472104  0.036569291            3 
  447000    1.0870409   -6.3730165    190.30477  0.035478145  0.036547241            7 
  448000    1.0705495   -6.3427991    191.12823  0.035552127  0.036525166            7 
  449000    1.0535324   -6.3751492    191.56236  0.035553518  0.036503588            3 
  450000    1.0865575   -6.3442065    191.92406  0.035541493   0.03648272            5 
  451000     1.075329   -6.4029607     191.2187  0.035332355  0.036460969            4 
  452000    1.0464883   -6.3965141    191.83619   0.03536803  0.036438185            8 
  453000    1.0778703   -6.3705012    193.30929  0.035560944  0.036415562            4 
  454000    1.0849087   -6.3486539    192.97948  0.035422078  0.036393535           10 
  455000    1.0757471   -6.3957914    193.32655  0.035407794  0.036371342            5 
  456000     1.063602   -6.3517496    193.57603  0.035375736  0.036348793            4 
  457000    1.0931677   -6.3590208    194.27162  0.035425168  0.036327233            3 
  458000    1.0783049   -6.3473928    194.81395  0.035446498  0.036305042           12 
  459000    1.0906123   -6.3742938    194.22923  0.035263113  0.036283356            3 
  460000    1.0711268   -6.3805893    195.36656  0.035392493  0.036261347            6 
  461000    1.0651264   -6.3679467     195.4046  0.035322595  0.036239145            9 
  462000    1.0475154   -6.4222685    195.36556  0.035239098   0.03621677            2 
  463000     1.061749   -6.3624221    195.80951  0.035242893  0.036194764            2 
  464000    1.0481534   -6.3786221    196.32935    0.0352603   0.03617232            3 
  465000     1.091525   -6.4132247    195.83994  0.035096764  0.036149685            4 
  466000     1.088617   -6.3402615    197.08459  0.035244026   0.03612721            3 
  467000    1.0753305    -6.396475    197.20916  0.035190786  0.036104794            4 
  468000    1.0411704   -6.3964602    197.09498   0.03509526  0.036081934            8 
  469000    1.0550452   -6.3654674    196.86458  0.034979491  0.036058423            3 
  470000     1.083882   -6.3701147    197.43564   0.03500632  0.036035215            9 
  471000    1.0684501   -6.3681347    198.40025  0.035102663  0.036012338            3 
  472000    1.0526981   -6.3587907    198.50757   0.03504724  0.035989321            2 
  473000    1.0678439   -6.4186726    198.78859  0.035022654  0.035966573            6 
  474000    1.0736312   -6.3852987    198.65695  0.034925624  0.035943011            2 
  475000    1.0615701   -6.3740742    199.15493  0.034939462  0.035920265            5 
  476000     1.060152   -6.3671258    198.87728  0.034817452  0.035897041            6 
  477000    1.0490723   -6.3852937    199.20388  0.034801517  0.035873366            7 
  478000    1.0528492   -6.3825152    199.94478  0.034857876  0.035849881            5 
  479000    1.0653466   -6.3882358    200.22681  0.034834171   0.03582631           13 
  480000    1.0845575   -6.3611377    200.64194   0.03483367  0.035803024            5 
  481000    1.0386972   -6.3710458    200.63051   0.03475927  0.035779804            9 
  482000    1.0476734   -6.3798293     201.9356  0.034912793  0.035756642            5 
  483000    1.0912907   -6.3645417     201.8897  0.034832592  0.035734251            4 
  484000     1.059322    -6.392925     201.8953  0.034761588  0.035711536            7 
  485000    1.0517322   -6.3784051    202.31536   0.03476209  0.035688389            4 
  486000    1.0659879   -6.3971757    202.19554  0.034670016  0.035665222            2 
  487000    1.0618279   -6.3942625      202.911  0.034721253  0.035642427            4 
  488000     1.043472   -6.4088058    203.02133  0.034668943   0.03561937            5 
  489000    1.0730282   -6.3983325    203.78614  0.034728382  0.035596371            4 
  490000    1.0560796   -6.3976466    203.57542   0.03462167  0.035573342            3 
  491000    1.0454275   -6.4314487    203.55839  0.034548268  0.035550029            6 
  492000    1.0871027   -6.3916345    203.89738  0.034535465  0.035526888           14 
  493000    1.0586239   -6.4042602    205.27131  0.034697652  0.035504135            2 
  494000    1.0477771   -6.4061145     205.2346  0.034621221  0.035481619            8 
  495000    1.0624866   -6.4129566    205.49174  0.034594569  0.035459722            6 
  496000     1.062515   -6.3646955    206.46422  0.034688208  0.035437829            4 
  497000    1.0634157   -6.4004261    206.00813  0.034541941   0.03541568            4 
  498000    1.0283153   -6.3920346    206.30683  0.034522562  0.035392742            4 
  499000    1.0465237   -6.4213933    206.26179  0.034445857   0.03537009            6 
  500000    1.0554334   -6.4076825     206.4895  0.034414917  0.035347045            5 
  501000    1.0482146   -6.4152448     206.8847   0.03441196  0.035323899            4 
  502000    1.0518743   -6.4450437    206.73201  0.034318063  0.035300497            5 
  503000    1.0602165   -6.4172238    207.29971  0.034343888  0.035276977            2 
  504000    1.0725714   -6.4272336    208.07871  0.034404549  0.035253748            3 
  505000    1.0654684   -6.3810975    208.36782  0.034384129   0.03523159            2 
  506000    1.0682285   -6.4135247    208.57361  0.034350068  0.035209313            6 
  507000    1.0589558   -6.3926452    209.23462  0.034390964  0.035186947            2 
  508000    1.0421379   -6.3751223    209.51519  0.034369289  0.035164866            4 
  509000    1.0821793   -6.4399652    209.73566  0.034337862  0.035142303            5 
  510000    1.0788326   -6.4478114    209.81076  0.034282803  0.035120126            6 
  511000    1.0581567   -6.4112461    209.86924  0.034225251  0.035097595            3 
  512000    1.0522727   -6.4383578    209.92364  0.034167259  0.035075147            5 
  513000      1.02448   -6.4151953    210.68901  0.034224985  0.035053144            7 
  514000    1.0380954   -6.4411153    210.82552  0.034180533  0.035030761            6 
  515000    1.0363389   -6.4166208    211.80963  0.034273403   0.03500837            3 
  516000    1.0549805   -6.4386667    211.26681  0.034119318  0.034986476            4 
  517000     1.069278   -6.4175012    211.86927  0.034150431  0.034964405            7 
  518000      1.04837    -6.432581    211.99125  0.034104126  0.034942144            5 
  519000     1.062257   -6.4318609    212.00951  0.034041347  0.034919212            6 
  520000    1.0451011   -6.4078692    212.50043  0.034054556  0.034896652            4 
  521000    1.0467487   -6.4309635    213.55655  0.034158117   0.03487483            7 
  522000    1.0475179    -6.432203    213.32355  0.034055484   0.03485311            4 
  523000    1.0533213   -6.4258247     213.9433  0.034089117  0.034831143            6 
  524000    1.0477237   -6.4235518     214.1968  0.034064377  0.034809072            3 
  525000    1.0459113   -6.4295532    214.99383  0.034126005  0.034787404            3 
  526000    1.0277961   -6.4225194    214.65752  0.034007846  0.034766262            5 
  527000    1.0297114    -6.434083    215.63887  0.034098494   0.03474528            3 
  528000    1.0323805   -6.4096954    215.65028  0.034035713  0.034724394            8 
  529000    1.0437841   -6.4106738    215.73993  0.033985497   0.03470334            5 
  530000    1.0432747   -6.4275031    216.44843  0.034032772  0.034682373            5 
  531000    1.0375236   -6.4107771    216.06644  0.033908733  0.034661718            4 
  532000    1.0462692   -6.4301131    217.14878  0.034014533  0.034641031            3 
  533000    1.0467881   -6.4328449    217.48532  0.034003334  0.034620257            2 
  534000    1.0365955   -6.4373167    218.01154  0.034021775  0.034599657           11 
  535000    1.0564311   -6.4437548    218.19945  0.033987453   0.03457951            7 
  536000    1.0391888     -6.48082    217.88304  0.033874851  0.034559474            3 
  537000    1.0476781   -6.4748667     218.4442  0.033898852  0.034539078            8 
  538000    1.0586927   -6.4254834    219.27713  0.033964859  0.034518984            4 
  539000    1.0523756   -6.4346669    219.97199  0.034009275   0.03449906            5 
  540000    1.0341043   -6.4177793    219.46534  0.033868108  0.034478493            4 
  541000    1.0297582   -6.4274927    219.96245  0.033882077  0.034458482            5 
  542000    1.0234717    -6.442647     220.0363  0.033830919  0.034438873            2 
  543000    1.0320135   -6.4491014    220.74716   0.03387771  0.034418959            5 
  544000    1.0479907    -6.440655    220.79132    0.0338222  0.034398576            5 
  545000    1.0462368   -6.4374894    221.35806  0.033846798  0.034378671            4 
  546000    1.0185698   -6.4244373    221.30705  0.033777022  0.034358913            4 
  547000    1.0283691   -6.4457902    221.52351  0.033748249  0.034339242            3 
  548000    1.0486276   -6.3960907    221.86065  0.033737933   0.03431931            3 
  549000    1.0368971   -6.4627483    221.96544  0.033692387  0.034298831            4 
  550000    1.0455413   -6.4057801    222.70927  0.033743829  0.034278711            5 
  551000    1.0480901   -6.4451943    223.14366  0.033748285  0.034258875            7 
  552000     1.030691   -6.4315257    223.16878  0.033690939  0.034238991            4 
  553000    1.0242379   -6.4032792    224.22778  0.033789599  0.034219115            2 
  554000    1.0534124   -6.4152841    223.51404  0.033621246  0.034199408            4 
  555000    1.0318957   -6.4141528    224.51692   0.03371125  0.034179768            7 
  556000    1.0281194   -6.4482543    224.99777  0.033722687   0.03416022            3 
  557000    1.0394838   -6.4187741    224.30161   0.03355799  0.034140163            3 
  558000    1.0446432   -6.4520121    225.55645  0.033685252  0.034120366            3 
  559000    1.0288686     -6.44893    225.40615  0.033602587  0.034100328            4 
  560000    1.0387819   -6.4285393     225.1792  0.033508809  0.034080102            3 
  561000    1.0468761   -6.4616045    225.56992  0.033507118  0.034060264            3 
  562000    1.0338391   -6.4247849     225.7238  0.033470314  0.034040486            5 
  563000    1.0139511   -6.4475744    226.30256   0.03349653  0.034021155            8 
  564000    1.0525717   -6.4426298    226.92357  0.033528896  0.034001645            4 
  565000    1.0475121   -6.4487092    227.08756  0.033493741  0.033982314            3 
  566000    1.0225284    -6.438699    227.21974  0.033454026   0.03396337            4 
  567000    1.0346823   -6.4606999    228.26579  0.033548765   0.03394436            2 
  568000     1.026879   -6.4559519     227.9441  0.033442503  0.033925248            5 
  569000    1.0081201   -6.4560915    227.92552  0.033381007  0.033906132            4 
  570000    1.0183107   -6.4534211    228.23921  0.033368306  0.033886881            5 
  571000    1.0493569   -6.4544942     229.0338  0.033425832  0.033867505            4 
  572000    1.0211962   -6.4221736    228.21108  0.033247535  0.033847898            6 
  573000    1.0176776   -6.4119715    228.51347   0.03323349  0.033827538            3 
  574000    1.0530207   -6.4825912    228.60929  0.033189502  0.033806813            4 
  575000    1.0421478   -6.4440052    228.66285  0.033139543   0.03378613            3 
  576000    1.0351491   -6.4384139    229.45803  0.033197052  0.033765506            4 
  577000     1.033042   -6.4664177    229.77514  0.033185318  0.033745185            2 
  578000   0.99649315   -6.4699984    230.61845  0.033249488  0.033724607            3 
  579000    1.0282562   -6.4571229     230.2968  0.033145769  0.033703999            3 
  580000    1.0217447    -6.471964    230.09796  0.033060052   0.03368292           10 
  581000    1.0185447   -6.4639711    230.78877  0.033102233  0.033661803            3 
  582000    1.0017523   -6.4885207      231.108  0.033091066  0.033641164            4 
  583000      1.01996   -6.4823631    231.00865  0.033020105  0.033620572            2 
  584000    1.0048028   -6.4674102    231.45357   0.03302705  0.033599843            4 
  585000    1.0083697   -6.4491953    231.21555  0.032936688   0.03357889            3 
  586000    1.0133541   -6.4462468    232.48341  0.033060781  0.033558096            5 
  587000    1.0327947   -6.4871511    232.08273  0.032947577  0.033537737            4 
  588000     1.036228   -6.4897183    232.13658  0.032899176  0.033517213            8 
  589000    1.0274768    -6.462464    232.72649  0.032926781  0.033496596            6 
  590000    1.0363333   -6.4600211    233.48104  0.032977549   0.03347626            2 
  591000    1.0259556   -6.4769708    232.99776  0.032853605  0.033456044            4 
  592000    1.0175519   -6.4959291    233.33662  0.032845808  0.033435225            4 
  593000    1.0073077   -6.5026568    233.05579  0.032750954  0.033414171            5 
  594000    1.0098584   -6.4648281    234.45574  0.032892219  0.033393302           12 
  595000    1.0159361   -6.4692113    234.08772  0.032785395  0.033372918            7 
  596000    1.0231649   -6.4866306     234.4283  0.032778006  0.033352548            3 
  597000    1.0075978   -6.4475803     235.0117  0.032804537  0.033332285            5 
  598000    1.0176351   -6.4507235    235.76637  0.032854845  0.033312154            3 
  599000    1.0088421   -6.4946046    235.41502  0.032751116  0.033291821            3 
  600000    1.0185921   -6.4750899    236.65971  0.032869405  0.033271276            3 
  601000    1.0081537   -6.4793495    236.23645  0.032756025  0.033251196            3 
  602000    1.0078872   -6.4945969    236.59124  0.032750725   0.03323101           10 
  603000    1.0350086   -6.4813481    236.52607  0.032687405  0.033211021            4 
  604000   0.99840979   -6.4944053    236.41719  0.032618266   0.03319059            5 
  605000   0.99313547    -6.460639    237.13117  0.032662696  0.033170061            5 
  606000    1.0091061   -6.5232744    236.36429   0.03250334  0.033149399            3 
  607000     1.028583   -6.4959116     237.0331  0.032541612  0.033128345            6 
  608000    1.0047683   -6.4630484    237.07504  0.032493837  0.033107561            7 
  609000     1.017806    -6.453902    238.09352  0.032579847  0.033087048            4 
  610000    1.0126472   -6.4697184    237.43705  0.032436756  0.033066164            6 
  611000    1.0168467   -6.5084169     238.3471  0.032507787  0.033045368            5 
  612000    1.0037075   -6.5169389    237.43599  0.032330608  0.033024477            3 
  613000     1.013802   -6.4753717     237.9607  0.032349198  0.033003155            8 
  614000   0.99272616   -6.4942205    238.54651  0.032376019  0.032981686            5 
  615000   0.99538103   -6.4856625    238.84628  0.032363994  0.032960219            9 
  616000    1.0261008   -6.4851249     238.4715  0.032260754  0.032938562            8 
  617000   0.99918251   -6.4728058    238.53673  0.032217278  0.032916638            3 
  618000    1.0231432   -6.4774606    240.63106  0.032447554  0.032895098            4 
  619000     0.988958   -6.4701857    240.28759  0.032348895  0.032874019            2 
  620000    0.9876971   -6.4929189    239.49407  0.032190063  0.032852868           10 
  621000   0.99870262   -6.4937497    240.28113  0.032243845   0.03283158            2 
  622000    1.0107401   -6.5091209    240.82462   0.03226482  0.032810623            4 
  623000    1.0083822   -6.5037651    240.95689  0.032230724  0.032789624            6 
  624000   0.97608944   -6.5087737    241.37752  0.032235246  0.032768601            4 
  625000    1.0155935   -6.5148102    241.36418  0.032181891  0.032747648            6 
  626000    1.0088188   -6.4896072    241.40743  0.032136239  0.032726505            6 
  627000    1.0132782    -6.478604    241.31968  0.032073323    0.0327053            6 
  628000   0.99686447   -6.5095359    241.51912  0.032048715  0.032684024            2 
  629000    1.0173855   -6.5153447    241.72242  0.032024698  0.032662833            4 
  630000    1.0001745   -6.4948446    242.61425  0.032091832  0.032641821            5 
  631000    1.0064884   -6.5097553     243.8391  0.032202734  0.032621176            3 
  632000   0.99077949   -6.4934182    244.06447  0.032181496  0.032600934            6 
  633000    1.0008593   -6.4822997    243.69605  0.032082156   0.03258037            5 
  634000    1.0204846   -6.5326065    243.32385   0.03198263  0.032559566           10 
  635000   0.99034617   -6.4816796    244.38534  0.032071567  0.032539223            4 
  636000    1.0001122   -6.5014202    244.36942  0.032019053  0.032518696            4 
  637000   0.96878452   -6.4622224    244.95541  0.032045448  0.032498165            5 
  638000    1.0104729   -6.4914573    245.16205  0.032022212  0.032477939            2 
  639000   0.98282977   -6.5174481    245.08127  0.031961564  0.032457558            5 
  640000   0.99578025   -6.5081563    245.71703  0.031994404  0.032437393            3 
  641000    1.0033335    -6.508345    245.56857  0.031925191  0.032417488            4 
  642000   0.98698991   -6.5093259    245.50703  0.031867475  0.032396809            7 
  643000    1.0038098   -6.5029658    246.43125  0.031937694  0.032376537            4 
  644000    1.0105995   -6.4922081    246.89584  0.031948219  0.032356517            6 
  645000   0.98189373   -6.4716779    246.61936  0.031862966  0.032336338            5 
  646000    1.0022067   -6.4821523    246.60712  0.031812064  0.032316107           16 
  647000   0.99008196   -6.5221227    247.41998  0.031867592  0.032295852            3 
  648000   0.99713009   -6.5684817    247.23997  0.031795264  0.032275567            4 
  649000    1.0096313   -6.4856026    247.48364  0.031777561  0.032255192            7 
  650000   0.99187134   -6.4838675    248.12642   0.03181108  0.032234731            4 
  651000   0.99623685   -6.5147864    247.71477   0.03170952  0.032214336            3 
  652000   0.98686609   -6.5322703    248.47543  0.031758107  0.032194099            5 
  653000   0.99342351   -6.5343155    248.08214  0.031659282  0.032173959           14 
  654000   0.99022802   -6.5446642     248.7559  0.031696725   0.03215369            8 
  655000    1.0061212   -6.4813734    248.37535  0.031599917  0.032133214            3 
  656000    1.0074524   -6.4993621    250.08389  0.031768786  0.032113106            4 
  657000    1.0029445   -6.5503727    249.11345  0.031597343  0.032093038            3 
  658000   0.97095289   -6.5139047    250.15044  0.031680653  0.032072703           11 
  659000    1.0015812   -6.5644743    249.79117  0.031587149   0.03205257            5 
  660000   0.97095413   -6.4813327    249.95359  0.031559797  0.032032263            5 
  661000   0.98290073   -6.5323969    249.26764  0.031425572   0.03201187            7 
  662000    1.0017634   -6.5008256    250.42801  0.031524171  0.031991582            3 
  663000   0.99642894   -6.5233913    250.43018  0.031476896  0.031971305            6 
  664000   0.99418711   -6.5405093      251.311  0.031540035  0.031951334            4 
  665000   0.98614555   -6.5108979    251.04913  0.031459791  0.031931287            6 
  666000    0.9957772   -6.5481856    251.56526  0.031477135  0.031911345            4 
  667000   0.99364852   -6.5129562    252.25866  0.031516574  0.031891698            7 
  668000   0.98459441   -6.5157362    252.42733  0.031490435     0.031872            4 
  669000   0.98871104   -6.5287061    252.07427  0.031399386  0.031851603            3 
  670000   0.98421105   -6.5336363    252.28818  0.031379127  0.031831079            4 
  671000   0.98354151     -6.55935    252.14863  0.031315031  0.031810323            4 
  672000   0.97525246    -6.546594    252.31642  0.031289239  0.031789813            3 
  673000   0.97398983   -6.5306154    253.25007  0.031358354  0.031769264            5 
  674000   0.98065293   -6.4999421    253.68636  0.031365771  0.031748655            3 
  675000   0.99660811   -6.5369245     252.8851  0.031220383  0.031727874            5 
  676000   0.99254908   -6.5383384    252.37698   0.03111156  0.031706856            5 
  677000   0.99466493   -6.5448032    252.77544  0.031114653   0.03168574            6 
  678000   0.98525038   -6.5375973    253.44782  0.031151404   0.03166439            4 
  679000   0.98285529   -6.5382211    253.96832  0.031169406  0.031643189            7 
  680000   0.97959308   -6.5554948    253.27292  0.031038348  0.031621681            3 
  681000   0.99141636   -6.5557862    254.41983  0.031133117  0.031600672            7 
  682000    1.0121979   -6.5352276    254.43126  0.031088864  0.031579294           12 
  683000   0.98715581   -6.5040674     254.4628  0.031047194   0.03155818            3 
  684000   0.99121614   -6.5357923     254.5354  0.031010648  0.031537148            5 
  685000   0.98059441   -6.5519419    255.51204   0.03108419  0.031516416            4 
  686000   0.96383902   -6.5289145    254.91811  0.030966729  0.031495274            6 
  687000    1.0119333    -6.491635    255.94135  0.031045772  0.031474423            7 
  688000   0.98733608   -6.5749238    253.91877  0.030755664  0.031453072            7 
  689000   0.99325306   -6.5345665    256.24032  0.030991815  0.031431593            3 
  690000   0.99182426   -6.5507494    256.54561   0.03098377  0.031410729            6 
  691000   0.98815109   -6.5519532    256.48641  0.030931791  0.031389778            8 
  692000   0.98395231   -6.5735661    256.81365  0.030926499  0.031368818            5 
  693000   0.96726844   -6.5588883    257.55489  0.030971006  0.031348209            5 
  694000   0.98122349   -6.5563563    257.25708   0.03089062  0.031327623            5 
  695000    0.9708706   -6.5540241    257.53667  0.030879696  0.031306787            9 
  696000   0.99471366   -6.5321053    258.20147  0.030914927  0.031286377            7 
  697000   0.98320381   -6.5013826    257.78695  0.030821012   0.03126574            6 
  698000    0.9634634   -6.5522388    257.67844  0.030763902  0.031245096           14 
  699000   0.96609315   -6.5459346    257.45922  0.030693756  0.031224179            7 
  700000   0.96953033   -6.5464148    258.18984  0.030736886  0.031203417            7 
  701000    0.9797925    -6.547681     257.7438  0.030640015  0.031182373            9 
  702000   0.97761267   -6.5468768    257.15715  0.030526727  0.031161226           11 
  703000   0.97379225   -6.5636837    258.81563    0.0306799  0.031140063            3 
  704000   0.96567043   -6.5568203    259.10778  0.030670902  0.031119017            5 
  705000   0.97233377   -6.5444948     259.0534   0.03062097  0.031097996            4 
  706000   0.97577916   -6.5428525    258.91315  0.030561042  0.031077126           11 
  707000   0.95266465   -6.5566975    259.04468  0.030533319  0.031056011            5 
  708000   0.96952446   -6.5595999    260.26521  0.030633852    0.0310353            4 
  709000   0.96021695   -6.5628959    260.27606   0.03059192   0.03101487            7 
  710000   0.95924117   -6.5798163    260.12199  0.030530749  0.030994427            6 
  711000   0.94873812   -6.6016871    261.46571  0.030645302     0.030974            6 
  712000   0.95963819    -6.547927    261.33718  0.030587217  0.030953807            5 
  713000   0.96998624   -6.5472048    261.65239  0.030581158  0.030933692            4 
  714000   0.98510327    -6.567962    262.37204   0.03062232  0.030913667            7 
  715000   0.95041979   -6.5789872    261.48231  0.030475794  0.030893823            6 
  716000   0.95948229    -6.572037    261.82327  0.030472913  0.030873851            9 
  717000   0.97454655   -6.5578779    262.31477  0.030487537  0.030854075            3 
  718000   0.96350351    -6.553167    263.69592  0.030605376  0.030834354            7 
  719000   0.94636711   -6.5574365    262.71119  0.030448677  0.030814684            7 
  720000   0.95121287   -6.5814561    263.10923  0.030452457  0.030794578            6 
  721000   0.98047838   -6.5818794    262.64971   0.03035711  0.030774236            5 
  722000   0.97609112   -6.6041337    263.46906  0.030409632   0.03075375            8 
  723000    0.9879071   -6.5720676    263.30664  0.030348852  0.030733473            7 
  724000   0.97098504   -6.5961619    264.39193  0.030431852  0.030713454            8 
  725000    0.9608953   -6.5821597    263.60648  0.030299596  0.030693471            5 
  726000   0.95590184   -6.5629739    263.16449  0.030207127   0.03067346            4 
  727000   0.98104213   -6.5728098    264.32754  0.030298892  0.030653275            7 
  728000   0.96695671    -6.537439    265.34054   0.03037323  0.030633275            4 
  729000   0.96569776   -6.5752373    264.71423  0.030259972  0.030613467            9 
  730000   0.97317583   -6.5674553    265.69021  0.030329933  0.030593903            3 
  731000   0.97409178   -6.5664477    265.47528   0.03026394  0.030574467            5 
  732000   0.96679685   -6.6215451    265.20645  0.030191991  0.030554822            6 
  733000   0.96704882   -6.5817039     265.7437  0.030211881  0.030534804            6 
  734000   0.95454363   -6.5648965     266.0758  0.030208425  0.030514938            7 
  735000   0.97355651   -6.5462168    266.04798  0.030164171   0.03049519            5 
  736000   0.95528199    -6.596973    266.37328  0.030160018  0.030475215            3 
  737000   0.96611275   -6.5872637    266.16518  0.030095565  0.030455129            5 
  738000   0.96079155   -6.5820527    266.76467  0.030122479  0.030435422           10 
  739000   0.95377446   -6.5782854    266.74186  0.030079146  0.030415649            6 
  740000    0.9602374   -6.5572916    266.25753  0.029983956  0.030395969            3 
  741000    0.9604942   -6.5924459    267.69403  0.030105042  0.030376227           14 
  742000   0.94681175   -6.5942717    267.39298  0.030030658  0.030356665            3 
  743000    0.9418189   -6.5903633    267.44357  0.029995914  0.030337046            7 
  744000   0.97115077   -6.6341457    266.96399  0.029901881  0.030317259            5 
  745000   0.94859308   -6.5654916    268.60464  0.030045262  0.030297469            3 
  746000    0.9750084   -6.6031173    268.25673  0.029966122  0.030277682            9 
  747000   0.94798573   -6.5400564    268.48376  0.029951334  0.030257992            3 
  748000   0.95029313      -6.5953    269.02235  0.029971296  0.030238294            5 
  749000   0.95670762   -6.6019739    268.94928  0.029923151  0.030218443            8 
  750000   0.96751501   -6.6153073    268.43543  0.029826159  0.030198701           10 
  751000   0.94283744    -6.580908    269.75373  0.029932726  0.030179003            5 
  752000    0.9500615   -6.5770864    268.93222  0.029801886  0.030159472            7 
  753000   0.97216568   -6.5847516    268.90401  0.029759187  0.030139742            4 
  754000   0.97746261   -6.6122795    270.58347  0.029905335   0.03012041            4 
  755000   0.94652303   -6.5818124    270.49139  0.029855561  0.030101047           12 
  756000   0.94115092   -6.6113347    270.12449  0.029775627    0.0300817            7 
  757000   0.93712933   -6.5999691    271.43146   0.02988017  0.030062414            5 
  758000   0.95011093   -6.5878963    270.99278  0.029792522  0.030042906            8 
  759000   0.95341899   -6.5894842    271.56105  0.029815662  0.030023403            5 
  760000   0.95439549   -6.6000839    271.21049  0.029737992  0.030004016            5 
  761000   0.95511943   -6.6012832    271.36937  0.029716313  0.029984337            7 
  762000   0.94152832   -6.6023754    271.31817  0.029671716  0.029964745            3 
  763000   0.96226734   -6.6122204    270.50342  0.029543843  0.029944894           12 
  764000   0.94976814   -6.5803871    273.00961  0.029778535  0.029925193            8 
  765000   0.94471991   -6.6236044     272.1881   0.02965012  0.029905563            5 
  766000   0.96716386   -6.5839859    273.02355  0.029702301    0.0298861            3 
  767000   0.96561322   -6.6197348    273.28273  0.029691735  0.029866808            3 
  768000   0.92998559   -6.6197896    272.87958   0.02960933   0.02984754            6 
  769000   0.93419526   -6.6088416     272.9091  0.029574024  0.029828152            5 
  770000   0.94082257   -6.5687111     272.8036  0.029524199  0.029808652            4 
  771000   0.94411177   -6.6080972    273.43054  0.029553668  0.029789402            5 
  772000   0.95575742    -6.614675    273.22109  0.029492778  0.029769868            5 
  773000    0.9488338   -6.6146113    273.35715  0.029469291   0.02975012            7 
  774000   0.92277057   -6.6430632    273.75828  0.029474406  0.029730547            9 
  775000   0.94837794    -6.640855    273.58118  0.029417332  0.029710813            8 
  776000   0.93946718   -6.6207039    274.49865  0.029477948  0.029691128            8 
  777000   0.94945608   -6.5686375    274.66207  0.029457537  0.029671799            5 
  778000   0.91861108    -6.596099    274.67521  0.029421081  0.029652663            7 
  779000   0.97573361   -6.6403594    274.44327  0.029358502  0.029632992            7 
  780000   0.93795568   -6.6223577    274.59862  0.029337459  0.029613166            6 
  781000   0.94878095   -6.6430875    275.19019  0.029363016  0.029593678            6 
  782000   0.92413973   -6.6092591    274.99842  0.029305032  0.029574052            6 
  783000   0.94078234    -6.620026    275.07217  0.029275455  0.029554378           10 
  784000   0.92957376   -6.6093041    275.28434  0.029260665  0.029535034           11 
  785000   0.95265915   -6.6171357    275.94644  0.029293677  0.029515426           12 
  786000   0.95317932   -6.6417389    276.30628  0.029294559  0.029495866            5 
  787000   0.94636677   -6.6182431     275.8411  0.029208079  0.029476087           12 
  788000   0.96410568   -6.6350209    275.97212  0.029184869  0.029456383            6 
  789000   0.96076448   -6.6121538    276.57771   0.02921184  0.029436751            7 
  790000   0.94209216   -6.6332346    276.79684  0.029197979  0.029417407            8 
  791000   0.95431555   -6.6370905    276.83142  0.029164709  0.029397843            7 
  792000   0.94049555   -6.6105503     277.1494  0.029161342  0.029378647            3 
  793000   0.93766977   -6.6239683    277.78573  0.029191438  0.029359344            7 
  794000   0.96457265   -6.6604018    278.15754  0.029193697  0.029339861           11 
  795000   0.92800855   -6.6000056    277.80364  0.029119879  0.029320864            8 
  796000   0.93265977    -6.627349    278.26661  0.029131764  0.029301902            7 
  797000   0.93092044   -6.6407688    277.90987  0.029057912  0.029282895            9 
  798000   0.93515475   -6.6248216    278.92608  0.029127619  0.029263945            5 
  799000    0.9561834   -6.6162643    279.32314  0.029132576  0.029245215            4 
  800000   0.93512932   -6.6219456    279.47051  0.029111511  0.029226619            7 
  801000   0.93117392   -6.6637852    279.83037  0.029112606  0.029207875            7 
  802000    0.9197372   -6.6424524    279.39421  0.029030986  0.029189061            7 
  803000   0.90805937   -6.6055547    279.82075  0.029039098  0.029170226            9 
  804000   0.92725997   -6.6121506    279.84909  0.029005917  0.029151434            5 
  805000   0.93646572   -6.6324897    279.70971  0.028955456  0.029132667            6 
  806000   0.90040511   -6.6391368    280.06434  0.028956197  0.029113994            4 
  807000   0.96982648   -6.6307169    279.38064  0.028849715  0.029095129           13 
  808000   0.94778476   -6.6455993    279.69622  0.028846558  0.029076345            4 
[...]
 1800000   0.52601903   -7.5282122    333.64043  0.015446316  0.014200339         1824 
 1801000   0.54104607   -7.5266266    333.59505   0.01543564  0.014189118         1828 
 1802000   0.53973815   -7.5170187    333.40831  0.015418438  0.014177906         1931 
 1803000   0.53981245   -7.5336871     334.1389  0.015443654  0.014166707         1887 
 1804000   0.53641485   -7.5289634    334.18923  0.015437418  0.014155516         1919 
 1805000   0.54610713   -7.5299844    333.95649   0.01541812  0.014144335         1866 
 1806000   0.54751975   -7.5146958    333.45208  0.015386309  0.014133158         1888 
 1807000   0.54721321   -7.5439151    333.89776  0.015398347  0.014121984         1894 
 1808000   0.53050342   -7.5211583    333.79931  0.015385293  0.014110818         1812 
 1809000   0.53401838   -7.5551691    333.35566  0.015356351  0.014099661         1890 
 1810000    0.5363458    -7.529236    333.81479  0.015369005  0.014088517         1867 
 1811000    0.5379724   -7.5342547    333.72842  0.015356544  0.014077387         1869 
 1812000   0.53381653    -7.527756    334.20101  0.015369803  0.014066282         1852 
 1813000   0.52751842   -7.5510083     333.8756  0.015346369  0.014055183         1864 
 1814000    0.5402494   -7.5242577    334.12161   0.01534921  0.014044099         1890 
 1815000   0.53943504   -7.5315488    333.91114   0.01533109  0.014033012         1859 
 1816000   0.53583847   -7.5334941    333.24438  0.015292051  0.014021928         1882 
 1817000   0.53070438   -7.5302616    333.35545  0.015288729  0.014010853         1854 
 1818000   0.52940563   -7.5317195    333.67214  0.015294836  0.013999786         1841 
 1819000   0.51102855   -7.5505068     333.4974  0.015278422  0.013988725         1885 
 1820000     0.538906   -7.5339368     333.9516  0.015290824  0.013977684         1899 
 1821000    0.5255609    -7.531858    333.30116  0.015252661  0.013966653         1889 
 1822000   0.51985515   -7.5204755    332.82554  0.015222537   0.01395562         1888 
 1823000   0.51761722   -7.5430189    333.69572  0.015253964  0.013944587         1917 
 1824000   0.52215619   -7.5346944    333.47754  0.015235633  0.013933574         1896 
 1825000   0.51758126   -7.5507649    333.51651  0.015229065  0.013922567         1945 
 1826000   0.52352221   -7.5454056    333.84761  0.015235835  0.013911579         1880 
 1827000    0.5157254   -7.5451617    333.60809   0.01521657    0.0139006         1902 
 1828000   0.52413529   -7.5511799    333.39949  0.015198737  0.013889618         1899 
 1829000   0.52118045   -7.5295564    333.06522  0.015175197  0.013878655         1902 
 1830000   0.52764621   -7.5654529    333.10506  0.015168719  0.013867705         1944 
 1831000   0.52852729   -7.5454345    333.32156  0.015170288  0.013856774         1884 
 1832000   0.52777293   -7.5462372    333.48677  0.015169522  0.013845844         1934 
 1833000   0.51192463   -7.5656691    333.63668  0.015168061  0.013834925         1906 
 1834000   0.53002554   -7.5631269    333.26074  0.015142709  0.013824016         1849 
 1835000     0.521651   -7.5647158    333.80318  0.015159091  0.013813125         1922 
 1836000   0.53069969   -7.5598343    333.56515   0.01514003  0.013802249         1896 
 1837000   0.52627595   -7.5412295    333.27777  0.015118752  0.013791369         1917 
 1838000   0.51346209   -7.5687802    333.78341  0.015133452  0.013780496         1874 
 1839000   0.52806583   -7.5487968    333.21119  0.015099293  0.013769635         1924 
 1840000   0.51953798   -7.5508795      333.089  0.015085552  0.013758786         1940 
 1841000   0.52266466   -7.5467903    333.12054  0.015078786  0.013747939         1921 
 1842000   0.51646051    -7.559301    333.49001  0.015087315  0.013737101         1928 
 1843000    0.5226689   -7.5593831    333.29714  0.015070408  0.013726266         1930 
 1844000   0.51702416   -7.5723085    333.14278   0.01505526  0.013715438         1929 
 1845000   0.51328088    -7.540993     333.1015  0.015045235  0.013704618         1889 
 1846000   0.50762311   -7.5587621    333.53731  0.015056758  0.013693824         1900 
 1847000   0.50614112   -7.5496329    333.47425  0.015045761  0.013683034         1893 
 1848000   0.50669411   -7.5501628    332.94143  0.015013592  0.013672255         1918 
 1849000   0.50656534   -7.5807762    333.47452  0.015029499  0.013661484         1985 
 1850000    0.5176945   -7.5674009    333.55841  0.015025154  0.013650724         1951 
 1851000   0.51619311   -7.5725549    333.86952  0.015031043  0.013639979         1895 
 1852000   0.50922005   -7.5533285    333.40354  0.015001959  0.013629235         1919 
 1853000   0.50304352   -7.5493137    333.24145  0.014986573    0.0136185         1907 
 1854000   0.51571681   -7.5522618    333.41389  0.014986241  0.013607791         1927 
 1855000   0.50671784   -7.5520687    333.24027  0.014970363  0.013597066         1934 
 1856000   0.49433186   -7.5543111    333.07381  0.014954823  0.013586368         1927 
 1857000   0.51469847   -7.5693387    333.25514  0.014954907  0.013575677         1946 
 1858000   0.51279703   -7.5732469    332.43594  0.014910116  0.013564976         1964 
 1859000    0.5117417   -7.5550282    333.16144  0.014934617  0.013554295         1913 
 1860000   0.50741469   -7.5812578    333.74092   0.01495255  0.013543635         1914 
 1861000   0.50615408   -7.5777488    333.56613  0.014936689  0.013532971         1879 
 1862000   0.50944314   -7.5661576    333.20815  0.014912645  0.013522318         1928 
 1863000   0.51126934   -7.5606984    333.15066  0.014902069  0.013511681         1919 
 1864000   0.51834602   -7.5455703    333.14814  0.014893962   0.01350105         2010 
 1865000   0.50758718   -7.5643623    332.95369  0.014877287  0.013490427         1882 
 1866000   0.50552856   -7.5649146    333.13525  0.014877423  0.013479824         1959 
 1867000   0.50114662    -7.557316    332.98778  0.014862872  0.013469218         1922 
 1868000   0.50848199   -7.5855864    333.03609   0.01485707  0.013458612         1928 
 1869000   0.50907729   -7.5654769    333.33052  0.014862249  0.013448024         1866 
 1870000   0.50776256   -7.5820602    333.33454   0.01485448  0.013437441         1919 
 1871000   0.49564445   -7.5676606    333.22044  0.014841459  0.013426861         1926 
 1872000   0.50858134   -7.5590676    333.65081  0.014852689  0.013416296         1966 
 1873000   0.50344601   -7.5792962    333.55542  0.014840515   0.01340575         1943 
 1874000    0.5015505   -7.5697339    332.67312  0.014793362  0.013395205         1991 
 1875000   0.49803871   -7.5682052    333.13762  0.014806117   0.01338467         1908 
 1876000   0.50607537    -7.572977      332.707  0.014779095  0.013374141         1976 
 1877000   0.51311974    -7.571206    332.96463   0.01478266  0.013363628         1889 
 1878000   0.49895291   -7.5798194     332.8738  0.014770758  0.013353124         1869 
 1879000   0.49904709    -7.589272     333.2448  0.014779351  0.013342638         1963 
 1880000   0.51537047   -7.5577462    332.74579   0.01474937  0.013332149         1934 
 1881000   0.50380956   -7.5741893    333.04385  0.014754734  0.013321664         1911 
 1882000   0.50985862   -7.5870252    332.96292   0.01474331  0.013311193         1874 
 1883000   0.50547862    -7.554606     332.5036  0.014715153  0.013300724         1949 
 1884000   0.49937561   -7.5925087     333.2579  0.014740707  0.013290269         1976 
 1885000   0.50046582   -7.5798343    332.87249  0.014715848  0.013279823         1937 
 1886000   0.49947493   -7.5808477    332.83982  0.014706602  0.013269404         2014 
 1887000   0.50931886   -7.5979495    333.00848  0.014706257  0.013258974         1973 
 1888000   0.49492427   -7.5853508    332.60091  0.014680478  0.013248553         2023 
 1889000    0.5019673   -7.5959717    333.60466  0.014716987  0.013238155         1945 
 1890000   0.50022486   -7.5668585    333.01208  0.014683072   0.01322776         1937 
 1891000   0.50009011   -7.5838242     332.4819  0.014651944  0.013217379         2008 
 1892000   0.50274596   -7.6040183    332.85597  0.014660675  0.013207018         1993 
 1893000   0.49647531    -7.590592    332.57952  0.014640761  0.013196663         1967 
 1894000   0.48892275   -7.5756879    332.80918  0.014643135  0.013186317         2000 
 1895000   0.49751526   -7.5782113    332.84935  0.014637175  0.013175975         1961 
 1896000   0.49094284   -7.5662651    332.87742  0.014630688  0.013165647         1966 
 1897000   0.50838697   -7.5774849    332.60167  0.014610862  0.013155324         1933 
 1898000   0.49459516   -7.6032904    332.76048  0.014610137  0.013145014         1934 
 1899000   0.49739598   -7.5963887    333.21865  0.014622549  0.013134711         1942 
 1900000    0.5035967   -7.5759674    332.99801  0.014605176  0.013124415         1973 
 1901000   0.49381806   -7.5878033    332.32253  0.014567882  0.013114116         1926 
 1902000   0.48978491   -7.6040719    332.92512  0.014586625  0.013103841         1955 
 1903000   0.50216511   -7.5863038    332.95742  0.014580374  0.013093571         1964 
 1904000   0.49604118   -7.5812564    332.42228  0.014549295  0.013083311         2026 
 1905000   0.48876052   -7.5865857    332.33578  0.014537873  0.013073071         1936 
 1906000   0.49435519   -7.5885929    332.53475  0.014538945  0.013062826         1987 
 1907000   0.49015203   -7.6031076    332.63608  0.014535749  0.013052597         1974 
 1908000   0.49288053   -7.5830956    332.85043  0.014537493  0.013042371         1931 
 1909000   0.49584463    -7.583871    332.53401  0.014516065  0.013032162         1921 
 1910000   0.49513909   -7.5972511     332.8982  0.014524354   0.01302197         1987 
 1911000   0.48545862   -7.5742766    332.11563  0.014482628  0.013011781         1979 
 1912000   0.48071331   -7.6051635    332.63864  0.014497848  0.013001605         1964 
 1913000   0.49037046     -7.60525     333.1028   0.01451049  0.012991442         1943 
 1914000    0.4901193   -7.6066519    332.41466  0.014472948  0.012981282         1983 
 1915000   0.48777726   -7.6135347    332.22726  0.014457235  0.012971128         2012 
 1916000    0.4904038   -7.5954437    333.06552  0.014486148  0.012960983         1889 
 1917000   0.49491144    -7.597706    332.36562  0.014448166  0.012950846         1971 
 1918000   0.48501412   -7.5976075    332.63536  0.014452353  0.012940711         1988 
 1919000   0.47970566   -7.6112036    332.60886  0.014443671  0.012930589         2024 
 1920000   0.49140419   -7.6033073    333.05178  0.014455372   0.01292049         1969 
 1921000   0.48692566   -7.5857264    333.04839  0.014447701  0.012910398         1964 
 1922000   0.47869484   -7.5936457    332.29149  0.014407366  0.012900319         1948 
 1923000   0.48426375   -7.5859675    332.44816  0.014406663  0.012890237         1976 
 1924000    0.4787421   -7.5970505    332.19778  0.014388331  0.012880159         1938 
 1925000   0.48626047   -7.5986874    332.54162  0.014395741   0.01287009         1999 
 1926000   0.47556139   -7.6026663     332.3659  0.014380664  0.012860045         1954 
 1927000   0.48743733   -7.6122613    333.10409  0.014405124  0.012849999         1967 
 1928000   0.47861625   -7.6028669    332.75214   0.01438244  0.012839969         1990 
 1929000    0.4860712   -7.5886567    332.56618  0.014366951  0.012829944         1980 
 1930000   0.48129041   -7.6063428    332.88867  0.014373431  0.012819933         1962 
 1931000   0.48819228   -7.6085096    332.66909  0.014356512  0.012809921         2006 
 1932000   0.48381678   -7.5991545    332.21665  0.014329566  0.012799921         1946 
 1933000   0.49114413   -7.6261659    333.33721  0.014370461  0.012789929         1923 
 1934000   0.46927286   -7.5970593    332.27498  0.014317261  0.012779947         1944 
 1935000   0.46451627   -7.6037696    332.57496   0.01432278  0.012769979         1927 
 1936000   0.47028323   -7.6090585    332.24315    0.0143011  0.012760015         1930 
 1937000   0.47116558   -7.6137628    332.30035  0.014296178  0.012750068         1874 
 1938000   0.47879079   -7.6030653    332.48836  0.014296885   0.01274012         1911 
 1939000   0.46889319   -7.6061643    332.90531  0.014307431  0.012730183         1945 
 1940000   0.48334857   -7.6037619     333.1895  0.014312264  0.012720264         1915 
 1941000    0.4816237   -7.6004896      332.303   0.01426683  0.012710343         1882 
 1942000   0.48192267   -7.6207594    332.45396  0.014265961  0.012700441         1909 
 1943000   0.47163386   -7.6228535    332.81029  0.014273902  0.012690537         1905 
 1944000    0.4743189   -7.6142688    332.37724  0.014247995  0.012680645         2010 
 1945000   0.46084913   -7.6069035     332.3619  0.014240013   0.01267076         2019 
 1946000   0.46739416     -7.60004    332.51892  0.014239419  0.012660898         1946 
 1947000   0.48530506   -7.6123006    332.55098  0.014233478  0.012651044         1972 
 1948000   0.47401733   -7.6306626    332.57438  0.014227172  0.012641184         1957 
 1949000   0.46877481   -7.6099965     332.2284   0.01420508   0.01263134         1946 
 1950000   0.46585028   -7.6155297    332.61283  0.014214223  0.012621507         1927 
 1951000   0.48394299   -7.5997422    332.50222  0.014202213  0.012611691         1963 
 1952000   0.47299365   -7.6261259    332.33547  0.014187819  0.012601875         1977 
 1953000   0.47093832   -7.6121431    332.34743  0.014181065  0.012592075         1964 
 1954000   0.46082957   -7.6008923    331.81079  0.014150921  0.012582276         1943 
 1955000   0.47900661   -7.6191288    332.67332  0.014180449  0.012572488         1929 
 1956000   0.47258106   -7.6180115    332.69479  0.014174114  0.012562711         1993 
 1957000   0.47747979   -7.6273723    331.99496   0.01413707  0.012552944         1941 
 1958000   0.47705605   -7.6441369    331.99211  0.014129729  0.012543182         1924 
 1959000   0.46688346   -7.6176588    332.82726  0.014158042   0.01253343         1897 
 1960000   0.46753787   -7.6287527    331.86383  0.014109857  0.012523686         1916 
 1961000   0.46209286   -7.6341635    332.32625  0.014122312  0.012513953         1926 
 1962000   0.47466077   -7.6361275    331.88651  0.014096437   0.01250423         1999 
 1963000   0.47867056   -7.6211064    332.76583  0.014126585  0.012494518         1980 
 1964000   0.46516378   -7.6273719     332.8056  0.014121079  0.012484819         1957 
 1965000   0.47895131    -7.609502    332.26432  0.014090938  0.012475128         1949 
 1966000   0.47071332   -7.6174748    332.06622  0.014075374  0.012465441         1912 
 1967000   0.46609426   -7.6210314    332.48167  0.014085819  0.012455757         1975 
 1968000   0.47632616   -7.6114096    332.02255  0.014059221  0.012446088         1989 
 1969000   0.46966381   -7.6341692    332.38824  0.014067557  0.012436433         1983 
 1970000   0.47865025    -7.635838    332.39786  0.014060823  0.012426782         1985 
 1971000   0.47986175   -7.6350281    332.13863  0.014042729   0.01241714         2051 
 1972000     0.459941   -7.6353249    332.20085  0.014038237  0.012407504         1974 
 1973000   0.47445827   -7.6372012    332.23905  0.014032736  0.012397884         1995 
 1974000   0.46450162   -7.6257196    332.45076  0.014034564  0.012388269         1981 
 1975000    0.4623572   -7.6291012    331.99956   0.01400842  0.012378662         2013 
 1976000   0.47540166   -7.6335292    331.99456   0.01400112   0.01236907         1991 
 1977000   0.46585908   -7.6279751     331.9612  0.013992632  0.012359482         2005 
 1978000   0.45794543    -7.626171    332.29359  0.013999562  0.012349901         2049 
 1979000   0.46081387   -7.6345609    331.86627  0.013974493  0.012340331         2089 
 1980000   0.47372071   -7.6304255     332.4915   0.01399375  0.012330768         2025 
 1981000   0.45438133   -7.6261583    332.06805  0.013968873  0.012321212         1971 
 1982000   0.45855993   -7.6232861    332.01343  0.013959529  0.012311682         1996 
 1983000   0.46277585   -7.6333032    331.92722  0.013948866  0.012302147         2027 
 1984000   0.45649732   -7.6332058    332.52333  0.013966874  0.012292617         2061 
 1985000   0.45400624   -7.6299214    331.69752  0.013925169    0.0122831         2043 
 1986000    0.4579958   -7.6278407    331.89996  0.013926652  0.012273599         1989 
 1987000   0.45290587   -7.6454406    332.19008   0.01393181  0.012264104         2035 
 1988000   0.46447939   -7.6240316    332.48108     0.013937  0.012254618         1992 
 1989000   0.45786687   -7.6350872    331.99003   0.01390942  0.012245139         1974 
 1990000    0.4592746   -7.6590254    332.08178  0.013906272  0.012235666         1994 
 1991000   0.45267489   -7.6280652    331.90333  0.013891818  0.012226196         1990 
 1992000   0.45585382   -7.6269017    332.11359  0.013893641   0.01221673         2030 
 1993000   0.45356593   -7.6343226     331.6793  0.013868511  0.012207269         2066 
 1994000   0.46121999   -7.6325475    331.55786   0.01385648   0.01219783         2025 
 1995000   0.45543656   -7.6420182    332.12959  0.013873416    0.0121884         2032 
 1996000   0.45629382   -7.6144166    331.85824  0.013855137  0.012178972         2037 
 1997000   0.45694905   -7.6385851    331.90198  0.013850024  0.012169553         2031 
 1998000   0.45008696   -7.6327691    332.10649  0.013851622  0.012160153         1992 
 1999000   0.44766201   -7.6460174    331.80703  0.013832209  0.012150759         1996 
 2000000   0.46188402   -7.6438984    331.69686  0.013820702  0.012141364         2020 
 2001000   0.44469671   -7.6330729     331.5394  0.013807238  0.012131985         2022 
 2002000   0.44902474   -7.6353213    331.74859  0.013809049  0.012122613         2017 
 2003000   0.45416869   -7.6416527    331.54482  0.013793677  0.012113263         2011 
 2004000   0.46155848    -7.640141     331.6216  0.013789987  0.012103911         1976 
 2005000   0.44517628   -7.6414256      332.054  0.013801081  0.012094572         1945 
 2006000   0.44434485   -7.6434095    331.62462  0.013776364   0.01208523         2055 
 2007000   0.45068157   -7.6534229    331.86908  0.013779649  0.012075904         2008 
 2008000   0.43641439   -7.6451135    332.43848  0.013796418  0.012066587         1997 
 2009000   0.44978185   -7.6395966    331.68727   0.01375839  0.012057279         2041 
 2010000   0.46181527   -7.6495668    331.80982  0.013756626  0.012047976         2015 
 2011000   0.44369174   -7.6399618    331.31639  0.013729338  0.012038681         1992 
 2012000   0.45577924   -7.6520842     331.7006  0.013738428  0.012029392         2044 
Loop time of 4286.89 on 48 procs for 2000000 steps with 4000 atoms

Performance: 80617.819 tau/day, 466.538 timesteps/s
99.4% CPU use with 48 MPI tasks x no OpenMP threads

MPI task timing breakdown:
Section |  min time  |  avg time  |  max time  |%varavg| %total
---------------------------------------------------------------
Pair    | 266.79     | 283.77     | 300.03     |  44.0 |  6.62
Neigh   | 26.678     | 27.256     | 28.692     |   6.6 |  0.64
Comm    | 234.73     | 250.25     | 266.06     |  40.5 |  5.84
Output  | 4.599      | 4.6007     | 4.6417     |   0.3 |  0.11
Modify  | 3654.1     | 3671.3     | 3689.3     |  15.1 | 85.64
Other   |            | 49.72      |            |       |  1.16

Nlocal:        83.3333 ave          90 max          77 min
Histogram: 6 0 1 11 8 5 10 3 3 1
Nghost:        1775.40 ave        1795 max        1759 min
Histogram: 1 3 10 7 7 7 6 4 1 2
Neighs:        10828.4 ave       11642 max        9937 min
Histogram: 5 1 1 8 7 8 5 7 2 4
FullNghs:      21657.3 ave       23512 max       19737 min
Histogram: 5 1 2 4 12 6 9 3 5 1

Total # of neighbors = 1039552
Ave neighs/atom = 259.88800
Neighbor list builds = 107936
Dangerous builds = 2

#clear
#
#next RN
#
#jump SELF
Total wall time: 1:11:29
