
units lj                  # Use reduced LJ style units
atom_style atomic         # Uncharged point particles
atom_modify map hash      # Needed for indexing of clusters etc
                          # Used to be able to find where atoms are in relation to each other.

lattice fcc 1.0 spacing 1 1 1
Lattice spacing in x,y,z = 1.5874011 1.5874011 1.5874011
region box block 0 10 0 10 0 10 units lattice
create_box 2 box
Created orthogonal box = (0.0000000 0.0000000 0.0000000) to (15.874011 15.874011 15.874011)
  3 by 4 by 4 MPI processor grid
create_atoms 1 box
Created 4000 atoms
  using lattice units in orthogonal box = (0.0000000 0.0000000 0.0000000) to (15.874011 15.874011 15.874011)
  create_atoms CPU = 0.003 seconds
set type 1 type/fraction 2 0.67 78393
Setting atom values ...
  2693 settings made for type/fraction
mass 1 1.0
mass 2 1.0
pair_style lj/cut  3.5
pair_modify tail  yes
pair_coeff 1  1  1.0  1.0   # Intearaction between 1 and 1 set with epsilon = 1 and sigma = 1
pair_coeff 1  2  1.5  0.8
pair_coeff 2  2  0.5  0.88

write_data data.0
System init for write_data ...
Neighbor list info ...
  update every 1 steps, delay 10 steps, check yes
  max neighbors/atom: 2000, page size: 100000
  master list distance cutoff = 3.8
  ghost atom cutoff = 3.8
  binsize = 1.9, bins = 9 9 9
  1 neighbor lists, perpetual/occasional/extra = 1 0 0
  (1) pair lj/cut, perpetual
      attributes: half, newton on
      pair build: half/bin/atomonly/newton
      stencil: half/bin/3d
      bin: standard
WARNING: Not all mixed pair coeffs generated from mixing. Use write_data with 'pair ij' option to store all pair coeffs. (../write_data.cpp:312)


#############################
#   M E L T   S Y S T E M   #
#############################

velocity all create 2.4 5300450 mom yes dist gaussian # Assign velocities
                                                    # Temperature 2.4, random number seed, zero linear momentum
                                                                                # Gaussian distribution

timestep 0.002   # simulation timestep
thermo 1000       # output thermodynamic data every 1000 steps bf 100

# Define a fix  in this case with index 1 applied to all
# particles in the simulation. This fix is for simulations
# in the anisotropic NPT ensemble. Note that we use the MTK
# correction.
fix 1 all npt temp 2.4 2.4 0.1 iso 5.68 5.68 0.5 mtk yes tchain 5 pchain 5 # Use NPT ensemble
                                                                         # Set temperature and pressure and damping
                                                                         # Numbers of thermostats in chain and in barostat
run 10000          # run for 10000 steps
Per MPI rank memory allocation (min/avg/max) = 3.642 | 3.644 | 3.648 Mbytes
Step Temp E_pair E_mol TotEng Press Volume 
       0          2.4   -4.3445498            0  -0.74544977   -3.8717164         4000 
    1000    2.3931005   -4.0100171            0  -0.42126372    6.0217008    3617.0165 
    2000    2.3918706    -3.996086            0  -0.40917708    5.7080298     3645.635 
    3000    2.4530021   -4.0266156            0  -0.34803226    6.0454015     3595.452 
    4000    2.3822531   -4.0419011            0  -0.46941481     5.721237    3613.9054 
    5000     2.426376   -4.0194064            0  -0.38075225     5.599481    3646.0749 
    6000    2.4454265   -4.0338017            0  -0.36657897    5.6218823    3645.8592 
    7000    2.3899819   -3.9885755            0  -0.40449884     5.923822    3626.2654 
    8000    2.4360719    -3.998775            0  -0.34558073    5.5069719    3654.0039 
    9000    2.4164788   -4.0026924            0   -0.3788804    5.8057502    3628.1463 
   10000    2.3785964   -4.0114799            0  -0.44447719    5.6209912     3644.909 
Loop time of 2.64234 on 48 procs for 10000 steps with 4000 atoms

Performance: 653965.347 tau/day, 3784.522 timesteps/s
99.6% CPU use with 48 MPI tasks x no OpenMP threads

MPI task timing breakdown:
Section |  min time  |  avg time  |  max time  |%varavg| %total
---------------------------------------------------------------
Pair    | 1.2128     | 1.2667     | 1.4247     |   2.9 | 47.94
Neigh   | 0.21759    | 0.22384    | 0.25422    |   1.1 |  8.47
Comm    | 0.70889    | 0.89092    | 0.97178    |   3.9 | 33.72
Output  | 0.00024752 | 0.00025405 | 0.00031879 |   0.0 |  0.01
Modify  | 0.21413    | 0.24514    | 0.27941    |   3.9 |  9.28
Other   |            | 0.01554    |            |       |  0.59

Nlocal:        83.3333 ave          93 max          76 min
Histogram: 3 5 8 5 10 7 3 3 3 1
Nghost:        1748.29 ave        1780 max        1719 min
Histogram: 6 2 5 6 7 6 4 4 4 4
Neighs:        10469.0 ave       12078 max        9437 min
Histogram: 6 4 7 9 10 3 3 2 2 2

Total # of neighbors = 502514
Ave neighs/atom = 125.62850
Neighbor list builds = 907
Dangerous builds = 209

# Equilibrate just above the melting temperature to avoid step fn in T

fix 1 all npt temp 1.25 1.25 0.1 iso 5.68 5.68 0.5 mtk yes tchain 5 pchain 5
run 2000
Per MPI rank memory allocation (min/avg/max) = 3.644 | 3.646 | 3.650 Mbytes
Step Temp E_pair E_mol TotEng Press Volume 
   10000    2.3785964   -4.0114799            0  -0.44447719    5.6209912     3644.909 
   11000    1.2374987   -5.9227478            0   -4.0669639    5.6640673    2770.3081 
   12000    1.2473298    -5.942064            0   -4.0715371    5.6563545     2766.179 
Loop time of 0.667944 on 48 procs for 2000 steps with 4000 atoms

Performance: 517408.759 tau/day, 2994.264 timesteps/s
99.6% CPU use with 48 MPI tasks x no OpenMP threads

MPI task timing breakdown:
Section |  min time  |  avg time  |  max time  |%varavg| %total
---------------------------------------------------------------
Pair    | 0.30051    | 0.32524    | 0.37406    |   2.8 | 48.69
Neigh   | 0.040927   | 0.043689   | 0.050573   |   0.9 |  6.54
Comm    | 0.19477    | 0.24914    | 0.28235    |   3.8 | 37.30
Output  | 5.0954e-05 | 5.2863e-05 | 6.7649e-05 |   0.0 |  0.01
Modify  | 0.038542   | 0.044909   | 0.050205   |   1.8 |  6.72
Other   |            | 0.004919   |            |       |  0.74

Nlocal:        83.3333 ave          90 max          77 min
Histogram: 1 8 3 11 5 2 6 4 5 3
Nghost:        2117.15 ave        2139 max        2100 min
Histogram: 2 6 5 7 11 5 8 2 0 2
Neighs:        13806.0 ave       15517 max       12248 min
Histogram: 3 2 5 8 10 6 4 5 4 1

Total # of neighbors = 662687
Ave neighs/atom = 165.67175
Neighbor list builds = 143
Dangerous builds = 9

#############################
# L I N E A R  Q U E N C H  #
#############################

# Define solid atoms. This closely follows ten Wolde  Ruiz-Montero and Frenkel  Faraday Discuss  1996  104  93-110
# Compute components of the per-atom q6 vector
compute q6 all orientorder/atom degrees 1 6 components 6 nnn NULL cutoff 1.3 # compute the Q6 parameter.
                                                                             # Use all neighbours within 1.3 unit cell.

# get number of connections
compute coord_number all coord/atom orientorder q6 0.5

# An atom is solid if it has 8 or more connections (of a possible 14)
variable is_solid atom c_coord_number>=8
group solid dynamic all var is_solid    # Must be dynamic to update
dynamic group solid defined

# do clustering
compute cluster solid cluster/atom 1.3 # Create a cluster where all atoms within are solid and max 1.3 units from another member

# define chunks one chunk per cluster
compute clus_chunks solid chunk/atom c_cluster nchunk every compress yes  # Says which atoms are in which chunk

# count the size of each chunk
compute size_chunks solid property/chunk clus_chunks count


# Find the maximum entry in the vector of chunk sizes
variable max_n equal max(c_size_chunks)


# Thermo style which includes this variable
# thermo_style custom step temp pe vol v_max_n

thermo ${N}  # Print the thermo information every 100 steps
thermo 1000  

# Reset the npt fix at a lower temperature (below freezing)
fix 1  all npt temp  ${temp} ${temp}  0.1  iso  5.68  5.68  0.5  mtk yes tchain  5  pchain  5
fix 1  all npt temp  0.45 ${temp}  0.1  iso  5.68  5.68  0.5  mtk yes tchain  5  pchain  5
fix 1  all npt temp  0.45 0.45  0.1  iso  5.68  5.68  0.5  mtk yes tchain  5  pchain  5

dump dmp2 all dcd ${N} traj.dcd
dump dmp2 all dcd 1000 traj.dcd


compute msd all msd com yes
variable twopoint equal c_msd[4]/6/(step*dt+1.0e-6)
fix 9 all vector 10 c_msd[4]
variable fit equal slope(f_9)/6/(10*dt)
thermo_style custom step temp pe c_msd[4] v_twopoint v_fit v_max_n

fix 1 all npt temp 1.25 ${temp} 0.1 iso 5.68 5.68 0.5 mtk yes tchain 5 pchain 5
fix 1 all npt temp 1.25 0.45 0.1 iso 5.68 5.68 0.5 mtk yes tchain 5 pchain 5
run 500000 # 5000000  # Run for this many steps
Neighbor list info ...
  update every 1 steps, delay 10 steps, check yes
  max neighbors/atom: 2000, page size: 100000
  master list distance cutoff = 3.8
  ghost atom cutoff = 3.8
  binsize = 1.9, bins = 8 8 8
  4 neighbor lists, perpetual/occasional/extra = 1 3 0
  (1) pair lj/cut, perpetual
      attributes: half, newton on
      pair build: half/bin/atomonly/newton
      stencil: half/bin/3d
      bin: standard
  (2) compute orientorder/atom, occasional
      attributes: full, newton on
      pair build: full/bin/atomonly
      stencil: full/bin/3d
      bin: standard
  (3) compute coord/atom, occasional
      attributes: full, newton on
      pair build: full/bin/atomonly
      stencil: full/bin/3d
      bin: standard
  (4) compute cluster/atom, occasional
      attributes: full, newton on
      pair build: full/bin/atomonly
      stencil: full/bin/3d
      bin: standard
Per MPI rank memory allocation (min/avg/max) = 9.846 | 9.851 | 9.855 Mbytes
Step Temp PotEng c_msd[4] v_twopoint v_fit v_max_n 
   12000    1.2473298    -5.942064 8.8981538e-30 6.1792732e-32 8.3333333e+20            3 
   13000    1.2261891   -6.0095838   0.56394893 0.0036150571  0.047075104            2 
   14000    1.2328569   -6.0155441    1.0923854 0.0065022938  0.044372451            1 
   15000    1.2398342   -5.9575846    1.6323016 0.0090683422  0.045007019            4 
   16000     1.231889   -6.0209727    2.1261716   0.01107381  0.044357097            6 
   17000    1.2461227   -6.0157082    2.6650427  0.013063935  0.043833621            1 
   18000    1.2548211   -5.9676832    3.1633067  0.014644938  0.043788791            1 
   19000    1.2309602   -5.9592075    3.6702556  0.016097612  0.043438824            5 
   20000    1.2569396   -5.9974799     4.183033  0.017429304  0.043229762            1 
   21000    1.2585365     -6.06005    4.6307545  0.018376009  0.043075278            2 
   22000    1.2250026   -5.9848841    5.2310087  0.019814427  0.042874193            2 
   23000    1.2117365   -6.0148837     5.722088  0.020732202  0.042831252            5 
   24000     1.231671   -6.0201065    6.2654443  0.021755014  0.042805966            2 
   25000    1.2300399   -6.0477986    6.8032321   0.02267744  0.042977837            2 
   26000    1.2408361   -6.0244656    7.3014786  0.023402175  0.043021901            1 
   27000    1.2337432   -6.0542734    7.7800878  0.024012616  0.042984149            3 
   28000     1.230836   -5.9870767    8.3705426  0.024912329    0.0430505            1 
   29000    1.2153865   -6.0355331     9.014431  0.025903537  0.043211461            2 
   30000    1.2268202   -6.0474969     9.574291  0.026595252  0.043401893            2 
   31000     1.239495   -6.0810101    9.9451947  0.026734394  0.043539292            2 
   32000    1.2041697   -6.0454863    10.570171  0.027526485  0.043606838            4 
   33000    1.2365499   -6.0611751     11.11459  0.028067145  0.043704964            2 
   34000    1.2194751   -6.0713712    11.595024  0.028419176  0.043818787            2 
   35000    1.2344901   -6.0749198    12.144837  0.028916277  0.043879193            3 
   36000     1.220909   -6.1144317     12.59658   0.02915875  0.043936666            2 
   37000    1.2322331   -6.0885165    13.186807  0.029700014  0.043934459            2 
   38000    1.2025469   -6.0933427    13.673157  0.029984993  0.043984064            4 
   39000      1.20391   -6.0478909    14.233826  0.030414157  0.043989531            3 
   40000    1.1900026   -6.0536153    14.760153  0.030750319  0.043981215            3 
   41000    1.2170301   -6.1094147    15.138518  0.030769346  0.043948707            1 
   42000    1.2163279   -6.1034381    15.467753  0.030689986  0.043826622            2 
   43000    1.2016614   -6.1003016    15.971613  0.030952738  0.043695183            2 
   44000       1.1802   -6.1330151    16.484641  0.031220911  0.043541985            1 
   45000    1.2112917   -6.0869002    17.116488    0.0316972  0.043444473            3 
   46000    1.2018961   -6.0742382    17.608954  0.031900279   0.04337644            2 
   47000    1.2044405   -6.0922732    18.043788  0.031992532  0.043267364            3 
   48000    1.1882635   -6.1593912    18.539862   0.03218726  0.043179274            4 
   49000     1.206809   -6.1444905    18.918733  0.032174716  0.043086423            2 
   50000    1.1809713   -6.1296917    19.497301  0.032495502  0.042991768            3 
   51000    1.1771234   -6.1618201    19.884199  0.032490521   0.04290619            3 
   52000    1.1859894   -6.1405909    20.366403  0.032638467  0.042812011            2 
   53000     1.174869   -6.1172581    20.879163  0.032828873  0.042702865            4 
   54000    1.1823712   -6.1266263    21.455474  0.033110299  0.042622811            2 
   55000    1.1583407   -6.1294041    21.945427  0.033250647  0.042562533            2 
   56000    1.1895107   -6.1239725    22.416019  0.033357171  0.042486478            2 
   57000    1.1684086   -6.1611748    22.676286  0.033152465  0.042388579            4 
   58000    1.1692278   -6.1716659    23.111798  0.033206607  0.042278439            2 
   59000    1.1919967    -6.217906    23.496877  0.033187679  0.042152064            3 
   60000    1.1748114   -6.1331397    23.918154  0.033219657  0.042017601            1 
   61000     1.157939   -6.2208443    24.157591  0.033002173  0.041862127            2 
   62000    1.1411173   -6.1637849    24.791497  0.033321904  0.041712503            4 
   63000    1.1942081   -6.1590348    25.098588   0.03319919  0.041580995            1 
   64000    1.1706464   -6.1945819    25.425123  0.033105629  0.041452222            1 
   65000    1.1617092   -6.1689131    25.799546  0.033076341  0.041295684            2 
   66000     1.149679   -6.2006014    26.157484  0.033027127  0.041132831            2 
   67000    1.1792168   -6.2215196    26.711845  0.033223687  0.040989493            2 
   68000    1.1663322   -6.2337407    27.056535  0.033157518  0.040849924            3 
   69000     1.174439   -6.1886574    27.478228  0.033186265  0.040693225            3 
   70000    1.1871519   -6.2230996    27.853297  0.033158687  0.040548442            2 
   71000     1.129756   -6.1858888    28.439446  0.033379631   0.04041146            2 
   72000    1.1747202   -6.1930633    28.676579  0.033190484  0.040280698            3 
   73000    1.1492754   -6.2050035    29.068681  0.033183426  0.040144431            5 
   74000    1.1503818   -6.1880519     29.31375   0.03301098  0.039997669            3 
   75000     1.107281   -6.2286465    29.683244  0.032981382  0.039844769            2 
   76000    1.1468607   -6.2261184    30.104962  0.033009827  0.039694374            5 
   77000    1.1407039   -6.2435382    30.390907  0.032890592  0.039549377            3 
   78000    1.1222548   -6.2189571    30.896557  0.033009142  0.039405085            3 
   79000    1.1277685   -6.2860312     31.09347  0.032799019  0.039256516            6 
   80000    1.1672237   -6.2445958     31.30314  0.032607437  0.039094535            2 
   81000    1.1790222   -6.2250172    31.573132  0.032482646  0.038916413            6 
   82000      1.13079   -6.2469348    31.957253  0.032476883  0.038742127            2 
   83000    1.1177527   -6.2825671    32.232078  0.032361524  0.038577505            2 
   84000    1.1102373   -6.2433019    32.609264   0.03235046  0.038402142            4 
   85000    1.1611677    -6.292503    32.902365  0.032257221  0.038232413            5 
   86000    1.1290753   -6.2623041    33.229846  0.032199463  0.038062814            3 
   87000    1.1138423   -6.2762654    33.870437  0.032442947  0.037905795            2 
   88000    1.0972138   -6.2793452    34.024384  0.032220061  0.037757898            4 
   89000    1.1198585   -6.2488886     34.47049   0.03227574  0.037613593            3 
   90000    1.1315294    -6.306881    34.895145  0.032310319  0.037481665            3 
   91000    1.1269728   -6.3199009     35.34757  0.032369569   0.03735817            8 
   92000    1.0828139   -6.3429451    35.468988  0.032127706  0.037235111            5 
   93000    1.1324666   -6.2799252    36.101194   0.03234874  0.037112851            4 
   94000    1.1037584   -6.2890769    36.350623   0.03222573  0.036993026            1 
   95000    1.1270308   -6.2961689    36.675023  0.032171073  0.036867642            4 
   96000    1.1187527   -6.3396517    36.911268  0.032041031  0.036741895            4 
   97000    1.1077583   -6.3053808    37.311346   0.03205442  0.036617851            4 
   98000    1.1041619   -6.3237144    37.730586  0.032083831  0.036505697            2 
   99000    1.0996639   -6.3535141    38.002525  0.031988658  0.036388034            4 
  100000    1.0987602   -6.3208853    38.563915  0.032136596  0.036274531            3 
  101000    1.1170984   -6.3147562    38.893881  0.032090661  0.036171937            4 
  102000    1.1121868   -6.3295387    39.277043  0.032089087  0.036070069            2 
  103000    1.0996613    -6.329605    39.480453  0.031942114  0.035964274            8 
  104000    1.0928952   -6.3285659    39.866782  0.031944537  0.035860399            2 
  105000    1.1146665   -6.3433077    40.297073  0.031981804  0.035758479            9 
  106000    1.1045494   -6.3389087    40.505491   0.03184394  0.035656215            4 
  107000    1.0971273   -6.3618126    40.651998  0.031660435  0.035549405            4 
  108000    1.0724118   -6.3406685    41.366054  0.031918251  0.035445531            5 
  109000    1.0991628   -6.3665995     41.62454  0.031823042  0.035351879            2 
  110000    1.0734515   -6.3532165    41.956013  0.031784858  0.035258661            4 
  111000     1.086835   -6.3578793    42.171701  0.031660436  0.035166035            2 
  112000    1.0775632   -6.3640039    42.620416  0.031711619  0.035075789            4 
  113000    1.1064243   -6.3946736    42.856057  0.031604762  0.034987098            2 
  114000    1.0880776   -6.3752398    43.394205   0.03172091  0.034900641            3 
  115000    1.1134688   -6.3854836    43.683319  0.031654579  0.034820785            2 
  116000    1.0982714   -6.3848559    44.084165  0.031669659  0.034740888            4 
  117000    1.0771397   -6.4045158    44.267419    0.0315295  0.034660342            4 
  118000    1.0816213   -6.3669098    44.735151  0.031592621  0.034576559            2 
  119000    1.0843473    -6.396707    45.010357  0.031519858  0.034497093            6 
  120000    1.0835677   -6.4332364    45.279176  0.031443872   0.03442089            3 
  121000    1.0913029   -6.4328921    45.518765  0.031349012  0.034342182            2 
  122000    1.0654124    -6.379915    45.987531  0.031412248  0.034261921            2 
  123000    1.0644579   -6.4037321    46.103491  0.031235427  0.034181317            6 
  124000    1.0976206   -6.4331905    46.335252  0.031139282  0.034097009            5 
  125000    1.0519574   -6.3873285       46.758     0.031172  0.034009964            3 
  126000    1.0791109    -6.441086    46.807252  0.030957177  0.033923184            4 
  127000    1.0734503   -6.3830763     47.30341  0.031038983  0.033834452            3 
  128000    1.0800526    -6.442095    47.511756  0.030932133  0.033749965            2 
  129000    1.0896853   -6.4176863    47.678523  0.030800079  0.033664125            3 
  130000    1.0617499   -6.4697886     47.89948  0.030704795  0.033572707            2 
  131000    1.0647758   -6.4265022    48.416178  0.030799095  0.033483338            5 
  132000    1.0408125   -6.4598849    48.636569  0.030704905  0.033396533            5 
  133000    1.0543532   -6.4765058    48.771494   0.03055858  0.033309712            7 
  134000    1.0679309   -6.4649645    49.297953  0.030657931  0.033223525            5 
  135000    1.0295267   -6.4942915    49.359858  0.030469048  0.033140789            3 
  136000    1.0678597   -6.4919196    49.593366  0.030388092  0.033055162            2 
  137000    1.0625192   -6.4824816    49.925564  0.030368348  0.032967772            3 
  138000    1.0447498   -6.4792917    50.067389  0.030233931    0.0328755            4 
  139000    1.0460776   -6.5021501    50.328376  0.030172887  0.032783536            4 
  140000    1.0347519   -6.4908504    50.685319  0.030169832  0.032693652            7 
  141000    1.0138522   -6.4995587    50.936895  0.030104548  0.032603889            5 
  142000    1.0462929   -6.4807162    51.035597  0.029950467  0.032514041            1 
  143000    1.0469963   -6.4999921    51.479399   0.02999965   0.03242484            6 
  144000    1.0161533   -6.4903826    51.654771  0.029892807  0.032337259            3 
  145000    1.0303775   -6.4306113     51.90715  0.029831695  0.032246334            2 
  146000    1.0445683   -6.4958944    52.003948  0.029682618  0.032154897            3 
  147000    1.0323359   -6.4716936    52.277235  0.029635621  0.032060871            6 
  148000    1.0357261   -6.5204414    52.516589  0.029570152  0.031968829            3 
  149000    1.0284823    -6.493465    52.845335  0.029555556  0.031876585            3 
  150000    1.0288357   -6.4792341    53.365777  0.029647654  0.031790008            5 
  151000    1.0255178   -6.5265048    53.732693  0.029653804  0.031707893            7 
  152000    1.0409057   -6.5393229    53.676067  0.029427668  0.031622702            8 
  153000    1.0197258   -6.5234821    54.077674  0.029454071   0.03153918            3 
  154000    1.0219958   -6.5083872    54.323564  0.029395868  0.031457506            2 
  155000    1.0298204   -6.5320063     54.66831  0.029391564  0.031375102            6 
  156000    1.0278472   -6.5255111    55.048732  0.029406374  0.031295908            4 
  157000   0.99361163   -6.5496275    55.100805  0.029246712  0.031214752            5 
  158000    1.0001975   -6.5768169    55.287223  0.029159928    0.0311325            7 
  159000    1.0188512   -6.5588997    55.563225  0.029121187  0.031048691            7 
  160000    1.0193571   -6.5366782    55.726282  0.029024105  0.030968011            3 
  161000   0.97959053   -6.5466855    55.781945  0.028872642  0.030884935           13 
  162000    1.0081468   -6.5803283    55.996069  0.028804562  0.030800342            5 
  163000   0.99770508   -6.5925569    56.169106  0.028716312  0.030713515            4 
  164000    1.0007418    -6.560559    56.391927  0.028654434   0.03062623            5 
  165000     1.019779   -6.5631727    56.481331  0.028525925  0.030538493            6 
  166000    1.0115273    -6.586566    56.696155  0.028461925  0.030450058            2 
  167000    0.9992441   -6.5826789    57.139524  0.028512736  0.030364107            4 
  168000   0.99369894   -6.6103601    57.190403  0.028368256  0.030280421            5 
  169000   0.98863846   -6.5911884    57.779613  0.028490933  0.030198109            3 
  170000    1.0042429   -6.5989778    58.001996  0.028432351  0.030116213            4 
  171000    0.9993038   -6.5939464    57.991883  0.028261152  0.030033688            5 
  172000   0.99236812   -6.5944697    58.268139  0.028230688  0.029950346            7 
  173000   0.99836225   -6.5855197    58.457812  0.028158869  0.029866583            9 
  174000    1.0031592     -6.62929    58.564256  0.028048015   0.02978303            4 
  175000   0.98431405    -6.634703    58.908277  0.028051561  0.029702734           10 
  176000   0.99008303   -6.6744341    58.799971  0.027840895  0.029619819            6 
  177000   0.99107613   -6.6543475    59.227946  0.027885097  0.029537293            3 
  178000   0.98347121   -6.6262138     59.58109  0.027893769  0.029456392            3 
  179000   0.97391494   -6.6345806    60.034438  0.027948993  0.029377278            4 
  180000   0.99217543   -6.6603127    60.147472  0.027846052  0.029299593            9 
  181000   0.98852006   -6.6643255    60.141766  0.027689579  0.029222697            7 
  182000   0.98678664   -6.6684638    60.323133  0.027620482  0.029144133            8 
  183000    0.9801374   -6.6715426    60.577804  0.027585521  0.029064939            4 
  184000   0.97726562   -6.7060168    60.691221  0.027486966  0.028985966            3 
  185000   0.97224768    -6.706258    60.764132  0.027371231  0.028905721            9 
  186000   0.96897599    -6.660027    61.146225  0.027395262  0.028825554            5 
  187000   0.98567515   -6.6957326     61.27719  0.027307125   0.02874643            4 
  188000   0.99590234   -6.6942627    61.306495  0.027174865  0.028665666            3 
  189000   0.99078445   -6.6701491    61.471798  0.027103967  0.028585949            5 
  190000   0.97517693   -6.6596326    62.053134  0.027216287  0.028508714            4 
  191000   0.95277772   -6.7272476    62.154192  0.027117885  0.028433081            4 
  192000    0.9754359   -6.7386548     62.11126  0.026958012  0.028353941            5 
  193000   0.96218929   -6.6991773    62.473268  0.026974641  0.028277388            4 
  194000   0.97312803   -6.7224077    62.635957   0.02690548   0.02819921            8 
  195000   0.95491903   -6.7444379    62.557241  0.026733864  0.028119665            3 
  196000   0.97032054   -6.7309018    62.811183  0.026705435  0.028039328            2 
  197000   0.94219186   -6.7060873    63.086632  0.026686393  0.027959057           12 
  198000   0.96746078   -6.7501612    63.153682  0.026579832  0.027879164            6 
  199000   0.95733341    -6.747089    63.163658  0.026450443  0.027800586            3 
  200000   0.96706891   -6.7212062    63.364479  0.026401866   0.02772072            3 
  201000   0.92681969   -6.7359239    63.510479  0.026331044  0.027642339            5 
  202000   0.94696013    -6.754386     63.55527  0.026219171  0.027562783            5 
  203000    0.9345069   -6.7097557     63.92034  0.026239877  0.027481831            6 
  204000    0.9399849   -6.7572287    64.011475  0.026148478  0.027400376            4 
  205000   0.95166173   -6.7458528     64.00391   0.02601785  0.027318463            3 
  206000   0.92471932   -6.7927972    63.989525   0.02588573   0.02723642            5 
  207000   0.93790317   -6.7904428    64.039654  0.025780859  0.027153908           15 
  208000   0.92435038     -6.77752     64.46433  0.025827055  0.027073655            5 
  209000   0.92298484   -6.7692164    64.901654  0.025877852  0.026993543            2 
  210000   0.92326566   -6.7720019    64.964456  0.025779546  0.026915644            4 
  211000   0.93865946   -6.7991982    65.069281  0.025698768  0.026837084            5 
  212000   0.93629951   -6.7801503    65.088222  0.025584993  0.026757477            6 
  213000   0.93695522   -6.7902942    65.094271  0.025467242  0.026676848            3 
  214000   0.91628228   -6.8170931    65.378161  0.025458785  0.026597585            8 
  215000   0.92167464   -6.7734546    65.550885   0.02540732  0.026516662            3 
  216000   0.94447885   -6.7967726    65.523136  0.025278988  0.026436093            3 
  217000   0.92678906   -6.8397271    65.478956  0.025145528  0.026354567            4 
  218000   0.92234139   -6.8501606    65.659207  0.025099085  0.026270965            4 
  219000   0.90800705    -6.831041    65.701053    0.0250004  0.026188811            5 
  220000   0.92389222   -6.7911181    65.738104  0.024900797  0.026106413           15 
  221000   0.91921161   -6.8109757    66.192766  0.024959565   0.02602384            4 
  222000    0.9181565   -6.8422324    66.179555  0.024842175  0.025942993            5 
  223000   0.91094101   -6.8301089    66.128379  0.024711651  0.025862652            7 
  224000   0.92049284   -6.8297238    66.616908  0.024783076  0.025782814            6 
  225000   0.91976815   -6.7989791    66.953132  0.024797456  0.025705803            9 
  226000    0.9227072   -6.8418201    66.970736  0.024694224  0.025629788            7 
  227000   0.91250982   -6.8617597    67.123291  0.024641443  0.025553274            6 
  228000   0.90946276   -6.8301888    67.360081  0.024619913  0.025476746            3 
  229000   0.92270257   -6.8823361    67.496974  0.024562217  0.025401439            5 
  230000   0.90905277   -6.8323507    67.652159  0.024511652  0.025327418            6 
  231000   0.89895803   -6.9033263    67.529671  0.024361353  0.025252393            6 
  232000   0.87879497   -6.8824083    67.674848  0.024308494  0.025176953            6 
  233000   0.90412645   -6.8526859    67.873299  0.024275143   0.02510117           11 
  234000   0.87863964   -6.8946732    67.911255   0.02418492  0.025026611            8 
  235000   0.88524327   -6.9102183    68.025384  0.024122476  0.024951366            7 
  236000   0.87913764     -6.92029    68.377329  0.024144537  0.024876039            4 
  237000   0.88602129   -6.9343673     68.20464  0.023981941  0.024800536            8 
  238000   0.89114832   -6.9332456    68.345161  0.023930379  0.024725587            6 
  239000   0.90121034   -6.9004518    68.529028  0.023894361  0.024651495            7 
  240000   0.88582827   -6.9302918     68.49062  0.023781465    0.0245766            7 
  241000   0.87916864   -6.9214841    68.514579  0.023691071  0.024499993            9 
  242000   0.88042977   -6.9545773    68.589997  0.023619145  0.024423951            8 
  243000    0.8854116   -6.9191834    68.705396  0.023561521  0.024347585            8 
  244000   0.87237924   -6.9135511    68.756532  0.023482422  0.024271636           11 
  245000   0.87601905   -6.9640035    68.716544  0.023372974  0.024195929            9 
  246000   0.85847392   -6.9373883    68.986858  0.023369532  0.024120121            3 
  247000   0.88502081   -6.9341202    69.167807  0.023335967  0.024044317            5 
  248000   0.87267347   -6.9553633    69.388977  0.023316188  0.023969339            6 
  249000   0.86035708   -6.9244594    69.392216  0.023223633  0.023895145            6 
  250000    0.8600546   -6.9884036    69.380746  0.023126915   0.02382144            5 
  251000   0.86052437   -6.9580049    69.750359   0.02315749  0.023747359           10 
  252000   0.87290852   -6.9616024     69.61119  0.023019573  0.023674669            6 
  253000   0.85133754   -6.9762428    69.747239  0.022973399  0.023601349            9 
  254000   0.84444187   -6.9674242    70.170648  0.023021866  0.023529016           21 
  255000   0.84850631   -6.9697035    69.995041  0.022874196   0.02345724            9 
  256000   0.85559263   -6.9699312    69.980482  0.022780105  0.023384947            6 
  257000   0.84849334   -7.0066296    70.223219  0.022770175  0.023312993            7 
  258000   0.85331091   -6.9831341    70.209524  0.022677495  0.023240633            5 
  259000   0.84828499   -6.9963295    70.150532  0.022570956  0.023167644           10 
  260000   0.83042911   -6.9940241     70.47606  0.022588481   0.02309383            4 
  261000   0.87379008   -7.0007205    70.213025  0.022417952   0.02302074            5 
  262000   0.84443542   -6.9978709    70.392243   0.02238939  0.022947918           10 
  263000   0.85434697   -7.0374357    70.214993  0.022248097   0.02287428           13 
  264000   0.87470939   -6.9889862    70.476033  0.022246222   0.02280101            7 
  265000   0.82166964   -7.0303708    70.342221  0.022120195   0.02272771           12 
  266000   0.84237367   -7.0374383    70.453014  0.022071746  0.022654043           16 
  267000   0.83633716   -7.0560672    70.339758  0.021953732  0.022579754            6 
  268000   0.85006711   -7.0578009    70.570347  0.021943516  0.022505604            5 
  269000   0.85946201   -7.0547116    70.580232  0.021865004   0.02243162           38 
  270000   0.82324125   -7.0636305    70.570423  0.021780995  0.022358078           14 
  271000   0.85564698   -7.0823588    70.652388  0.021725827  0.022284748           11 
  272000   0.81925687   -7.0844492    70.711294  0.021663999   0.02221121            6 
  273000   0.83340605    -7.070698     70.92386   0.02164953  0.022137551           15 
  274000   0.82230938    -7.071091    71.022797  0.021600607  0.022064198            5 
  275000   0.82793948   -7.0793949    71.225403  0.021583455  0.021991455           10 
  276000   0.82670167   -7.1167459     71.01259  0.021440999  0.021918721            7 
  277000   0.80910128   -7.0707874    70.900357  0.021329831  0.021845456            4 
  278000   0.81112146   -7.0758687    71.104451  0.021314284  0.021772064           10 
  279000   0.81190836   -7.0801422    71.360639  0.021314408  0.021699335            8 
  280000   0.80488295   -7.0793089    71.355562  0.021236774  0.021627495           10 
  281000   0.81860729   -7.0941032    71.260786  0.021133092  0.021556216            5 
  282000   0.80985504   -7.0944065    71.263502  0.021058954  0.021484818            8 
  283000   0.80119775   -7.1133854    71.559974  0.021071841  0.021413654            8 
  284000   0.80078304   -7.1209308    71.474215  0.020972481  0.021342379            9 
  285000   0.80449342    -7.116312    71.698608  0.020964505  0.021271778           20 
  286000   0.80647119   -7.1025859    71.734857  0.020901765  0.021201218           13 
  287000   0.78997851   -7.1154917    71.723179  0.020825546  0.021131593           23 
  288000   0.80382456   -7.1021764    71.992845  0.020831263   0.02106205           10 
  289000   0.78760319   -7.1529482    71.846163  0.020716887  0.020993402            8 
  290000   0.80443548   -7.1272202    72.062419  0.020707592  0.020924939            6 
  291000   0.78136074   -7.1004084    72.235039  0.020685865   0.02085656           10 
  292000   0.81297469   -7.1133541    72.121858  0.020582722  0.020788797            9 
  293000   0.81300923   -7.1461941     72.22254  0.020541109  0.020721262           15 
  294000   0.80549144   -7.1713947    72.090983  0.020433952  0.020653239            7 
  295000   0.79415624   -7.1764374    72.071981  0.020359317  0.020585115            7 
  296000   0.78510961   -7.1626386     72.30866  0.020357168  0.020517579           15 
  297000   0.76578802   -7.1514438    72.344467  0.020298672  0.020449704            6 
  298000   0.78838238   -7.1785478    72.409499  0.020248741  0.020382574           10 
  299000   0.78713963   -7.1327553    72.266063  0.020141043  0.020315492           10 
  300000     0.786672   -7.1756088    72.573029  0.020159175  0.020248524            4 
  301000   0.78526486   -7.1796322    72.407574  0.020046394  0.020181741            5 
  302000   0.78035979   -7.1988846    72.318868  0.019955538  0.020114341            7 
  303000   0.78847693   -7.1995366     72.37847   0.01990607  0.020046694            9 
  304000   0.76092575   -7.1933411    72.461242  0.019863279  0.019979516            7 
  305000   0.79103234   -7.2085579    72.580037  0.019830611  0.019912666           14 
  306000   0.79346932   -7.2099569    72.670059  0.019790321  0.019846825           14 
  307000   0.79178363   -7.2131623     72.84557  0.019773499  0.019780926           11 
  308000   0.79542603   -7.2315061    72.568408  0.019634309  0.019714744           11 
  309000   0.77593991   -7.2396557    72.768465  0.019624721  0.019648571           16 
  310000   0.78149004   -7.2402939    72.716523  0.019547452  0.019583014           14 
  311000   0.76443672   -7.2374988    72.685249  0.019476219  0.019517387           12 
  312000   0.77662233   -7.2418241    72.856509  0.019459538  0.019452407            5 
  313000   0.76407523   -7.2381769    72.833564  0.019391258   0.01938796           13 
  314000   0.76629943   -7.2604721    72.898829  0.019346823  0.019323111           14 
  315000   0.75859279   -7.2900438    72.882403  0.019281059  0.019258693           14 
  316000   0.77360525   -7.2663469    72.874193  0.019217878  0.019194497           20 
  317000   0.76774461   -7.2552357     72.83925  0.019148068   0.01913022           13 
  318000   0.77837806   -7.2925421    72.814141  0.019081274  0.019065929           10 
  319000   0.75455415   -7.2849197    73.145696  0.019108071  0.019001912           15 
  320000   0.74912849   -7.2622405    72.998075  0.019009915  0.018937919            7 
  321000   0.75460193   -7.2763201    72.906939  0.018927035  0.018873819            8 
  322000    0.7527659   -7.2967848    72.979859  0.018887127  0.018810058           16 
  323000    0.7513629   -7.2971694     72.85367  0.018796097   0.01874644           11 
  324000   0.74394436   -7.2852324    72.976132  0.018769581  0.018682736            8 
  325000   0.74252643   -7.2924293    73.092192  0.018741588  0.018619321           13 
  326000   0.73855864   -7.3338571    73.064272  0.018676961  0.018556523           11 
  327000   0.74703156    -7.321407    73.138009  0.018638636  0.018493532           17 
  328000   0.75218132    -7.327769    72.976121  0.018540681  0.018430491            7 
  329000   0.74431567   -7.3432706    73.009336   0.01849274  0.018367547           26 
  330000   0.73876156   -7.3238732    73.127363  0.018466506  0.018305039           12 
  331000   0.73621638   -7.3642138    73.136364  0.018412982  0.018242307           19 
  332000   0.73703731    -7.341508    73.248442  0.018385653  0.018180035           30 
  333000   0.74932358   -7.3778991     73.17544  0.018312172  0.018118149           19 
  334000   0.72210219   -7.3598365    73.274668  0.018282103   0.01805641           23 
  335000   0.75704037   -7.3692851    73.130271   0.01819161  0.017994749           27 
  336000   0.71255095   -7.3540749    73.149917   0.01814234  0.017932797           43 
  337000   0.72944037   -7.3706518    73.054815  0.018064989  0.017870848           20 
  338000   0.74188562   -7.3665294    73.028292  0.018005003  0.017808773           18 
  339000   0.73129952   -7.3902693    72.983213  0.017940809  0.017746554           11 
  340000   0.71369167   -7.4005449    72.812174  0.017846121  0.017684653           22 
  341000   0.72201108   -7.3549553    73.144515  0.017875004  0.017623123           43 
  342000    0.7289907   -7.3622703    72.989995  0.017785087  0.017562211           18 
  343000   0.71640404   -7.3857408     73.22616  0.017790612  0.017501311           78 
  344000   0.72123655   -7.3754537      73.2439  0.017743193   0.01744092           43 
  345000   0.71056456    -7.398654    73.074724  0.017650899  0.017380713           74 
  346000   0.71468613    -7.396509    73.139112  0.017615393  0.017320718           30 
  347000   0.70094127   -7.4080641    73.190854  0.017577054  0.017261221           82 
  348000   0.71082126   -7.4048975    73.233983  0.017536873  0.017202199           27 
  349000   0.71362951   -7.3926921    73.350969  0.017514558  0.017142882           26 
  350000   0.70658905    -7.410444    73.420623  0.017481101  0.017083883           55 
  351000   0.69708666   -7.4294675    73.408895  0.017428512  0.017024757           32 
  352000   0.70569339   -7.4531314    73.137684  0.017314792  0.016965696           32 
  353000   0.71010665   -7.4343839    73.251979  0.017292724  0.016906715           67 
  354000   0.70594232   -7.4184018    73.413323  0.017281856  0.016848129           26 
  355000   0.69229245   -7.4491645    73.438331  0.017239045  0.016789827           50 
  356000    0.6924568   -7.4466743    73.297582  0.017157674  0.016731535           16 
  357000   0.70641665   -7.4474385    73.300086  0.017110197  0.016673449           16 
  358000   0.68524006   -7.4581813    73.284101  0.017058683  0.016615451           39 
  359000   0.69152222   -7.4664723    73.325543  0.017020785  0.016557728           17 
  360000   0.68723153   -7.4646655    73.371477  0.016984138  0.016500255           18 
  361000   0.69418926   -7.4944242    73.209791  0.016899767  0.016442738           69 
  362000   0.68547974   -7.4660543    73.256864  0.016863919  0.016385393           41 
  363000   0.67939119   -7.4651823    73.370163  0.016843472  0.016328274           34 
  364000    0.6911034   -7.4561968    73.327781  0.016787496  0.016271458           43 
  365000   0.68531675     -7.50398    73.197194  0.016711688   0.01621468           68 
  366000   0.68718225   -7.5259686    73.290879  0.016687359  0.016158249           47 
  367000   0.69424666   -7.5004544     73.20119  0.016621524  0.016101863           20 
  368000   0.68711549   -7.5001369     73.28505  0.016595347  0.016045791           25 
  369000   0.69601512   -7.5277758    73.360246  0.016567355  0.015989751           33 
  370000   0.67463736   -7.5213608     73.20317    0.0164872  0.015934161           27 
  371000   0.67624746   -7.5220473    73.396379  0.016486159  0.015878775           42 
  372000    0.6740633    -7.526123    73.351811  0.016431857  0.015823378           37 
  373000   0.65691267   -7.5244445    73.426937  0.016404588  0.015768178           36 
  374000   0.67767904   -7.5429153     73.13925  0.016296624  0.015713051           69 
  375000   0.66381918   -7.5357747    73.107631   0.01624614  0.015658169           32 
  376000   0.68771549   -7.5376909    73.294334  0.016244312  0.015603513           29 
  377000   0.68373124   -7.5502478    73.240322  0.016189284  0.015549071           81 
  378000   0.66807387   -7.5339856    73.249667  0.016148516  0.015494737           32 
  379000   0.65167552   -7.5421608     73.36621  0.016131532  0.015440658           35 
  380000   0.66733543   -7.5815487     73.12122  0.016035355  0.015386927           40 
  381000   0.64857179   -7.5680675    73.247096    0.0160208  0.015333123           27 
  382000   0.66833356   -7.5637436    73.278159  0.015985637  0.015279584           36 
  383000   0.66205777   -7.5635144    73.214719  0.015930096   0.01522617           50 
  384000    0.6511908   -7.5501222    73.217066   0.01588912  0.015172839           32 
  385000    0.6505731   -7.5937483    73.031599  0.015807705  0.015119562           50 
  386000   0.64744811   -7.5729394    73.299815  0.015824658  0.015066563           75 
  387000    0.6490521    -7.580791    73.076079   0.01573559  0.015013515           98 
  388000   0.64435116   -7.5782039    73.157303  0.015712479  0.014961006           42 
  389000   0.65153714   -7.6094875    73.009416  0.015640406  0.014908341           64 
  390000   0.63564684   -7.5951526    73.170066  0.015634629  0.014855857           86 
  391000   0.66362025   -7.5772776    73.061219  0.015571445  0.014803372           86 
  392000    0.6550742   -7.5864653    73.119266  0.015544062  0.014751176           89 
  393000   0.62665017   -7.5963541    72.951237   0.01546888  0.014699108           67 
  394000   0.63375995   -7.5974068    72.992214  0.015438285  0.014647026           36 
  395000   0.64141442   -7.6127898    73.125787  0.015427381  0.014595231           67 
  396000   0.63580439   -7.6197713     72.97129  0.015355911  0.014543684           85 
  397000   0.62667397   -7.6179939    73.065253  0.015336955  0.014492386           75 
  398000   0.62740505   -7.6280384    72.900011  0.015263821  0.014441132           51 
  399000   0.62978698   -7.6181344    73.084995  0.015264201  0.014390199           68 
  400000   0.62557619   -7.6343509    72.853714  0.015177857  0.014339354           75 
  401000   0.63261092   -7.6415167    72.986368  0.015167574  0.014288627           79 
  402000   0.61207426   -7.6424708    73.009592  0.015134658  0.014238146           58 
  403000   0.61975415   -7.6581855    73.003341  0.015095811  0.014187799           69 
  404000   0.60973682   -7.6570304    72.956636  0.015048811  0.014137779           92 
  405000   0.62543484   -7.6597914    72.918079   0.01500372  0.014087893           74 
  406000   0.60841824   -7.6367401    72.913254  0.014965775  0.014038085          107 
  407000   0.62324732   -7.6442158    73.027422   0.01495238  0.013988402           61 
  408000   0.63440594   -7.6696666    72.995161  0.014909142  0.013938995          113 
  409000    0.6068834   -7.6646869    72.896886  0.014852666  0.013889782           79 
  410000   0.60426815   -7.6677069    72.816012  0.014800002  0.013840822          104 
  411000   0.61422316   -7.6915828     73.01632  0.014804607  0.013791963          104 
  412000   0.61981045   -7.6975974    72.851106  0.014735256  0.013743256          125 
  413000    0.5904332   -7.6936417    72.900422  0.014709528  0.013694799          109 
  414000   0.61506011   -7.6982652    72.720054  0.014637692  0.013646408           95 
  415000   0.59418876   -7.7237021    72.798833  0.014618239  0.013598078          311 
  416000   0.59262046   -7.7016755    72.853846   0.01459412  0.013550006          118 
  417000   0.57469597   -7.7126355     72.80078  0.014548517   0.01350209          277 
  418000   0.59664743   -7.7186729    72.747995  0.014503189  0.013454333          110 
  419000     0.602101    -7.727786    72.762032  0.014471367  0.013406807          129 
  420000   0.59399732     -7.72352    72.771666  0.014438823  0.013359299          106 
  421000   0.58363584   -7.7032304    72.654403  0.014381315  0.013312094          188 
  422000    0.6000648     -7.71685    72.617581  0.014339965  0.013265017           84 
  423000   0.58114211   -7.7356221    72.747225  0.014331605   0.01321825          335 
  424000   0.58860009   -7.7214049    72.709681  0.014290425  0.013171542          289 
  425000   0.58834671   -7.7294759     72.74252  0.014263239  0.013125143          182 
  426000   0.59192647   -7.7625989    72.701343  0.014221702  0.013078829          174 
  427000   0.59763788   -7.7510175    72.708197  0.014189734  0.013032801          252 
  428000   0.57940893   -7.7515112    72.640486  0.014143397  0.012986855          188 
  429000   0.59796426   -7.7509611    72.671705  0.014116493  0.012941158          123 
  430000   0.58511801   -7.7532525    72.622549  0.014074137  0.012895671          233 
  431000   0.59140297   -7.7679078    72.703961  0.014057224  0.012850422          414 
  432000   0.57559621   -7.7921612    72.570317  0.013998904  0.012805236          121 
  433000   0.57625587    -7.779673     72.63983  0.013979952  0.012760365          393 
  434000   0.57314127   -7.7632389    72.799771  0.013978451  0.012715607          182 
  435000    0.5776295   -7.7853917    72.510165  0.013890836  0.012671057          221 
  436000   0.56778833   -7.7843006    72.484131  0.013854001  0.012626571          178 
  437000   0.55464086   -7.7908434    72.463631  0.013818389  0.012582205          125 
  438000   0.57535496   -7.8073513     72.51996  0.013797557  0.012538088          113 
  439000   0.56910972   -7.7902872    72.625509  0.013786163  0.012494124          134 
  440000   0.57156603   -7.7943683    72.609063  0.013751716  0.012450366          126 
  441000   0.56740256   -7.8075169    72.453135  0.013691069  0.012406742          222 
  442000   0.56574953   -7.7942944    72.375404  0.013645438    0.0123633          213 
  443000   0.55984529    -7.797125    72.544754  0.013646492  0.012320062          295 
  444000   0.55166479   -7.7956443     72.49928  0.013607222  0.012276915          311 
  445000   0.55721457   -7.7949227    72.524579  0.013581382  0.012234126          192 
  446000   0.56527804    -7.824328     72.46043  0.013538944  0.012191492          135 
  447000   0.55336687   -7.8035789    72.568871  0.013528872  0.012149073          276 
  448000    0.5491617   -7.8220259    72.315469  0.013451538  0.012106827          153 
  449000   0.53947536   -7.8089599    72.530322  0.013461455  0.012064679          128 
  450000   0.54264829   -7.8211279    72.535812  0.013432558  0.012022723           82 
  451000   0.54581052    -7.833356    72.485625    0.0133935  0.011980925          257 
  452000   0.55370762    -7.816022    72.496811  0.013365931  0.011939317          238 
  453000   0.54745184   -7.8298228    72.416881  0.013321722  0.011897874          211 
  454000   0.54195363   -7.8437408    72.434528  0.013295618  0.011856534          194 
  455000   0.53760587   -7.8383604     72.30034   0.01324182  0.011815431          180 
  456000   0.54411145   -7.8317674    72.267682  0.013206813  0.011774464          152 
  457000   0.53712287    -7.839031    72.433567  0.013208163  0.011733644          155 
  458000   0.54497484   -7.8219327    72.438985   0.01318031  0.011693006          337 
  459000   0.52660414   -7.8425497    72.269871  0.013120892  0.011652508          199 
  460000   0.53556175   -7.8490625    72.358413  0.013108408  0.011612171          172 
  461000   0.53368563   -7.8592336    72.418081  0.013090759  0.011572074          136 
  462000   0.53041227    -7.852599    72.443195  0.013066954  0.011532056          185 
  463000   0.53068839   -7.8540807    72.244879  0.013003038  0.011492335           74 
  464000   0.52732015   -7.8590518    72.327155  0.012989791  0.011452709          134 
  465000   0.53005531   -7.8604928    72.188648  0.012937034  0.011413161          192 
  466000   0.52445069   -7.8594542    72.259408  0.012921926    0.0113738          153 
  467000   0.51591941   -7.8571598    72.196896  0.012883101  0.011334586           98 
  468000   0.51522128   -7.8618886    72.311928  0.012876056  0.011295618          401 
  469000   0.53854529   -7.8622495    72.284319  0.012843696  0.011256803          232 
  470000   0.52192314   -7.8809626    72.303637  0.012819794  0.011218165          302 
  471000   0.52262786   -7.8761876    72.221161  0.012777983  0.011179613          275 
  472000   0.51825299   -7.9096553    72.211504  0.012749206  0.011141236          269 
  473000   0.51624506   -7.8720279     72.15057  0.012711517  0.011102971          210 
  474000   0.51161385   -7.8919918    72.125922  0.012680366  0.011064962          111 
  475000   0.52483655   -7.8978392    72.143932   0.01265683  0.011027092          326 
  476000   0.49584588   -7.8993253    72.153017  0.012631831   0.01098936          140 
  477000   0.50265809    -7.882703    72.091384  0.012594581  0.010951766          115 
  478000   0.49778002    -7.917013    72.108722  0.012571256  0.010914319          184 
  479000   0.50647289   -7.9121887    72.125629  0.012547952     0.010877          310 
  480000   0.51968648   -7.9300197    72.137776  0.012523919   0.01083986          205 
  481000   0.49656379    -7.923983    72.109327  0.012492953  0.010802884          187 
  482000   0.50074773   -7.9237499      72.0531  0.012457313  0.010766041          114 
  483000    0.4896701   -7.9135605    72.128967  0.012444611  0.010729346          337 
  484000   0.49374703   -7.9325859    72.104349  0.012414661  0.010692851          372 
  485000   0.49491073    -7.927391    72.059028  0.012381276  0.010656433          204 
  486000   0.49549901   -7.9170235    71.969889  0.012340516   0.01062019          212 
  487000   0.48496776   -7.9145591    72.104274  0.012338171  0.010584102          280 
  488000   0.48559977   -7.9153333    72.016835  0.012297957  0.010548163          119 
  489000   0.49445079   -7.9343274    72.056912  0.012279637  0.010512389          239 
  490000   0.47923051   -7.9196639    71.982806  0.012241974  0.010476695          140 
  491000    0.4853925   -7.9281162    71.962897  0.012213662  0.010441247          263 
  492000   0.48519209   -7.9302096    72.209279  0.012230569  0.010405972          221 
  493000   0.47850234   -7.9109872    71.932802  0.012159027   0.01037087          179 
  494000   0.48794761   -7.9341909     71.86899  0.012123649  0.010335833          151 
  495000   0.48272301   -7.9403478    71.960189   0.01211451  0.010300945          348 
  496000   0.47096839   -7.9637392    71.961076  0.012090234  0.010266198          168 
  497000   0.47466425   -7.9292523    71.962004  0.012066064  0.010231588          146 
  498000   0.47633558   -7.9464993    71.907958  0.012032791  0.010197134          133 
  499000   0.47749752   -7.9620264    71.919682  0.012010635  0.010162884          141 
  500000   0.46262984   -7.9545919    71.915906  0.011985984   0.01012874          203 
  501000   0.46379243   -7.9685057    71.954488  0.011968478  0.010094811          189 
  502000    0.4706637   -7.9645596    71.920173   0.01193894  0.010060956          134 
  503000   0.46871226   -7.9725356    71.906977  0.011913018  0.010027213          287 
  504000   0.46229135    -7.980421    71.784354  0.011869106 0.0099936132          439 
  505000   0.46314353   -7.9607866    71.824065  0.011852156 0.0099602087          197 
  506000   0.45415867   -7.9784632    71.828077  0.011829393 0.0099268944          202 
  507000   0.46106786   -7.9640688    71.873234  0.011813484 0.0098937427          133 
  508000   0.45973938   -7.9702922     71.93994  0.011801171 0.0098607482          180 
  509000   0.45993433    -7.965977    71.813977  0.011757364 0.0098278373          170 
  510000   0.44810334   -7.9738244    71.754618  0.011724611 0.0097950812          114 
  511000   0.45634786   -7.9847304    71.880053  0.011722122 0.0097624226          201 
  512000   0.44746882   -8.0034086    71.717878  0.011672832 0.0097299033          282 
Loop time of 1306.72 on 48 procs for 500000 steps with 4000 atoms

Performance: 66119.866 tau/day, 382.638 timesteps/s
99.4% CPU use with 48 MPI tasks x no OpenMP threads

MPI task timing breakdown:
Section |  min time  |  avg time  |  max time  |%varavg| %total
---------------------------------------------------------------
Pair    | 95.123     | 102.01     | 109.77     |  35.7 |  7.81
Neigh   | 9.1116     | 9.495      | 9.8488     |   6.4 |  0.73
Comm    | 86.72      | 93.563     | 100.14     |  33.2 |  7.16
Output  | 0.99642    | 0.99736    | 1.0282     |   0.5 |  0.08
Modify  | 1082.1     | 1088.5     | 1094.2     |   6.8 | 83.30
Other   |            | 12.15      |            |       |  0.93

Nlocal:        83.3333 ave          89 max          75 min
Histogram: 2 0 5 1 2 13 8 10 4 3
Nghost:        2427.58 ave        2448 max        2411 min
Histogram: 4 2 8 4 11 7 2 8 1 1
Neighs:        16803.4 ave       19504 max       14540 min
Histogram: 1 4 9 6 9 8 2 7 1 1
FullNghs:      33606.4 ave       35786 max       30304 min
Histogram: 2 1 3 2 6 8 9 6 8 3

Total # of neighbors = 1613109
Ave neighs/atom = 403.27725
Neighbor list builds = 26684
Dangerous builds = 0

#clear
#
#next RN
#
#jump SELF
Total wall time: 0:21:50
