
units lj                  # Use reduced LJ style units
atom_style atomic         # Uncharged point particles
atom_modify map hash      # Needed for indexing of clusters etc
                          # Used to be able to find where atoms are in relation to each other.

# Define a lattice with which to populate the simulation cell. With units
# set to 'lj' the second argument to the lattice command is the reduced
# density rho* and the spacings are multiples of that required to acheive
# that density. Also define a simulation cell called 'box' in lattice units
# and fill it with atoms. Here we're creating a box which is ten lattice
# constants in each direction.
lattice fcc 1.0 spacing 1 1 1                 # All equal sizes - gives the right reduced density.
Lattice spacing in x,y,z = 1.5874011 1.5874011 1.5874011

region box block 0 10 0 10 0 10 units lattice # Defines a region, "box", in lattice units
create_box 1 box                              # Creates a simulation box as specified above,
Created orthogonal box = (0.0000000 0.0000000 0.0000000) to (15.874011 15.874011 15.874011)
  2 by 4 by 4 MPI processor grid
                                              # with one type of atom
create_atoms 1 box                            # Creates particles on lattice points
Created 4000 atoms
  using lattice units in orthogonal box = (0.0000000 0.0000000 0.0000000) to (15.874011 15.874011 15.874011)
  create_atoms CPU = 0.001 seconds


# Set the mass of the first (and only) atom type.
mass 1 1.0

# Lennard-Jones interactions between particles, 3.5 sigma cut-off. Apply
# long range tail corrections to energy and pressure and set all coefficients
# to unity since we work in reduced units here. Note that this doesn't shift
# the potential such that it goes to zero at the cutoff. That would require
# pair_modify('shift', 'yes').
pair_style lj/cut  3.5      # non-GPU version
pair_modify tail  yes
pair_coeff 1  1  1.0  1.0   # Intearaction between 1 and 1 set with epsilon = 1 and sigma = 1

write_data data.*
System init for write_data ...
Neighbor list info ...
  update every 1 steps, delay 10 steps, check yes
  max neighbors/atom: 2000, page size: 100000
  master list distance cutoff = 3.8
  ghost atom cutoff = 3.8
  binsize = 1.9, bins = 9 9 9
  1 neighbor lists, perpetual/occasional/extra = 1 0 0
  (1) pair lj/cut, perpetual
      attributes: half, newton on
      pair build: half/bin/atomonly/newton
      stencil: half/bin/3d
      bin: standard

#############################
#   M E L T   S Y S T E M   #
#############################

velocity all create 2.4 6583654 mom yes dist gaussian # Assign velocities
                                                    # Temperature 2.4, random number seed, zero linear momentum
						                                                        # Gaussian distribution

timestep 0.002   # simulation timestep
thermo 100       # output thermodynamic data every 100 steps

# Define a fix  in this case with index 1 applied to all
# particles in the simulation. This fix is for simulations
# in the anisotropic NPT ensemble. Note that we use the MTK
# correction.
fix 1 all npt temp 2.4 2.4 0.1 iso 5.68 5.68 0.5 mtk yes tchain 5 pchain 5 # Use NPT ensemble
                                                                         # Set temperature and pressure and damping
                                                                         # Numbers of thermostats in chain and in barostat
run 1000         # run for 10000 steps
Per MPI rank memory allocation (min/avg/max) = 3.660 | 3.660 | 3.660 Mbytes
Step Temp E_pair E_mol TotEng Press Volume 
       0          2.4   -8.3859253            0   -4.7868253   -2.2405722         4000 
     100    1.2691967   -6.5422289            0   -4.6389098    5.3378653    4090.7551 
     200    1.4787625   -6.3158233            0   -4.0982341    6.0374862    4137.2558 
     300    1.5708342   -6.0123056            0   -3.6566434    5.8269752    4273.6084 
     400    1.6935755   -5.7191311            0    -3.179403    5.9540602    4395.1747 
     500    1.7875886   -5.4095267            0   -2.7288141    6.0322401    4536.9038 
     600    1.8873111   -5.1521313            0   -2.3218724    5.7297832     4702.884 
     700    2.0258918   -4.9144312            0   -1.8763532    5.9082203    4824.8495 
     800    2.1522544   -4.7292823            0   -1.5017078    5.7781683    4963.9277 
     900     2.239714   -4.5446635            0   -1.1859323    5.7477122    5090.6319 
    1000    2.3765823   -4.4738755            0  -0.90989327    5.6796077     5154.488 
Loop time of 0.256637 on 32 procs for 1000 steps with 4000 atoms

Performance: 673324.840 tau/day, 3896.556 timesteps/s
99.6% CPU use with 32 MPI tasks x no OpenMP threads

MPI task timing breakdown:
Section |  min time  |  avg time  |  max time  |%varavg| %total
---------------------------------------------------------------
Pair    | 0.13495    | 0.13901    | 0.14411    |   0.6 | 54.17
Neigh   | 0.025659   | 0.02642    | 0.027273   |   0.2 | 10.29
Comm    | 0.062558   | 0.068955   | 0.074585   |   1.2 | 26.87
Output  | 0.00020135 | 0.00020417 | 0.00024909 |   0.0 |  0.08
Modify  | 0.018265   | 0.020096   | 0.022078   |   0.8 |  7.83
Other   |            | 0.001954   |            |       |  0.76

Nlocal:        125.000 ave         138 max         116 min
Histogram: 1 2 6 7 6 8 0 1 0 1
Nghost:        1666.91 ave        1703 max        1646 min
Histogram: 3 5 7 4 5 4 1 0 2 1
Neighs:        11088.0 ave       12468 max       10095 min
Histogram: 1 2 5 8 9 2 2 1 1 1

Total # of neighbors = 354817
Ave neighs/atom = 88.704250
Neighbor list builds = 86
Dangerous builds = 20

# Equilibrate just above the melting temperature to avoid step fn in T

fix 1 all npt temp 1.25 1.25 0.1 iso 5.68 5.68 0.5 mtk yes tchain 5 pchain 5
run 1000
Per MPI rank memory allocation (min/avg/max) = 3.661 | 3.661 | 3.661 Mbytes
Step Temp E_pair E_mol TotEng Press Volume 
    1000    2.3765823   -4.4738755            0  -0.90989327    5.6796077     5154.488 
    1100    1.9625951   -4.6989107            0   -1.7557541    5.6812496    4983.8841 
    1200    1.7289901   -4.9599136            0   -2.3670769    5.8142104    4790.1519 
    1300    1.5792657   -5.2249024            0   -2.8565961    5.6289859    4660.4039 
    1400    1.4517319   -5.4215948            0   -3.2445414    5.5197346    4561.4045 
    1500     1.364265   -5.5680033            0   -3.5221174    5.5958139    4483.3542 
    1600    1.3084699   -5.6759595            0   -3.7137453    5.6057769    4426.4503 
    1700    1.2550401   -5.7394736            0   -3.8573841    5.7381181    4381.4433 
    1800    1.2507956   -5.8140506            0   -3.9383263    5.7576039    4349.7766 
    1900    1.2205858   -5.8218536            0   -3.9914327    5.7234503    4347.2659 
    2000    1.2599896   -5.8219529            0    -3.932441    5.7139167    4350.4536 
Loop time of 0.249412 on 32 procs for 1000 steps with 4000 atoms

Performance: 692829.117 tau/day, 4009.428 timesteps/s
99.7% CPU use with 32 MPI tasks x no OpenMP threads

MPI task timing breakdown:
Section |  min time  |  avg time  |  max time  |%varavg| %total
---------------------------------------------------------------
Pair    | 0.13381    | 0.13798    | 0.14423    |   0.6 | 55.32
Neigh   | 0.022586   | 0.02315    | 0.024168   |   0.2 |  9.28
Comm    | 0.057789   | 0.06676    | 0.071258   |   1.2 | 26.77
Output  | 0.00019832 | 0.00020101 | 0.00023956 |   0.0 |  0.08
Modify  | 0.017489   | 0.019069   | 0.021378   |   0.9 |  7.65
Other   |            | 0.00225    |            |       |  0.90

Nlocal:        125.000 ave         130 max         115 min
Histogram: 1 0 0 2 4 3 6 7 4 5
Nghost:        1853.16 ave        1868 max        1832 min
Histogram: 1 0 2 6 2 5 3 6 3 4
Neighs:        13129.4 ave       13744 max       12058 min
Histogram: 1 0 2 3 3 2 5 8 5 3

Total # of neighbors = 420140
Ave neighs/atom = 105.03500
Neighbor list builds = 75
Dangerous builds = 9


# Small amount of linear quench

fix 1 all npt temp 1.25 ${temp} 0.1 iso 5.68 5.68 0.5 mtk yes tchain 5 pchain 5
fix 1 all npt temp 1.25 0.98 0.1 iso 5.68 5.68 0.5 mtk yes tchain 5 pchain 5
run 2000
Per MPI rank memory allocation (min/avg/max) = 3.661 | 3.662 | 3.662 Mbytes
Step Temp E_pair E_mol TotEng Press Volume 
    2000    1.2599896   -5.8219529            0    -3.932441    5.7139167    4350.4536 
    2100    1.2434869   -5.8581457            0   -3.9933817    5.6779295    4336.2868 
    2200    1.2027494   -5.8577384            0   -4.0540654    5.6239145    4334.7108 
    2300    1.2290537   -5.8971021            0   -4.0539825     5.648605    4319.7886 
    2400    1.2207858   -5.9178391            0   -4.0871182     5.797426    4299.3768 
    2500    1.2070401   -5.9615833            0   -4.1514758    5.7186524    4287.9605 
    2600    1.1803689   -5.9623689            0   -4.1922581    5.8690236    4271.3114 
    2700    1.1657536   -5.9745995            0   -4.2264063    5.7598691    4274.4441 
    2800    1.1553077   -5.9995982            0   -4.2670699     5.698021    4269.1138 
    2900    1.1376581   -6.0200214            0   -4.3139609    5.7397569    4256.5401 
    3000    1.0997816   -6.0378872            0   -4.3886272    5.7014335    4247.3613 
    3100     1.100493   -6.0630764            0   -4.4127495    5.7491215    4234.7675 
    3200    1.0963097   -6.1000422            0   -4.4559888    5.6232417    4230.9995 
    3300    1.0793759   -6.1019392            0   -4.4832801    5.7223056    4220.1291 
    3400    1.0667968   -6.1285523            0   -4.5287572     5.705462     4210.205 
    3500    1.0498574   -6.1406695            0    -4.566277    5.8823158    4190.2834 
    3600    1.0400222   -6.1541945            0   -4.5945511    5.8808274    4185.6345 
    3700    1.0341225   -6.2061946            0   -4.6553986    5.5606062     4188.986 
    3800     1.015026   -6.2482637            0   -4.7261053     5.380379    4184.2985 
    3900     1.008909   -6.2769381            0   -4.7639529    5.5735534    4159.9905 
    4000   0.98922355   -6.2729874            0   -4.7895231     5.692692    4151.4133 
Loop time of 0.519373 on 32 procs for 2000 steps with 4000 atoms

Performance: 665418.263 tau/day, 3850.800 timesteps/s
99.8% CPU use with 32 MPI tasks x no OpenMP threads

MPI task timing breakdown:
Section |  min time  |  avg time  |  max time  |%varavg| %total
---------------------------------------------------------------
Pair    | 0.28614    | 0.29532    | 0.3046     |   0.8 | 56.86
Neigh   | 0.038999   | 0.039972   | 0.04102    |   0.3 |  7.70
Comm    | 0.12861    | 0.13951    | 0.15204    |   1.6 | 26.86
Output  | 0.00040263 | 0.00040727 | 0.00049024 |   0.0 |  0.08
Modify  | 0.035243   | 0.038909   | 0.042656   |   1.2 |  7.49
Other   |            | 0.005259   |            |       |  1.01

Nlocal:        125.000 ave         132 max         119 min
Histogram: 4 1 2 5 6 2 7 3 1 1
Nghost:        1907.72 ave        1922 max        1894 min
Histogram: 3 0 4 5 3 5 6 3 1 2
Neighs:        13778.2 ave       14786 max       12807 min
Histogram: 1 1 5 4 4 6 6 2 2 1

Total # of neighbors = 440902
Ave neighs/atom = 110.22550
Neighbor list builds = 125
Dangerous builds = 0

#############################
# F R E E Z E  S Y S T E M  #
#############################

# Define solid atoms. This closely follows ten Wolde  Ruiz-Montero and Frenkel  Faraday Discuss  1996  104  93-110
# Compute components of the per-atom q6 vector
compute q6 all orientorder/atom degrees 1 6 components 6 nnn NULL cutoff 1.3 # compute the Q6 parameter.
                                                                             # Use all neighbours within 1.3 unit cell.

# get number of connections
compute coord_number all coord/atom orientorder q6 0.5

# An atom is solid if it has 8 or more connections (of a possible 14)
variable is_solid atom c_coord_number>=8
group solid dynamic all var is_solid    # Must be dynamic to update
dynamic group solid defined

# do clustering
compute cluster solid cluster/atom 1.3 # Create a cluster where all atoms within are solid and max 1.3 units from another member

# define chunks one chunk per cluster
compute clus_chunks solid chunk/atom c_cluster nchunk every compress yes  # Says which atoms are in which chunk

# count the size of each chunk
compute size_chunks solid property/chunk clus_chunks count


# Find the maximum entry in the vector of chunk sizes
variable max_n equal max(c_size_chunks)


# Thermo style which includes this variable
thermo_style custom step temp pe vol v_max_n

thermo ${N}  # Print the thermo information every 100 steps
thermo 100  

# Reset the npt fix at a lower temperature (below freezing)
fix 1  all npt temp  ${temp} ${temp}  0.1  iso  5.68  5.68  0.5  mtk yes tchain  5  pchain  5
fix 1  all npt temp  0.98 ${temp}  0.1  iso  5.68  5.68  0.5  mtk yes tchain  5  pchain  5
fix 1  all npt temp  0.98 0.98  0.1  iso  5.68  5.68  0.5  mtk yes tchain  5  pchain  5

dump dmp2 all dcd ${N} traj_${rand}.dcd
dump dmp2 all dcd 100 traj_${rand}.dcd
dump dmp2 all dcd 100 traj_462431.dcd


# fix rnuntil all halt ${N} v_max_n >= 3980 error soft message no   # Stop when solidified


run 100000 # 5000000  # Run for this many steps
Neighbor list info ...
  update every 1 steps, delay 10 steps, check yes
  max neighbors/atom: 2000, page size: 100000
  master list distance cutoff = 3.8
  ghost atom cutoff = 3.8
  binsize = 1.9, bins = 9 9 9
  4 neighbor lists, perpetual/occasional/extra = 1 3 0
  (1) pair lj/cut, perpetual
      attributes: half, newton on
      pair build: half/bin/atomonly/newton
      stencil: half/bin/3d
      bin: standard
  (2) compute orientorder/atom, occasional
      attributes: full, newton on
      pair build: full/bin/atomonly
      stencil: full/bin/3d
      bin: standard
  (3) compute coord/atom, occasional
      attributes: full, newton on
      pair build: full/bin/atomonly
      stencil: full/bin/3d
      bin: standard
  (4) compute cluster/atom, occasional
      attributes: full, newton on
      pair build: full/bin/atomonly
      stencil: full/bin/3d
      bin: standard
Per MPI rank memory allocation (min/avg/max) = 9.440 | 9.442 | 9.447 Mbytes
Step Temp PotEng Volume v_max_n 
    4000   0.98922355   -6.2729874    4151.4133            7 
    4100   0.99950167   -6.2602047    4139.5647            5 
    4200   0.97553358   -6.2720649    4137.8818            5 
    4300   0.98289789   -6.3124536    4143.4297           10 
    4400   0.96215985   -6.2987779    4133.8587            5 
    4500   0.97679785   -6.3009523    4137.5923           12 
    4600   0.96295989   -6.3050291    4122.0045            8 
    4700    0.9794062    -6.302501    4135.1852            8 
    4800   0.99336227   -6.2970538    4141.9405            7 
    4900   0.98321412   -6.2972921    4146.9855            6 
    5000   0.97059928   -6.3305435    4128.5133            5 
    5100   0.99158346   -6.3356104    4138.2802           10 
    5200   0.96783946   -6.3067166     4150.357            2 
    5300   0.98011335   -6.2902083    4151.3885            5 
    5400   0.96914418   -6.3260027    4134.0361            9 
    5500   0.97313041   -6.3158685    4139.8283            5 
    5600    0.9747473   -6.3009814    4145.6788            6 
    5700   0.96795209   -6.3125602    4144.5546            8 
    5800   0.97657427   -6.3469364    4131.8353            5 
    5900   0.96362582   -6.3400783    4134.8135            4 
    6000   0.97020781   -6.3110626    4135.6134            5 
    6100   0.98472593    -6.277507    4135.8072            6 
    6200   0.99017243   -6.2830319    4130.7669           10 
    6300   0.96227288   -6.2843105    4125.5867            4 
    6400    1.0007326   -6.3022941     4140.237            5 
    6500   0.98657012   -6.2777771    4142.1994            6 
    6600   0.99961824   -6.2869605    4141.4005            5 
    6700   0.95898442   -6.2834429    4131.5862           13 
    6800   0.99571018   -6.2989409    4124.5615            3 
    6900   0.98915571   -6.3019998     4132.211            5 
    7000    1.0053057   -6.2830011    4128.5798            4 
    7100   0.95845281    -6.262858    4121.0282            6 
    7200   0.96924562   -6.2730652    4133.3633            7 
    7300   0.98888516   -6.2661539    4137.0056           14 
    7400   0.98416434   -6.3052863    4145.4822            6 
    7500   0.96266705   -6.3194324    4149.1724            5 
    7600   0.96938601   -6.3022564    4139.4642            5 
    7700   0.99576009   -6.3248469    4135.3226            6 
    7800   0.96505387   -6.3067799    4129.9416            5 
    7900   0.99632283   -6.3077348    4139.5007            5 
    8000   0.98741451   -6.2949496    4136.4994            4 
    8100   0.98028749   -6.2916345    4125.1752            7 
    8200   0.99454571   -6.3142265    4134.0741            5 
    8300   0.97933717   -6.2924753    4133.1162            8 
    8400   0.97368822   -6.3079932    4127.8953            4 
    8500    1.0110583    -6.312399    4137.1311            7 
    8600   0.98266398   -6.3164254    4125.2076            7 
    8700   0.97569762   -6.3260157     4133.463            4 
    8800   0.97689363   -6.3089323    4142.5934            5 
    8900   0.97938274   -6.3036667    4144.4567            3 
    9000   0.97918507    -6.294841    4141.7129            6 
    9100   0.98824968   -6.3157561    4139.9818           10 
    9200   0.98178452   -6.3148712     4133.435            8 
    9300   0.98435315   -6.3010255      4140.35            7 
    9400   0.97884458   -6.2903455    4148.0819            8 
    9500   0.98271838   -6.3456527    4129.8362            6 
    9600    0.9878336   -6.3241013    4139.8871            5 
    9700   0.98014347   -6.3055839    4134.0449            4 
    9800   0.98406302   -6.2978771    4127.5468            5 
    9900   0.97364606   -6.3056505     4121.637            7 
   10000   0.99943234     -6.31555    4125.7603            4 
   10100   0.96154281    -6.305416    4136.3736            4 
   10200   0.97983062   -6.3440947    4131.0577            6 
   10300   0.97666624    -6.297966    4144.1776            4 
   10400   0.96357834    -6.277691    4146.6801            8 
   10500   0.96910405   -6.3064417     4137.787            7 
   10600   0.96947114   -6.3079809     4140.563            6 
   10700   0.97543988    -6.298995    4152.7067            6 
   10800   0.98215391   -6.2998208    4146.0283            4 
   10900    0.9682844   -6.2942994    4139.9694            4 
   11000    0.9934244   -6.2831849    4142.9695            8 
   11100   0.96735074    -6.288678    4136.3461            5 
   11200   0.98816774   -6.3145822     4133.252            6 
   11300    1.0025232   -6.2953163    4143.6515            7 
   11400   0.97522041   -6.3074381    4137.8869           18 
   11500   0.97828599   -6.3159228     4136.496           17 
   11600    0.9868639   -6.3357422    4138.7956           11 
   11700   0.97199482   -6.3175515    4145.6527           16 
   11800   0.98493446   -6.3030324    4156.8001           19 
   11900   0.96108561   -6.3094434    4144.0658           16 
   12000    0.9583767   -6.3351805    4135.9711            8 
   12100   0.97788597    -6.327263    4148.0835            9 
   12200   0.98244521   -6.3059211    4137.8729            7 
   12300    0.9698546   -6.3239559    4132.0243           10 
   12400   0.97826286   -6.2855497    4135.6847            8 
   12500   0.96660314    -6.292391    4133.8663            4 
   12600   0.98155469   -6.3149535    4126.2579            4 
   12700   0.99639145   -6.3005372     4138.691            4 
   12800   0.98807472    -6.282418    4134.3988            4 
   12900   0.99064666   -6.2955876    4133.3185            2 
   13000   0.99019829   -6.3051228    4125.7715            4 
   13100    0.9794083    -6.336884    4127.0611            6 
   13200   0.97968832   -6.3096143    4139.0468            8 
   13300   0.97463447   -6.3016442    4141.1422            8 
   13400    1.0003127   -6.2764332    4148.2493            3 
   13500   0.97651167   -6.2723073    4157.0926            4 
   13600    0.9875251   -6.3129322    4139.3991            5 
   13700   0.98007819   -6.2886258    4143.9852            3 
   13800   0.98267411   -6.2956376    4147.0473            7 
   13900   0.97323172   -6.3252045     4132.868            4 
   14000   0.99061687   -6.3252148    4135.0252            9 
   14100   0.99464458   -6.2885279    4141.7322            7 
   14200   0.98020379   -6.2839746    4135.8571            8 
   14300   0.99804335    -6.319594    4124.3278            4 
   14400   0.98365876   -6.2783005     4133.146           13 
   14500   0.99238098   -6.2613825    4140.0026           17 
   14600   0.98764829   -6.3113166     4131.016           16 
   14700   0.97242971   -6.2824539    4140.1248            8 
   14800   0.99030664   -6.3102797    4142.3548            4 
   14900   0.95413488   -6.2942042    4132.3516            5 
   15000   0.98134169   -6.3194551    4127.1117            5 
   15100   0.98616487   -6.3111017    4144.4119            4 
   15200   0.96743571   -6.2964727     4148.844           17 
   15300   0.95879032   -6.3137033    4140.4226           15 
   15400   0.97396965   -6.3148076    4144.8513           13 
   15500   0.98655868   -6.3232212    4143.8479            3 
   15600   0.95892825   -6.3029032    4142.3363            4 
   15700    0.9771134   -6.3086104      4145.66            5 
   15800   0.98096332   -6.3386518    4141.0571            7 
   15900   0.97416245   -6.3114258    4124.5995            5 
   16000   0.99010926   -6.3007525    4141.9081            9 
   16100    0.9813838   -6.3283624    4144.5322            9 
   16200   0.97054438   -6.3437898    4142.7887            9 
   16300   0.96346088   -6.3101086    4151.5688           12 
   16400   0.98650415   -6.3051501    4149.6739            8 
   16500   0.97322739   -6.3298111    4139.4187            5 
   16600   0.95800499   -6.3419312    4145.3041            6 
   16700   0.97747916   -6.3284252    4144.8051            6 
   16800   0.94486504   -6.3038723    4140.0216            6 
   16900   0.97942037   -6.3067075    4156.3789            7 
   17000   0.97765268   -6.3010772    4141.8385            6 
   17100   0.97193472   -6.3043384      4137.94            5 
   17200   0.97901695   -6.2834118    4151.7078            6 
   17300   0.99121947   -6.2595672    4152.1529            5 
   17400    1.0015471   -6.3115965    4133.5026            8 
   17500   0.97756599   -6.2902719    4128.2681           10 
   17600    1.0153507   -6.3077947    4125.7564           16 
   17700   0.98420404    -6.306962    4122.9404            6 
   17800   0.99198667   -6.2954771    4125.8533            7 
   17900   0.99520052   -6.2735614    4131.7005            9 
   18000   0.98086216   -6.3010737    4132.1023            4 
   18100   0.99235154   -6.2987704    4137.4403            5 
   18200   0.97620707   -6.2710669    4151.0957            7 
   18300   0.97743127   -6.3019653    4136.2483            9 
   18400   0.99488186   -6.3074332    4127.7339            6 
   18500    1.0008257   -6.3043588    4128.7234            4 
   18600   0.97239232   -6.3203753    4120.9952            9 
   18700   0.98409696    -6.300725    4128.6873           11 
   18800   0.97051143   -6.2822685     4137.803            6 
   18900    1.0011305   -6.2757648     4151.266            7 
   19000   0.97928857   -6.2750139    4135.6786            8 
   19100   0.96590592   -6.2888934    4140.1206            7 
   19200   0.98771801   -6.3021735    4147.9014            4 
   19300   0.97431174   -6.2960202    4149.7935            4 
   19400   0.95677304   -6.3057478    4136.6823            7 
   19500   0.98948725    -6.304286    4144.6551            7 
   19600   0.97080945   -6.3044558    4137.9024            8 
   19700   0.97816061   -6.3146403    4132.1673           13 
   19800   0.98866571   -6.2858821    4133.1242           11 
   19900   0.99235779   -6.3120463    4122.0428           22 
   20000   0.96110126   -6.3185852    4121.7322           22 
   20100   0.96192524   -6.2968043    4145.5876           14 
   20200    1.0032853   -6.3118847    4145.4894           13 
   20300   0.99412947   -6.3367451    4136.9035            6 
   20400   0.95773061   -6.3177225    4138.1055            6 
   20500   0.97318056   -6.2945404    4147.6881            4 
   20600   0.96388796    -6.305585    4148.9704            4 
   20700   0.96391509   -6.3087562    4153.8322            6 
   20800   0.99499411   -6.2997463    4148.9468            8 
   20900    0.9735219   -6.3192139    4137.2679            6 
   21000   0.97149553   -6.2895725    4135.5028            9 
   21100   0.97887359   -6.2807961    4145.2536            5 
   21200   0.96029876   -6.2874824    4131.8284            5 
   21300   0.98444312   -6.2996575    4133.1606            4 
   21400   0.96379039   -6.2981676    4139.6664            5 
   21500   0.95057443   -6.3388588    4125.0399            8 
   21600   0.96690656   -6.3215849    4138.9705            5 
   21700   0.97073926   -6.2903318     4145.427            2 
   21800   0.98517379   -6.2933905    4138.1911            7 
   21900    0.9790459   -6.3219073    4134.3419            8 
   22000   0.97673953   -6.2760054     4145.917            8 
   22100   0.99238623   -6.2847585    4143.0802            4 
   22200   0.97012427   -6.3016813    4133.5492            6 
   22300   0.98708625   -6.2839376    4133.4278            4 
   22400     0.974749   -6.2852753    4122.8441            5 
   22500   0.97639844   -6.2959995    4115.0572            6 
   22600   0.98601843   -6.3130982    4120.9246            7 
   22700    1.0026632   -6.3249862      4127.96            6 
   22800   0.96227295   -6.3157722    4128.0136            4 
   22900    1.0018799   -6.3312736    4143.6104            5 
   23000   0.99193102   -6.3122407    4144.9104           10 
   23100   0.95255692   -6.3045423    4138.1176            8 
   23200   0.96757545    -6.296205    4145.1792            8 
   23300   0.98028745   -6.2919368    4144.0754           10 
   23400   0.97435657   -6.3194121    4131.1143            8 
   23500   0.98225234   -6.2842741    4139.9633            4 
   23600    0.9842817   -6.3053417    4131.6654            3 
   23700   0.97602739    -6.296107    4131.2082            8 
   23800   0.99257109   -6.2786033    4132.6096           12 
   23900   0.98433159   -6.3037303    4118.3091           25 
   24000   0.99322915   -6.2979881    4128.9328           20 
   24100   0.97173548   -6.3035536    4144.3265           13 
   24200   0.96608587   -6.3056383    4136.7269            5 
   24300   0.98652687   -6.3250025    4139.1059            4 
   24400   0.96755276   -6.2866152    4137.8746            8 
   24500   0.97446983   -6.2618239    4150.3589            7 
   24600   0.97486661   -6.2873832    4148.8649            4 
   24700   0.98827578   -6.3414305    4130.6831           14 
   24800   0.97549685   -6.3257587    4138.3741            5 
   24900   0.98258322    -6.324663    4139.4559            4 
   25000   0.99215156   -6.3020857     4138.692            8 
   25100   0.98817905   -6.2977798    4148.5455           13 
   25200    0.9671134   -6.3124379    4141.9838           12 
   25300   0.97732976    -6.289987    4144.4466            7 
   25400   0.99174649   -6.3051414    4145.0078            8 
   25500   0.94411147   -6.2871526    4134.4812            5 
   25600   0.96480216   -6.2825048    4138.9472            3 
   25700    0.9889329   -6.2969411    4138.4647            6 
   25800   0.97932597   -6.3118349    4141.7678            5 
   25900     1.000821   -6.3060681     4163.344            9 
   26000   0.97301405   -6.2980057    4150.6368            4 
   26100   0.97753505   -6.3174668    4145.6375            6 
   26200   0.96920541   -6.3214054    4142.2114           10 
   26300   0.98425168   -6.3202385    4141.3831            6 
   26400   0.99547944   -6.2871031    4142.8316            5 
   26500    1.0054094   -6.3086698    4133.5413            7 
   26600   0.98220312   -6.3190253    4128.9987            7 
   26700   0.98511047    -6.304273    4126.8764           10 
   26800   0.98972503    -6.302661    4125.4533            6 
   26900   0.97234567   -6.3046629    4136.9958            7 
   27000   0.96983171   -6.3146611    4145.7741            6 
   27100   0.97060405      -6.2814    4140.3967            3 
   27200   0.96226582   -6.3036705    4144.3664           10 
   27300   0.99225223    -6.305334    4135.5561            6 
   27400   0.97754438   -6.3040303    4129.1923            7 
   27500   0.99246012   -6.2962756    4138.4265           10 
   27600   0.97135369   -6.2970345    4145.8411            8 
   27700   0.97434314   -6.3339106    4135.4905           12 
   27800   0.99650247   -6.3339987    4132.5146           14 
   27900   0.97795174   -6.3024826    4133.0377            5 
   28000   0.99169259   -6.2823869    4148.0148           10 
   28100   0.99600819    -6.260144    4147.8765            8 
   28200   0.98695926    -6.287243    4120.5242            9 
   28300   0.98126101   -6.2874932    4128.6338           11 
   28400    1.0002152   -6.3013209    4127.0842            8 
   28500    0.9856305   -6.3096983    4123.3224            9 
   28600   0.98523817   -6.3214705    4129.5493           13 
   28700    0.9559618   -6.3243242    4130.6269            7 
   28800   0.98416677   -6.3237266    4128.9114            6 
   28900   0.99245891   -6.2991029    4144.7385            6 
   29000   0.97448437   -6.2982689    4150.1317            7 
   29100   0.95808045   -6.2934659      4127.97            5 
   29200   0.97545936   -6.3198303    4123.6533            9 
   29300   0.98264319   -6.2917977    4152.2292           14 
   29400    1.0054279   -6.3199075    4144.9071            4 
   29500   0.98553936   -6.3169901    4138.9871            8 
   29600   0.98440621   -6.3101374     4138.047           15 
   29700    0.9730064    -6.310682    4132.1894           23 
   29800   0.97466302   -6.3483142    4126.6312           18 
   29900   0.96843991   -6.2872356    4139.7234           21 
   30000   0.99168506   -6.3179654    4144.2568           16 
   30100   0.99691526    -6.317814    4130.0399           10 
   30200   0.96034927   -6.3085486    4122.8393           13 
   30300   0.98442202   -6.2977479    4130.7956           11 
   30400   0.97699775   -6.2979295    4132.3802           19 
   30500   0.96378468   -6.3145438    4116.6304           10 
   30600   0.99800649   -6.3321672    4133.8149            5 
   30700    0.9803796   -6.3107983     4142.359            6 
   30800   0.98690035    -6.273861    4147.3766            4 
   30900    0.9791894   -6.3114795    4138.5305            5 
   31000   0.98141326   -6.3111253    4143.2398            5 
   31100   0.99926676   -6.3064382    4153.3734            7 
   31200   0.97549088   -6.2893189    4145.4085            7 
   31300   0.97026093   -6.3113476    4146.7315            4 
   31400   0.95023209   -6.3049481     4147.393            6 
   31500   0.97369989     -6.30744    4151.5862            6 
   31600   0.97393825   -6.3150972     4138.176           10 
   31700   0.96153971   -6.3232698    4128.6193            6 
   31800   0.97122204   -6.2931845    4140.5219            3 
   31900   0.99994558    -6.303695    4145.3295            6 
   32000   0.97609622   -6.3198302     4136.044            4 
   32100   0.97096289   -6.3393191    4147.9981            4 
   32200   0.99519233   -6.3234433    4143.5563            9 
   32300   0.97092892   -6.3147195    4135.0806            8 
   32400   0.98347657   -6.3055438    4137.9951            8 
   32500    1.0044893   -6.3106705    4148.8829            8 
   32600   0.97629092   -6.3093388    4133.6914           11 
   32700   0.97374965   -6.3314829    4128.8069            4 
   32800   0.96155255   -6.3308652    4126.9829            8 
   32900   0.97691875   -6.3065221    4140.8828           13 
   33000   0.98239288   -6.3230844    4141.6395            7 
   33100   0.96514594   -6.3570137     4129.977            8 
   33200   0.97959711    -6.335481    4124.4776            6 
   33300     0.984244   -6.3181594    4139.6147           10 
   33400   0.96837816   -6.3153587    4142.3281            8 
   33500   0.98000527   -6.3029398    4140.8119           10 
   33600   0.97553925   -6.2855812    4146.4386            6 
   33700    1.0032034   -6.2907238    4143.6444            5 
   33800   0.97669993   -6.2905159    4125.3363            7 
   33900   0.99140714   -6.3369031    4124.2643            4 
   34000    0.9533555   -6.3261398    4119.9791            5 
   34100   0.98380085   -6.3163321    4132.8249            5 
   34200   0.97362822   -6.2885901    4139.2194            2 
   34300   0.98800534   -6.2724706    4155.6898            5 
   34400   0.99924215   -6.3060494    4152.8267            4 
   34500   0.97837374   -6.3153737    4139.9551            6 
   34600    1.0025506   -6.3204716    4136.3702           10 
   34700   0.96621771   -6.2949334    4141.0865           12 
   34800   0.98603687   -6.2966168    4131.6797            4 
   34900   0.97703881   -6.3424661    4127.8309            9 
   35000   0.97983502   -6.3228546    4141.0641           14 
   35100   0.99534704   -6.3199919    4141.3008           10 
   35200   0.97882479   -6.3216222    4132.9052            6 
   35300    0.9820437   -6.3481647    4129.6747            7 
   35400   0.97664503   -6.2930432    4139.8672            7 
   35500   0.96376263   -6.2718638    4141.4823           11 
   35600   0.98051142    -6.275609    4129.7514            6 
   35700   0.98798662   -6.2997705    4129.1377            4 
   35800    1.0254907   -6.3136397    4143.7143            9 
   35900   0.98601355   -6.2835163    4131.0903            8 
   36000   0.98806397   -6.2878064    4131.0457           11 
   36100   0.98573421   -6.2790544    4122.0877           12 
   36200    0.9962139   -6.2889719    4134.1165            7 
   36300   0.98585853   -6.2889389    4132.1641           16 
   36400   0.98028028   -6.2973819    4139.2847           10 
   36500   0.98728244   -6.3039836    4140.3183           11 
   36600   0.95943658   -6.2945687     4130.705            9 
   36700   0.99414995    -6.309555    4132.8932            7 
   36800   0.98895184   -6.3176828    4134.5819            9 
   36900   0.98130068   -6.3053402    4136.4564           16 
   37000   0.96624843   -6.2928125    4140.2835            8 
   37100   0.98981225   -6.3118108    4137.9072            8 
   37200   0.98268257   -6.3325586    4128.1367           11 
   37300   0.97637723   -6.3079097    4122.1709            7 
   37400   0.98510885   -6.3079639    4130.1993            8 
   37500   0.97753544   -6.2573547    4134.4401            9 
   37600   0.97257674   -6.2980662    4127.6572           11 
   37700   0.99474889   -6.3178139    4137.0963           13 
   37800   0.98297581   -6.3057542    4139.9744           13 
   37900   0.97526319   -6.3248746    4139.5952            4 
   38000   0.96666006   -6.3260443    4137.6568            9 
   38100   0.95662155   -6.2939177    4137.6029           21 
   38200   0.99460214   -6.3024618    4138.0452           23 
   38300   0.97131149   -6.3086344    4134.3751            9 
   38400   0.99533449   -6.3089774    4135.3521           15 
   38500   0.99316144   -6.2990966    4135.0458            4 
   38600   0.99611671   -6.2865196     4146.673            7 
   38700   0.98736932   -6.3266526     4133.338            5 
   38800   0.98967268   -6.3097229    4133.6218            9 
   38900   0.99182058   -6.3267029    4125.4721            8 
   39000   0.95617287   -6.3009154    4125.8811            5 
   39100   0.99250924   -6.3225973    4128.3456            6 
   39200   0.98776767   -6.3360192    4125.2459           17 
   39300   0.97746639   -6.3482024    4129.4644            8 
   39400   0.98974337    -6.325427    4131.7645            5 
   39500   0.98444494   -6.3286785     4144.822            4 
   39600    0.9638323   -6.2933299    4150.7728            4 
   39700    0.9693184   -6.3066903    4152.1711            6 
   39800   0.96909649   -6.3532099    4150.1349            7 
   39900   0.95520108   -6.3191664    4147.5823            4 
   40000   0.98258135   -6.3264055    4153.0915            5 
   40100   0.96506905   -6.3061987    4141.1731            5 
   40200    1.0029765   -6.3164901    4139.3252            6 
   40300   0.96633313   -6.3061124    4129.1219            4 
   40400   0.98433788    -6.306083    4128.5338            3 
   40500    0.9681382     -6.30797    4138.3163            5 
   40600   0.98947397   -6.3125008    4140.8504            3 
   40700   0.95860315   -6.3153859      4124.25            6 
   40800   0.98456454    -6.320843    4131.0003            4 
   40900    1.0028415      -6.3237    4125.5066            5 
   41000   0.97518017   -6.3114149    4128.2798            8 
   41100   0.94352411   -6.3078353     4134.975            7 
   41200   0.97850403    -6.338807    4133.3002            5 
   41300   0.98114223   -6.2958346    4141.4398            8 
   41400   0.99812696   -6.3170546    4134.0371            7 
   41500   0.96833369   -6.3283431    4134.1376           13 
   41600    0.9851431   -6.3102853    4144.3376            6 
   41700    1.0025589   -6.3024232    4141.2206            4 
   41800   0.97683579   -6.3182847    4133.7531            7 
   41900   0.98747694   -6.3125419    4138.2412            7 
   42000    1.0156934   -6.3007185     4151.611            6 
   42100   0.97245988   -6.2893686    4144.9364            8 
   42200   0.97730598   -6.3246313    4127.6866            7 
   42300   0.98108659   -6.3293647    4125.5093            6 
   42400    1.0063003   -6.3271984    4135.5842            5 
   42500   0.99561115   -6.2892432    4142.6418            6 
   42600    0.9870256   -6.3122173    4126.9474            9 
   42700   0.97051595   -6.3305884    4112.8155            6 
   42800   0.96378298   -6.3581248    4118.3839            6 
   42900   0.97850648   -6.3333507    4122.9285           19 
   43000   0.95253107   -6.2600027    4130.8528            8 
   43100   0.98971914   -6.2836917    4135.4277            7 
   43200    1.0004794   -6.3162343    4125.8847            7 
   43300   0.98273035    -6.329668    4135.3256            5 
   43400   0.98071673   -6.2936857    4141.7118            4 
   43500    0.9866304   -6.2926128    4144.5289            9 
   43600   0.99957987   -6.3302832    4133.8935            7 
   43700   0.96510955   -6.2993837     4120.376            5 
   43800   0.98467058   -6.3591547    4114.8806            8 
   43900   0.97210373   -6.3154989    4133.9845            9 
   44000   0.98059227    -6.294855    4133.1443            4 
   44100   0.98012036    -6.270524    4129.5814            6 
   44200   0.98804268   -6.3063434    4114.7759            5 
   44300   0.99485708    -6.336785    4118.6003            6 
   44400   0.98482137   -6.2956623    4134.0284            5 
   44500    0.9710769   -6.2959696    4139.2942            5 
   44600   0.98388775   -6.3004082    4132.3047           11 
   44700   0.99957715   -6.3006468    4135.8515            8 
   44800   0.98078058   -6.2909942     4139.982            3 
   44900   0.96317101   -6.2943287    4142.3668           14 
   45000   0.97889854   -6.2773456    4145.2239            8 
   45100   0.98135361   -6.2976751    4138.5291            6 
   45200   0.98958404   -6.3213453    4124.9589            7 
   45300   0.98850569   -6.3178816    4130.5264            7 
   45400   0.98684929   -6.2766962    4131.8587            7 
   45500   0.97715375   -6.2971555    4114.8534            5 
   45600   0.99146159   -6.2889497    4123.0205           20 
   45700   0.98284968   -6.2538354    4143.8306            4 
   45800   0.99234888   -6.2876597    4153.1636            6 
   45900   0.96607748   -6.2780864    4151.4727           14 
   46000   0.97974128   -6.3046885    4142.5429           17 
   46100   0.97285453   -6.3279993    4127.2605           24 
   46200   0.97242506   -6.3164649    4125.4165           12 
   46300   0.98661041   -6.2853067    4131.7323           18 
   46400   0.96951219   -6.2765275    4127.4704           11 
   46500   0.97874509   -6.3149363    4123.5568           13 
   46600    0.9798226   -6.3350754    4129.7025           11 
   46700   0.98033191   -6.2912389    4138.8885           13 
   46800   0.98654768   -6.3195207    4141.9839           16 
   46900   0.97599482   -6.2993768    4141.7856           10 
   47000   0.99416033    -6.285951    4142.4388            8 
   47100   0.97392633   -6.2874977    4135.1509           12 
   47200   0.98617785   -6.3168956    4132.9061            8 
   47300   0.98317472    -6.346776    4125.5605           10 
   47400   0.95663965   -6.2863028    4130.6598            8 
   47500   0.98061548   -6.3144501     4134.973            7 
   47600   0.99148863   -6.3091083    4127.7609            6 
   47700   0.99446733   -6.2909344    4131.3997            5 
   47800    0.9904998    -6.317219    4116.3386            8 
   47900    0.9741568   -6.3081842     4124.303            9 
   48000   0.98461641   -6.2766523    4134.2594            7 
   48100   0.96339018   -6.2762016    4128.8286            4 
   48200   0.98834047    -6.309292    4132.7785            9 
   48300    0.9876753   -6.2721833    4141.1013            9 
   48400   0.98401156   -6.2845048    4144.2196            8 
   48500   0.97333341   -6.3015956    4136.4271            4 
   48600   0.99680615   -6.3005789    4129.6378            6 
   48700    1.0143076   -6.3149159      4128.07            6 
   48800   0.97891729   -6.3214925    4126.8626           11 
   48900   0.98662377   -6.2867826    4136.3404            7 
   49000   0.99119303   -6.3162537    4144.4921            4 
   49100   0.98900915   -6.3274179     4136.433           10 
   49200   0.96459881   -6.3211007    4135.6157           11 
   49300   0.99828875   -6.3153654    4145.8144            8 
   49400   0.98180141   -6.3161495    4143.1276           10 
   49500   0.96427356   -6.3100479    4145.0689            9 
   49600   0.96199699   -6.2862436    4137.8055           11 
   49700   0.97743108   -6.3039697    4130.8026            4 
   49800   0.98339186   -6.3063779    4130.6455            7 
   49900   0.98426216   -6.2678531    4143.3496            4 
   50000   0.98688235   -6.3113424    4124.0334            6 
   50100    0.9963479   -6.3166424     4132.895            6 
   50200    0.9968013   -6.3264546    4137.9657            6 
   50300   0.98467541   -6.3287571    4139.2829            7 
   50400   0.97225614   -6.2806251    4144.2004            4 
   50500   0.96150266    -6.299063    4143.1421            6 
   50600   0.97051689   -6.3020813    4140.8488            4 
   50700    1.0030799   -6.3104628     4140.646            3 
   50800   0.97893958    -6.317648    4133.9025            7 
   50900   0.96526594   -6.3011786     4147.321            6 
   51000   0.97342318   -6.3199543    4159.9253            8 
   51100    0.9811875   -6.3216632    4146.1492            7 
   51200   0.95643371    -6.290987    4139.3459            6 
   51300   0.99655313   -6.2939514    4139.3209            7 
   51400     0.971251   -6.2776403    4151.8818            5 
   51500   0.98214323   -6.2882941    4152.5717           10 
   51600   0.97210463   -6.3068639    4151.8496            7 
   51700   0.97524247   -6.3125141    4143.8396            4 
   51800   0.96672892   -6.3379205    4139.6629            6 
   51900   0.97786633   -6.3119675    4147.2286            6 
   52000   0.97479764   -6.2785659    4158.3204            3 
   52100   0.97036437   -6.3048735    4149.9996            8 
   52200   0.97292567   -6.2876428    4147.2791            4 
   52300   0.98619693   -6.2833208    4143.6157            3 
   52400   0.95688792   -6.2774756    4136.1668            3 
   52500   0.97640726    -6.314611    4139.2839            7 
   52600   0.97773956   -6.2896797    4145.6697            5 
   52700    1.0038484   -6.2765607    4145.0546           11 
   52800    0.9793383   -6.3033445    4137.4692            5 
   52900   0.99153148   -6.2885483    4132.5709            7 
   53000   0.98288986   -6.3153243    4124.1569            6 
   53100   0.97748968   -6.3021325    4128.1479            7 
   53200   0.98462378   -6.2887914    4131.1477           12 
   53300   0.96588127   -6.3117177    4127.8491           11 
   53400   0.96536848   -6.2942593    4134.2041            7 
   53500    1.0021275    -6.338766    4131.1082           11 
   53600   0.96357194   -6.3186842    4134.0273           11 
   53700   0.98662243   -6.3089658    4131.2684            9 
   53800   0.98399654   -6.3467819    4136.8602            5 
   53900   0.98178638   -6.3209279    4136.5642            5 
   54000   0.97700945   -6.3201299     4145.032           14 
   54100   0.97002501   -6.3458052    4136.9436           10 
   54200   0.96706934   -6.3181105    4149.3639            4 
   54300   0.97250106   -6.3012601    4154.6109            7 
   54400   0.97096338    -6.303498    4141.6055            4 
   54500   0.96915226   -6.3383991    4134.4415            4 
   54600    0.9791911   -6.2983095    4133.1364            5 
   54700     0.979459   -6.3217298    4139.3693            6 
   54800   0.98766021   -6.2953972    4154.6414            4 
   54900   0.97405719   -6.2794546    4150.6118            5 
   55000   0.96656698   -6.2869186    4144.2242            5 
   55100   0.97020416   -6.3200777    4124.4504            4 
   55200   0.99688508   -6.3141747    4135.4201            8 
   55300   0.99208981    -6.326809    4131.5032            8 
   55400   0.98840357   -6.3333695    4122.8031            9 
   55500   0.95686009   -6.2764929    4130.2992            8 
   55600    1.0046343   -6.3031639    4135.2734           11 
   55700   0.97197403   -6.2963006     4121.853            6 
   55800   0.98437005   -6.3057589    4129.1565            6 
   55900    1.0108331   -6.3061301    4137.4253           11 
   56000   0.97314173   -6.3074347    4135.5306           12 
   56100   0.97741756   -6.3450739    4135.8547            6 
   56200   0.97642754   -6.3417651     4130.339            8 
   56300   0.97424749   -6.3030892    4135.5322            5 
   56400   0.97513626   -6.3202593    4143.1743            7 
   56500    0.9867047   -6.3148555     4146.634            7 
   56600   0.96771963   -6.3400078    4147.3309            7 
   56700   0.96933911   -6.2873376    4154.5255           14 
   56800   0.97596871    -6.322482    4149.4684           10 
   56900   0.97845912   -6.3444619    4140.4311           21 
   57000   0.96020422   -6.3554197    4137.6521           12 
   57100   0.96107823   -6.3034415    4147.8747            9 
   57200   0.97464129    -6.286993    4143.1534            9 
   57300   0.97079979   -6.3295976    4134.7185            5 
   57400   0.96345991    -6.321389    4141.0704           12 
   57500   0.97311172   -6.3037425    4146.3158            4 
   57600   0.97801814   -6.2654136    4147.1262           10 
   57700   0.97037042    -6.316297    4147.6927            6 
   57800   0.97613748   -6.3214765    4137.6103            8 
   57900    0.9876805   -6.3042946    4134.2102            9 
   58000   0.98957048   -6.3083563    4134.3678            8 
   58100    0.9787163   -6.3264964    4116.8709           10 
   58200   0.99632383   -6.3505267    4119.4425            4 
   58300   0.99485826   -6.2957836    4116.8342            4 
   58400   0.98249606   -6.3006127    4122.9568            4 
   58500   0.99318508    -6.290075    4134.1078           12 
   58600    0.9973871   -6.2904687    4141.5398            8 
   58700   0.96540802    -6.284396    4136.1764            5 
   58800   0.97294365   -6.2965533     4138.186            6 
   58900   0.98928465   -6.2858921    4139.9651            9 
   59000    1.0185191   -6.2890757    4138.1806            6 
   59100   0.98958648   -6.2771662    4145.5832            6 
   59200   0.98630599    -6.291478    4140.8601            5 
   59300   0.96263316   -6.2972559    4135.8206            8 
   59400   0.98840631   -6.3212334     4131.479           10 
   59500   0.97808217   -6.3203539    4135.2211            7 
   59600   0.98250391   -6.3132771    4141.2087            6 
   59700    1.0090503   -6.2994646    4146.1317            9 
   59800   0.98743177   -6.3090155    4129.6609            4 
   59900   0.97920242   -6.2909784    4119.3092            4 
   60000   0.99781323   -6.2656828    4149.7537            4 
   60100   0.99688739   -6.3042972    4145.5238            5 
   60200    0.9754173   -6.2967903    4138.5717            5 
   60300    0.9834029   -6.3213257    4133.6537            5 
   60400     0.978624   -6.3044628    4137.6209            8 
   60500    0.9877337   -6.2782607    4136.3092           12 
   60600   0.98464139   -6.2981569    4137.7767            9 
   60700   0.96441834   -6.3100374    4131.3857            6 
   60800   0.96665621   -6.3107002    4135.1254            4 
   60900   0.97242994   -6.2844175    4143.5743           14 
   61000    0.9883952   -6.3038587    4138.2824           14 
   61100   0.95248189   -6.2952906    4131.7759           11 
   61200   0.97735872   -6.3034942    4129.8491            5 
   61300   0.98102273   -6.2961626    4139.1212            4 
   61400   0.98682255   -6.2903796    4139.0729            6 
   61500   0.97032461   -6.3178836    4134.2371            8 
   61600   0.98825993   -6.3038428    4131.0971            3 
   61700   0.96912621   -6.3151166    4122.9929            6 
   61800   0.99348721   -6.3035968    4129.2232            4 
   61900   0.98141236   -6.2856295    4130.5128            4 
   62000   0.97570667   -6.2882328    4124.6379            6 
   62100    1.0087335   -6.2856581    4137.7966            9 
   62200   0.98089223   -6.2927594    4133.4293           10 
   62300   0.99362031   -6.3070592     4133.457            8 
   62400   0.97019505   -6.2642603    4141.7156            4 
   62500   0.96387835   -6.2689472    4147.1456            5 
   62600   0.99339685   -6.2828007    4152.1538            4 
   62700   0.97135568   -6.2917821     4143.328           10 
   62800   0.97919926   -6.2926088    4139.6832            6 
   62900   0.97325137   -6.3173969    4137.9882           10 
   63000    0.9790827    -6.349253    4132.8183           15 
   63100   0.97149148   -6.3140572    4141.9704            4 
   63200   0.98600449   -6.3111642    4151.1921            4 
   63300   0.97368239   -6.3276447    4147.0769            6 
   63400   0.98374636   -6.3508338    4135.3641            5 
   63500   0.98798405   -6.3111228    4145.8048            8 
   63600   0.98121734   -6.3154587    4138.9113            8 
   63700   0.98815993    -6.329379    4141.9999            9 
   63800   0.99056717    -6.324776    4151.7017            8 
   63900   0.95907841   -6.3063293     4153.937            7 
   64000    0.9842933   -6.3152515    4148.4816            4 
   64100   0.96830225   -6.2793736    4149.7043            5 
   64200   0.96985047   -6.3043052    4133.8649           11 
   64300   0.96477405   -6.3015739    4133.3159            4 
   64400   0.99610805   -6.3211185    4135.9476            7 
   64500   0.97391766   -6.3248423    4140.3586            4 
   64600   0.97335046   -6.2786021    4148.1943            7 
   64700   0.96227624   -6.2894012    4148.4036            7 
   64800   0.97309973   -6.3314155    4145.2493            9 
   64900   0.97593703   -6.2882096    4151.0957            6 
   65000   0.98358155   -6.2919154    4138.9763            8 
   65100    0.9874049   -6.3281676     4130.512           15 
   65200   0.99195379   -6.3148334    4126.8601            8 
   65300   0.97181537   -6.3105626    4124.7743            7 
   65400     0.957302   -6.3001181     4133.567            7 
   65500     1.004718   -6.3302299    4136.4606            5 
   65600    0.9888008   -6.3500998    4132.4779            6 
   65700   0.97292128   -6.3207865    4133.5757            6 
   65800   0.98631916   -6.3282687     4135.264            5 
   65900   0.95611146   -6.3216818    4130.3539            4 
   66000    0.9725294   -6.3269233    4131.8632            7 
   66100   0.99736677   -6.3380499     4124.732           11 
   66200   0.98106873   -6.3073778    4121.4024            6 
   66300   0.99860557   -6.3123607     4131.334            7 
   66400   0.97797225   -6.3216551    4109.0156            5 
   66500   0.99089484    -6.333988     4115.814            5 
   66600   0.99835578   -6.2919652    4131.0456           13 
   66700   0.97928954   -6.3110369    4133.8733           17 
   66800   0.98126714   -6.3092423    4129.8249           10 
   66900   0.98644247   -6.2754539    4141.6949            7 
   67000   0.96021465   -6.2826728    4137.4747           10 
   67100   0.98349583   -6.2795069    4146.4558            7 
   67200   0.99125218   -6.2832237    4136.1073            4 
   67300   0.99467434   -6.3178058    4131.0219            4 
   67400   0.98499511   -6.3192579    4127.8767            5 
   67500    1.0025957   -6.2881732    4135.6466            6 
   67600   0.97930358   -6.2984631    4131.8724            6 
   67700   0.98614254   -6.2827697    4133.4513            5 
   67800   0.98230924   -6.2889832    4154.3701            8 
   67900   0.97230793   -6.3043004    4137.2901            3 
   68000   0.99746088   -6.2950612    4140.3316            4 
   68100   0.97868578   -6.2766651    4140.8212            6 
   68200   0.98165483   -6.2963991    4143.6648            4 
   68300   0.97836269   -6.2802228    4141.3791            4 
   68400   0.99011667   -6.2782999    4129.3014            3 
   68500   0.98803549   -6.3039347    4128.1435            7 
   68600   0.98872385   -6.3009663    4137.5954            5 
   68700   0.98505484   -6.2756299    4143.5392            5 
   68800   0.99343966   -6.2673696     4136.729            3 
   68900   0.98209791   -6.3062826     4132.692            3 
   69000   0.99827741    -6.291555    4140.5147            4 
   69100   0.99222846   -6.2872454    4139.8248            5 
   69200   0.97278852   -6.2777842    4136.6083            5 
   69300   0.97948638   -6.2649288    4145.1562            7 
   69400    0.9894324   -6.2818837    4149.5113            3 
   69500   0.96542009   -6.3038725    4153.1518            4 
   69600   0.98107954   -6.2913857     4157.217            5 
   69700    1.0000808   -6.2877703    4169.3004            7 
   69800   0.96279225   -6.2722727    4142.0191           10 
   69900   0.98645621   -6.3101472    4143.7503            5 
   70000   0.97265715   -6.3138603    4144.3436            9 
   70100     0.958561   -6.3118954    4139.3741           10 
   70200   0.97081259   -6.2899993    4152.1346           10 
   70300   0.96809233    -6.289446    4150.2673            4 
   70400   0.96869997   -6.3205493     4138.085            5 
   70500   0.96787205     -6.30727     4145.908            6 
   70600   0.98280334   -6.3008854    4150.6948            6 
   70700   0.97067719   -6.3272102    4135.3798            8 
   70800   0.97012043   -6.3210841    4135.3841            5 
   70900   0.98373305   -6.3026695    4149.4717            4 
   71000   0.98816222   -6.3202006    4149.2206            7 
   71100    0.9684245   -6.3192026     4135.921            5 
   71200   0.98722337   -6.3387731    4125.2079            9 
   71300   0.98555896   -6.2980865    4139.9784            8 
   71400   0.97551244   -6.3069276    4135.3622            9 
   71500    0.9566973   -6.3164213    4139.2357           11 
   71600   0.97277621   -6.2963752    4149.3088            8 
   71700   0.99331981   -6.3172056    4140.8388            8 
   71800   0.96065097   -6.3039788    4128.9195           13 
   71900   0.98275512   -6.2918768    4137.4457            6 
   72000   0.96175794     -6.27166    4133.6225            4 
   72100    1.0216375    -6.319696    4130.6868            8 
   72200   0.99712785   -6.2992197    4131.8143            9 
   72300   0.98369411    -6.315667    4120.6243            3 
   72400    1.0083599   -6.3146278    4124.5985            7 
   72500   0.99282426   -6.3081491     4131.077            6 
   72600   0.96270666   -6.3109037    4130.2683           10 
   72700   0.98339054   -6.2821944    4130.0181            5 
   72800   0.98309056   -6.3097845    4126.3928            7 
   72900   0.98936013   -6.3146134    4131.1963            5 
   73000   0.97975285   -6.2902486    4132.9944            4 
   73100   0.98070833   -6.3251907     4127.179            7 
   73200   0.97726822   -6.3324867    4131.3394            7 
   73300   0.99037517   -6.3291518    4133.7494            4 
   73400   0.94705779   -6.3040537    4140.0929            6 
   73500   0.98475911   -6.2963618    4145.3695           12 
   73600   0.98125305   -6.3159619    4141.2881            7 
   73700   0.97403753   -6.3387708    4126.6329            7 
   73800   0.98449781    -6.296064    4137.1677           10 
   73900   0.98999182   -6.3156163    4132.5388            6 
   74000   0.98877538   -6.3331331    4138.6455            4 
   74100   0.98165713   -6.3319909    4142.0763            6 
   74200   0.97778687   -6.3203119    4147.0824            7 
   74300   0.97865547   -6.3262758    4143.7965            4 
   74400   0.97095829   -6.3323113    4136.6177            4 
   74500   0.99938117    -6.313086     4147.834            9 
   74600   0.95986162   -6.2998385    4144.0317           10 
   74700    0.9686273   -6.2893979     4145.857            9 
   74800   0.97760474   -6.3198699    4140.2649            6 
   74900   0.98389681   -6.3233093      4130.84           16 
   75000   0.96325115   -6.2978828    4135.2916           12 
   75100   0.98082664   -6.2908529    4142.4381           20 
   75200   0.96512305   -6.3272191    4133.5872           16 
   75300   0.97049245   -6.3234554    4135.8821           11 
   75400   0.97141757   -6.3136226    4143.2121           15 
   75500   0.98966956   -6.2935763    4147.6043           15 
   75600   0.96396793   -6.2887161    4136.5675            7 
   75700   0.97664543   -6.2933774    4133.6449            7 
   75800    0.9795862   -6.2587333    4135.6757            9 
   75900    1.0007032   -6.2796487    4135.8338            5 
   76000   0.97906499   -6.3009255    4127.9597            3 
   76100   0.96654797   -6.3088818    4130.0749           11 
   76200   0.98292986   -6.3038107    4130.3434            8 
   76300   0.97254506   -6.2946339    4125.5095           12 
   76400   0.96697646   -6.2839099    4125.3781            5 
   76500   0.98593591    -6.281872    4142.9769           12 
   76600   0.96437812   -6.2660853     4139.648            6 
   76700   0.97891985   -6.3001405    4134.1061            8 
   76800    1.0002475   -6.2811124    4146.1684            7 
   76900   0.98505604   -6.2696831    4134.1997            4 
   77000   0.98460098   -6.3135445    4139.1631            3 
   77100   0.99450708   -6.3059125    4150.5925            5 
   77200    0.9884911   -6.2886095    4148.7928            8 
   77300   0.97515248   -6.3171836    4140.5263           15 
   77400   0.97892692   -6.3080657    4145.4839            7 
   77500   0.98871301   -6.2754623    4152.4364            9 
   77600   0.96827595    -6.286125     4138.575            9 
   77700     0.988091   -6.2979719    4142.1383            3 
   77800   0.98867711   -6.2975949    4144.4965            4 
   77900   0.96810811   -6.3283956    4142.1771            3 
   78000   0.97309052   -6.3033431    4145.7222            4 
   78100    0.9963273   -6.2832276    4154.4651            5 
   78200     0.983241   -6.3007416     4142.625            4 
   78300   0.96530528     -6.31702    4138.3893            6 
   78400   0.98097423   -6.3171564    4143.9787            8 
   78500   0.98359675    -6.320908    4151.6941            4 
   78600   0.97228587   -6.3338451    4149.4756            7 
   78700   0.97968491   -6.3150806    4143.9363            4 
   78800   0.99871776   -6.3209152    4140.6944            6 
   78900    0.9888408   -6.3296104    4128.6836            4 
   79000   0.95922884   -6.3212921     4123.183           11 
   79100   0.96758988    -6.278027    4125.5059           15 
   79200   0.99204629   -6.3132256    4137.1322            5 
   79300   0.97779092   -6.3095071    4141.7855            7 
   79400   0.97480203   -6.3291543     4142.639           22 
   79500   0.97145038   -6.3462881    4131.5512            7 
   79600   0.98943542   -6.3256061    4125.4055           13 
   79700   0.97918458   -6.2989461    4120.3111           14 
   79800   0.97440984   -6.2659356    4118.6882            6 
   79900   0.99153199   -6.2640836    4125.9898            6 
   80000   0.97270469   -6.2990018    4129.9388            6 
   80100   0.99736273    -6.309942    4150.1036            8 
   80200    0.9710887   -6.2978474    4148.1425           10 
   80300   0.96992475   -6.3269163    4147.5038            8 
   80400   0.96867443   -6.2996311    4144.8789           16 
   80500   0.99654927   -6.2983904    4145.7887           16 
   80600   0.97307596   -6.3118652    4127.2625           10 
   80700   0.97580729   -6.2957259     4127.209            8 
   80800   0.98975132   -6.2873647    4133.7262           10 
   80900   0.98535743      -6.3105    4132.7763            7 
   81000   0.95962502   -6.2983055    4134.6856            3 
   81100   0.98598532   -6.2951963    4145.2782            6 
   81200   0.98734683    -6.308626    4146.6761            7 
   81300   0.96838978    -6.332196    4136.4256           10 
   81400    0.9718715   -6.3281724    4148.5221            8 
   81500   0.97493051   -6.2950598    4147.2602            5 
   81600   0.97650559   -6.3153134    4144.8978            6 
   81700    0.9576502   -6.3028606    4140.3122            4 
   81800   0.98620138   -6.3055531    4150.1677           18 
   81900   0.98912589   -6.3104394    4144.4341           14 
   82000   0.99224411   -6.3170174    4131.0789           10 
   82100   0.97683989   -6.3256294    4130.5959            6 
   82200   0.98862948   -6.3154059    4138.5898           14 
   82300   0.97371303   -6.3167043    4142.6887           17 
   82400   0.97591459   -6.3009181    4154.8824            5 
   82500   0.96372424   -6.2808371    4151.8312            7 
   82600    0.9743156   -6.3077617    4143.0276            8 
   82700   0.98835142   -6.3374178    4135.0877           10 
   82800    1.0055961   -6.3371816    4139.9163            8 
   82900   0.97866194   -6.3038427    4134.9817            5 
   83000   0.96878047   -6.3079745    4139.5982            6 
   83100   0.98280103   -6.3190807    4143.1482            6 
   83200   0.97933637   -6.3076582    4145.4677            6 
   83300   0.98517303   -6.2696824    4155.4355            3 
   83400   0.97697901   -6.2915131    4139.7076            6 
   83500   0.96489881    -6.296967    4135.3037            5 
   83600   0.99101573   -6.2945087     4142.174            5 
   83700   0.97444309   -6.2964421    4140.3618            4 
   83800   0.97859032   -6.2873267    4135.4346            4 
   83900   0.97475841   -6.3112688    4139.6343            3 
   84000   0.96640934    -6.330263     4132.006            7 
   84100   0.97856637   -6.3152759     4137.625            6 
   84200   0.97874888   -6.3146893    4148.5291           19 
   84300   0.99187688   -6.3076415    4142.9088           10 
   84400   0.97639811   -6.3294876     4148.374            5 
   84500   0.96135659     -6.30797    4157.1179            5 
   84600    0.9744525   -6.3088935    4152.4401            6 
   84700   0.98313374    -6.347227    4140.3711            4 
   84800   0.97375977   -6.3172387    4139.5279            6 
   84900   0.98753033    -6.309318    4149.4848            8 
   85000   0.97721569   -6.3014914    4147.0239            9 
   85100   0.96204472   -6.3102843    4134.8879            7 
   85200   0.98840228   -6.3232909    4141.1001            7 
   85300   0.98701301   -6.2884908     4137.907           11 
   85400   0.99024421    -6.324166    4133.4609           10 
   85500   0.97413566   -6.3300812    4123.3198            5 
   85600   0.97798229     -6.31964    4126.3955            3 
   85700   0.98717542   -6.2820099    4136.0289            5 
   85800   0.96361885   -6.2823737    4133.7825           10 
   85900   0.94623974   -6.3055698    4118.3952            6 
   86000   0.99369949    -6.317653    4123.9854            7 
   86100   0.96623613    -6.278808    4130.2849            3 
   86200   0.99749263    -6.296097    4144.3818            4 
   86300   0.98512022   -6.2873305    4139.4833            3 
   86400   0.98967828   -6.2835939    4129.8194            7 
   86500   0.98955101   -6.3132766    4118.1491           13 
   86600   0.95986293   -6.2836115    4124.1387            5 
   86700   0.97895331   -6.2841642    4134.0326            6 
   86800   0.97380696   -6.3342175    4131.5155            8 
   86900   0.96645541   -6.3021597    4137.5686           12 
   87000   0.98485311   -6.3020645    4130.8821            5 
   87100   0.98895054   -6.3252953    4131.7104            3 
   87200   0.97684417   -6.3102038    4139.4224            9 
   87300   0.99343662   -6.3023397    4144.9239           13 
   87400    0.9773467   -6.2742795    4145.3269            7 
   87500   0.96704375   -6.3062311    4137.8118            4 
   87600    1.0086587   -6.3157039    4141.0321           11 
   87700   0.99193441   -6.3265846    4133.4109            7 
   87800   0.96959298    -6.311267     4140.049            7 
   87900   0.97704191   -6.2964589    4142.7516            4 
   88000   0.98325078   -6.2783881    4142.7464           13 
   88100   0.98779508   -6.3292244    4125.3032            8 
   88200   0.96078899   -6.2718818     4131.024            9 
   88300   0.99562612   -6.2999592    4129.8484            9 
   88400   0.97531297   -6.3046257    4125.2733            6 
   88500   0.99521723   -6.3401811     4134.408            5 
   88600    0.9937097   -6.3116486    4141.0188            3 
   88700   0.97510073   -6.3133685    4149.0368            8 
   88800   0.97242159   -6.2911771    4147.6144            6 
   88900   0.99032946   -6.2913592    4162.7748            5 
   89000   0.98131914   -6.2708004    4152.3081            7 
   89100   0.98025748   -6.2993521    4142.0365            5 
   89200    0.9717919   -6.3238036    4146.2364            6 
   89300   0.98316527   -6.3140698    4145.6785            7 
   89400   0.98874472   -6.3071248    4145.8329            3 
   89500   0.96327976   -6.3162567    4136.6282            7 
   89600   0.98271056   -6.3050118     4139.675            5 
   89700   0.97223823   -6.2821458    4135.6307            4 
   89800   0.96496309   -6.3142285    4135.0569            4 
   89900   0.95824188   -6.3402869    4142.0621            6 
   90000   0.99206826   -6.3400048    4146.4155           11 
   90100   0.96225053    -6.323413    4142.6257           13 
   90200   0.96542462   -6.3352256    4133.5001            3 
   90300    0.9697999    -6.296566    4131.6673            6 
   90400    1.0175377   -6.3140994    4137.2559            4 
   90500    0.9804461   -6.3017554    4138.9483            5 
   90600    0.9687506   -6.2968472    4136.0615            8 
   90700   0.98927262   -6.3623868    4127.6932            8 
   90800   0.96583601   -6.3182324    4123.5438            5 
   90900    0.9895066    -6.319476    4128.1504           10 
   91000   0.96948197   -6.3348035    4135.9041            8 
   91100   0.99069658   -6.3204178    4150.4101            6 
   91200   0.97642981   -6.3575917     4132.014           10 
   91300   0.96949503   -6.3265933    4135.7587            9 
   91400   0.98270912   -6.3126994    4139.1705            9 
   91500   0.96789234   -6.3103096     4129.392            5 
   91600   0.96674861   -6.3182151    4130.8051           14 
   91700   0.98259893   -6.2919602     4142.485            9 
   91800   0.96682319    -6.299302    4138.4533            9 
   91900   0.96112033   -6.3154454    4129.8139           12 
   92000   0.97915319   -6.2966797    4143.2141           14 
   92100   0.99446172   -6.3011644    4138.9775           11 
   92200   0.97662869   -6.3050922     4121.203            9 
   92300   0.97533011   -6.3316027    4121.4278            7 
   92400   0.98791916   -6.2994323    4133.5674            8 
   92500   0.99039189   -6.3254789    4127.7458            4 
   92600   0.96933438   -6.3184923      4122.06            5 
   92700   0.99111312   -6.3088771    4127.9948            5 
   92800   0.98444087   -6.3199109    4137.0023            5 
   92900   0.98868563   -6.2982585    4145.5246            4 
   93000   0.99451734   -6.3296871    4132.2472            7 
   93100   0.97245027   -6.3210709    4136.4549            3 
   93200   0.99174477   -6.3331381    4142.0825            3 
   93300   0.98803921   -6.3363677    4135.8778            4 
   93400   0.97677755   -6.3134249    4131.5544            7 
   93500   0.97901123   -6.2954367    4145.0172            5 
   93600   0.99087552    -6.287574     4146.679            4 
   93700   0.97086953   -6.2923145     4134.138            5 
   93800   0.97497638   -6.3299842    4131.9024            5 
   93900   0.96914347   -6.3408516    4131.7662            7 
   94000   0.98314924   -6.3129059    4136.1741           15 
   94100   0.99818636   -6.3031594    4137.3192           15 
   94200   0.96421198   -6.3042053    4128.6106           17 
   94300    1.0013204   -6.3290102    4128.5677           13 
   94400   0.97611081   -6.3020065    4125.5914           23 
   94500   0.98378225    -6.323326    4120.9278            7 
   94600   0.99323195   -6.3050805     4121.108            4 
   94700   0.99470755   -6.3133586    4137.0145            7 
   94800   0.98698392   -6.2847946    4141.6674            6 
   94900   0.98389691   -6.3161798    4133.0412           13 
   95000   0.99498037   -6.3203412     4139.364           12 
   95100   0.97244716   -6.3393685    4137.2756           15 
   95200   0.95579784    -6.307815    4139.3555            7 
   95300     1.001838    -6.324153    4148.3546            6 
   95400    0.9822741   -6.3326127    4132.8409           10 
   95500   0.95637118   -6.3079643    4136.3847            6 
   95600   0.98398127   -6.3007485    4134.2174            8 
   95700   0.99297981   -6.2747442    4134.5524            8 
   95800    0.9770511   -6.2925473    4132.6086            6 
   95900   0.99168112   -6.3447932    4130.8035            5 
   96000   0.97873958   -6.3261813    4131.2733            7 
   96100    0.9745966   -6.2819979    4152.7216            7 
   96200   0.98618359   -6.3183281    4148.9993           13 
   96300   0.97658703   -6.3025159    4150.0173           15 
   96400   0.98098191   -6.3227163    4158.7034            5 
   96500   0.99175669   -6.3003432    4148.5126            7 
   96600   0.97225149   -6.3161601    4139.1303           14 
   96700   0.99041118   -6.3240557    4145.2801            8 
   96800   0.98068873   -6.3066085    4145.1666            9 
   96900   0.96525657   -6.3232074    4145.7486           15 
   97000   0.98465725   -6.3301486    4137.9392            5 
   97100   0.96412537   -6.3102809     4141.905            6 
   97200   0.98555265   -6.3218146    4151.1676           14 
   97300   0.96647794    -6.284386    4149.0907           15 
   97400   0.96415756   -6.3257202    4139.4061           11 
   97500   0.97203885     -6.32544    4135.2439            9 
   97600    0.9717036   -6.3006583    4152.2887            7 
   97700   0.96354531   -6.3192899    4147.6787            7 
   97800   0.97572166   -6.3199056     4141.671            9 
   97900   0.96580398   -6.2793281    4143.5965            8 
   98000    1.0058194   -6.3063688    4154.6109            7 
   98100   0.98765728   -6.3369144    4141.9656            9 
   98200   0.98731077   -6.3276618    4134.2525            9 
   98300   0.98855561   -6.2913949    4141.7586            5 
   98400   0.97606641   -6.3187138    4118.2192            6 
   98500   0.97515188   -6.3176512    4132.0578            5 
   98600   0.98752927   -6.2989191    4137.3037            8 
   98700   0.98275435    -6.317728    4135.2782            6 
   98800   0.96588556   -6.3353798    4130.7789            5 
   98900   0.98865829   -6.3311282    4134.3211            5 
   99000   0.97634436    -6.332112    4134.4371            7 
   99100   0.98175862   -6.3540636    4117.5637            4 
   99200   0.98944421   -6.3318566    4121.1128           14 
   99300   0.98366174   -6.2975943    4125.9438            7 
   99400   0.97512392   -6.2938495    4132.7454            9 
   99500   0.96655826   -6.3190135    4137.0742           11 
   99600   0.97521081    -6.335653    4134.5422           11 
   99700   0.99989188   -6.3173664    4138.2252            6 
   99800   0.97670033   -6.3155408     4136.191            5 
   99900   0.97101352   -6.3198692    4135.4883            8 
  100000   0.98141937   -6.2724298    4141.3292            5 
  100100   0.98943583   -6.3226779    4144.2201            5 
  100200   0.96994057   -6.3027848    4140.2656            4 
  100300   0.96961932   -6.3024412     4149.219            3 
  100400   0.99440215   -6.3079803     4160.081            5 
  100500    0.9702574   -6.3083059    4148.1427            5 
  100600    0.9935012   -6.3176757      4126.87            5 
  100700    0.9578437   -6.3102345    4118.5536            9 
  100800   0.97267161   -6.2881011     4136.462            8 
  100900   0.97317236   -6.3100478    4141.4625            5 
  101000   0.97269203   -6.3559633    4121.5177            5 
  101100   0.98342299   -6.3392416    4127.3477            9 
  101200   0.97394426   -6.3125263    4142.4239            6 
  101300   0.97188594     -6.28979    4147.5921            7 
  101400   0.98457039   -6.3058714    4152.0728            4 
  101500   0.97331939   -6.2971018    4145.4623            7 
  101600   0.98461995   -6.2661833    4152.4109            5 
  101700   0.97401076   -6.3050149    4141.0334            7 
  101800   0.98339671   -6.3097995    4125.5222            6 
  101900   0.98369707   -6.3364695    4119.6506            5 
  102000   0.98657899   -6.3040415    4142.7448            4 
  102100    0.9867219   -6.2909627    4140.8359            5 
  102200    0.9681194   -6.3005253    4124.3439            5 
  102300   0.98468943   -6.2976836    4139.5673            3 
  102400   0.98546019   -6.2930646    4126.4858            3 
  102500   0.98261318   -6.3205225    4131.6282            5 
  102600   0.97394987   -6.3284352    4135.6869           10 
  102700   0.94743636   -6.3526295    4127.6876            4 
  102800   0.96288419   -6.3389268    4130.6807           10 
  102900   0.97056126   -6.3206397    4138.4205            6 
  103000   0.97340827   -6.2860333    4139.8723            5 
  103100   0.97870163   -6.3110173    4142.9892            5 
  103200   0.99820964   -6.3024666     4155.408            2 
  103300    0.9827319   -6.2729363    4150.7635            4 
  103400    0.9802631   -6.2888935    4145.4211            8 
  103500   0.97565137   -6.3148192     4139.283            9 
  103600   0.96716687   -6.3264833    4135.3065            4 
  103700   0.98666095   -6.3468182    4141.8933            8 
  103800   0.95436172   -6.3256932    4154.9699            7 
  103900   0.98793085   -6.3276914    4146.6409            3 
  104000     0.987399   -6.3293121    4148.1816            4 
Loop time of 183.473 on 32 procs for 100000 steps with 4000 atoms

Performance: 94182.581 tau/day, 545.038 timesteps/s
99.7% CPU use with 32 MPI tasks x no OpenMP threads

MPI task timing breakdown:
Section |  min time  |  avg time  |  max time  |%varavg| %total
---------------------------------------------------------------
Pair    | 15.474     | 15.597     | 15.767     |   1.7 |  8.50
Neigh   | 1.9132     | 1.925      | 1.9419     |   0.5 |  1.05
Comm    | 8.6754     | 9.3638     | 9.7767     |   7.6 |  5.10
Output  | 4.4708     | 4.4714     | 4.483      |   0.1 |  2.44
Modify  | 149.01     | 150.01     | 150.83     |   4.0 | 81.76
Other   |            | 2.11       |            |       |  1.15

Nlocal:        125.000 ave         134 max         117 min
Histogram: 2 4 1 4 5 8 3 3 1 1
Nghost:        1909.25 ave        1925 max        1890 min
Histogram: 2 2 4 3 1 3 6 3 5 3
Neighs:        13802.5 ave       14833 max       12645 min
Histogram: 2 1 1 6 6 4 3 4 3 2
FullNghs:      27604.0 ave       29803 max       25611 min
Histogram: 3 0 3 6 3 8 6 1 1 1

Total # of neighbors = 883328
Ave neighs/atom = 220.83200
Neighbor list builds = 5924
Dangerous builds = 0

#clear
#
#next RN
#
#jump SELF
Total wall time: 0:03:04
