
units lj                  # Use reduced LJ style units
atom_style atomic         # Uncharged point particles
atom_modify map hash      # Needed for indexing of clusters etc
                          # Used to be able to find where atoms are in relation to each other.

# Define a lattice with which to populate the simulation cell. With units
# set to 'lj' the second argument to the lattice command is the reduced
# density rho* and the spacings are multiples of that required to acheive
# that density. Also define a simulation cell called 'box' in lattice units
# and fill it with atoms. Here we're creating a box which is ten lattice
# constants in each direction.
lattice fcc 1.0 spacing 1 1 1                 # All equal sizes - gives the right reduced density.
Lattice spacing in x,y,z = 1.5874011 1.5874011 1.5874011

region box block 0 10 0 10 0 10 units lattice # Defines a region, "box", in lattice units
create_box 1 box                              # Creates a simulation box as specified above,
Created orthogonal box = (0.0000000 0.0000000 0.0000000) to (15.874011 15.874011 15.874011)
  2 by 2 by 5 MPI processor grid
                                              # with one type of atom
create_atoms 1 box                            # Creates particles on lattice points
Created 4000 atoms
  using lattice units in orthogonal box = (0.0000000 0.0000000 0.0000000) to (15.874011 15.874011 15.874011)
  create_atoms CPU = 0.002 seconds


# Set the mass of the first (and only) atom type.
mass 1 1.0

# Lennard-Jones interactions between particles, 3.5 sigma cut-off. Apply
# long range tail corrections to energy and pressure and set all coefficients
# to unity since we work in reduced units here. Note that this doesn't shift
# the potential such that it goes to zero at the cutoff. That would require
# pair_modify('shift', 'yes').
pair_style lj/cut  3.5      # non-GPU version
pair_modify tail  yes
pair_coeff 1  1  1.0  1.0   # Intearaction between 1 and 1 set with epsilon = 1 and sigma = 1

write_data data.*
System init for write_data ...
Neighbor list info ...
  update every 1 steps, delay 10 steps, check yes
  max neighbors/atom: 2000, page size: 100000
  master list distance cutoff = 3.8
  ghost atom cutoff = 3.8
  binsize = 1.9, bins = 9 9 9
  1 neighbor lists, perpetual/occasional/extra = 1 0 0
  (1) pair lj/cut, perpetual
      attributes: half, newton on
      pair build: half/bin/atomonly/newton
      stencil: half/bin/3d
      bin: standard

#############################
#   M E L T   S Y S T E M   #
#############################

velocity all create 2.4 5833274 mom yes dist gaussian # Assign velocities
                                                    # Temperature 2.4, random number seed, zero linear momentum
						                                                        # Gaussian distribution

timestep 0.002   # simulation timestep
thermo 100       # output thermodynamic data every 100 steps

# Define a fix  in this case with index 1 applied to all
# particles in the simulation. This fix is for simulations
# in the anisotropic NPT ensemble. Note that we use the MTK
# correction.
fix 1 all npt temp 2.4 2.4 0.1 iso 5.68 5.68 0.5 mtk yes tchain 5 pchain 5 # Use NPT ensemble
                                                                         # Set temperature and pressure and damping
                                                                         # Numbers of thermostats in chain and in barostat
run 1000         # run for 10000 steps
Per MPI rank memory allocation (min/avg/max) = 3.681 | 3.682 | 3.682 Mbytes
Step Temp E_pair E_mol TotEng Press Volume 
       0          2.4   -8.3859253            0   -4.7868253   -2.2405722         4000 
     100    1.2560543   -6.5166947            0   -4.6330842    5.4738617     4090.264 
     200    1.4620147   -6.2944328            0    -4.101959    6.0489469    4141.8953 
     300    1.5805517   -6.0148662            0   -3.6446313    5.8775706    4268.7287 
     400    1.6834669   -5.7107066            0   -3.1861375    5.9071358    4403.4982 
     500    1.7905016   -5.4263411            0   -2.7412601    5.8268731    4549.0839 
     600    1.8978346    -5.162881            0   -2.3168407    5.7228626    4703.0892 
     700    1.9845484    -4.865807            0   -1.8897287     6.002426    4840.6855 
     800    2.1384022    -4.696791            0   -1.4899895    5.9101296    4967.4306 
     900    2.2534752   -4.5516747            0    -1.172307    5.7523082    5085.8653 
    1000    2.3409821   -4.4247023            0  -0.91410702    5.7016656    5179.7126 
Loop time of 0.480631 on 20 procs for 1000 steps with 4000 atoms

Performance: 359527.345 tau/day, 2080.598 timesteps/s
99.9% CPU use with 20 MPI tasks x no OpenMP threads

MPI task timing breakdown:
Section |  min time  |  avg time  |  max time  |%varavg| %total
---------------------------------------------------------------
Pair    | 0.25973    | 0.28027    | 0.30229    |   2.1 | 58.31
Neigh   | 0.050639   | 0.053177   | 0.05589    |   0.7 | 11.06
Comm    | 0.096808   | 0.12001    | 0.14111    |   3.5 | 24.97
Output  | 0.00020373 | 0.00021128 | 0.00027352 |   0.0 |  0.04
Modify  | 0.02179    | 0.023646   | 0.026499   |   1.2 |  4.92
Other   |            | 0.003315   |            |       |  0.69

Nlocal:        200.000 ave         214 max         185 min
Histogram: 1 1 2 4 1 2 4 2 2 1
Nghost:        2060.35 ave        2080 max        2025 min
Histogram: 1 0 0 1 4 0 5 5 0 4
Neighs:        17663.0 ave       19553 max       16156 min
Histogram: 1 3 2 3 4 1 1 4 0 1

Total # of neighbors = 353260
Ave neighs/atom = 88.315000
Neighbor list builds = 87
Dangerous builds = 21

# Equilibrate just above the melting temperature to avoid step fn in T

fix 1 all npt temp 1.25 1.25 0.1 iso 5.68 5.68 0.5 mtk yes tchain 5 pchain 5
run 1000
Per MPI rank memory allocation (min/avg/max) = 3.682 | 3.683 | 3.683 Mbytes
Step Temp E_pair E_mol TotEng Press Volume 
    1000    2.3409821   -4.4247023            0  -0.91410702    5.7016656    5179.7126 
    1100    1.9394202   -4.6489983            0   -1.7405953    5.7043192    5010.4975 
    1200    1.7538302   -4.9709308            0   -2.3408432    5.7068483    4807.0107 
    1300    1.5722219   -5.1950829            0   -2.8373396    5.6802724    4673.3381 
    1400    1.4568845   -5.4057081            0   -3.2209276    5.5567683    4573.8845 
    1500    1.3503547   -5.5212706            0   -3.4962449    5.7302676    4490.7966 
    1600    1.3147643   -5.6482764            0   -3.6766229    5.6898925    4434.2315 
    1700    1.2716924   -5.7297408            0   -3.8226791    5.6958397    4391.1098 
    1800    1.2648862   -5.7893213            0   -3.8924664    5.8003465    4355.9343 
    1900    1.2354209   -5.8175189            0   -3.9648509     5.800932    4342.1233 
    2000    1.2349334    -5.850737            0      -3.9988    5.7262948    4335.4701 
Loop time of 0.469015 on 20 procs for 1000 steps with 4000 atoms

Performance: 368432.042 tau/day, 2132.130 timesteps/s
100.0% CPU use with 20 MPI tasks x no OpenMP threads

MPI task timing breakdown:
Section |  min time  |  avg time  |  max time  |%varavg| %total
---------------------------------------------------------------
Pair    | 0.26156    | 0.27755    | 0.29568    |   2.1 | 59.18
Neigh   | 0.044004   | 0.046357   | 0.048647   |   0.6 |  9.88
Comm    | 0.096356   | 0.11777    | 0.13432    |   3.6 | 25.11
Output  | 0.00020633 | 0.00021327 | 0.00026173 |   0.0 |  0.05
Modify  | 0.021367   | 0.023428   | 0.025727   |   0.9 |  5.00
Other   |            | 0.003692   |            |       |  0.79

Nlocal:        200.000 ave         208 max         193 min
Histogram: 3 2 2 0 3 2 4 1 0 3
Nghost:        2288.05 ave        2299 max        2264 min
Histogram: 1 0 0 2 0 3 2 3 5 4
Neighs:        21066.1 ave       22634 max       19412 min
Histogram: 1 2 3 1 3 1 2 4 2 1

Total # of neighbors = 421322
Ave neighs/atom = 105.33050
Neighbor list builds = 76
Dangerous builds = 7


# Small amount of linear quench

fix 1 all npt temp 1.25 ${temp} 0.1 iso 5.68 5.68 0.5 mtk yes tchain 5 pchain 5
fix 1 all npt temp 1.25 0.9 0.1 iso 5.68 5.68 0.5 mtk yes tchain 5 pchain 5
run 2000
Per MPI rank memory allocation (min/avg/max) = 3.683 | 3.683 | 3.684 Mbytes
Step Temp E_pair E_mol TotEng Press Volume 
    2000    1.2349334    -5.850737            0      -3.9988    5.7262948    4335.4701 
    2100     1.258547   -5.8526439            0   -3.9652954    5.5777428    4347.1109 
    2200    1.2172191   -5.8433942            0    -4.018022    5.5005547    4354.1603 
    2300    1.2104055   -5.9068968            0   -4.0917424    5.3478716    4340.7075 
    2400    1.1734507   -5.9072544            0   -4.1475184    5.4690661    4328.8158 
    2500    1.1881389   -5.9498553            0   -4.1680926    5.6277867    4298.4912 
    2600    1.1659771   -5.9402856            0   -4.1917571    5.8593374     4280.807 
    2700    1.1489801   -5.9925396            0   -4.2695003    5.6415329    4275.8117 
    2800    1.1239495   -6.0280921            0   -4.3425894    5.6156531    4261.3015 
    2900    1.0991494   -6.0604123            0   -4.4121004    5.5836161    4250.3457 
    3000    1.1025264   -6.1102862            0   -4.4569101    5.5060016     4237.615 
    3100    1.0836075   -6.1359314            0   -4.5109265    5.3891917    4234.7829 
    3200    1.0576385   -6.1558784            0   -4.5698172    5.5518183    4211.9523 
    3300    1.0397553   -6.1773833            0   -4.6181403    5.7097896    4190.9141 
    3400    1.0281255   -6.1964551            0   -4.6546524    5.9003867    4167.1929 
    3500   0.98166098   -6.2014957            0   -4.7293724    5.7689437    4172.0271 
    3600   0.97976422   -6.2446362            0   -4.7753573     5.692212    4161.5057 
    3700   0.97774848    -6.302627            0    -4.836371    5.4972213    4153.5494 
    3800   0.94430225    -6.307793            0   -4.8916937    5.5790576    4144.8511 
    3900   0.94692113   -6.3646615            0   -4.9446349    5.5405057    4124.6823 
    4000   0.89658989   -6.3611528            0   -5.0166041    5.6823412    4113.1025 
Loop time of 0.958589 on 20 procs for 2000 steps with 4000 atoms

Performance: 360530.036 tau/day, 2086.401 timesteps/s
99.9% CPU use with 20 MPI tasks x no OpenMP threads

MPI task timing breakdown:
Section |  min time  |  avg time  |  max time  |%varavg| %total
---------------------------------------------------------------
Pair    | 0.55772    | 0.59539    | 0.62861    |   2.7 | 62.11
Neigh   | 0.074064   | 0.077613   | 0.081359   |   0.8 |  8.10
Comm    | 0.19283    | 0.23028    | 0.26552    |   4.6 | 24.02
Output  | 0.0003933  | 0.00040773 | 0.00049626 |   0.0 |  0.04
Modify  | 0.041617   | 0.04654    | 0.051468   |   1.5 |  4.86
Other   |            | 0.008353   |            |       |  0.87

Nlocal:        200.000 ave         206 max         193 min
Histogram: 3 2 1 2 1 0 3 1 3 4
Nghost:        2355.30 ave        2370 max        2332 min
Histogram: 2 1 0 0 1 3 5 3 4 1
Neighs:        22289.8 ave       23685 max       20683 min
Histogram: 1 2 1 2 2 2 5 2 1 2

Total # of neighbors = 445795
Ave neighs/atom = 111.44875
Neighbor list builds = 123
Dangerous builds = 0

#############################
# F R E E Z E  S Y S T E M  #
#############################

# Define solid atoms. This closely follows ten Wolde  Ruiz-Montero and Frenkel  Faraday Discuss  1996  104  93-110
# Compute components of the per-atom q6 vector
compute q6 all orientorder/atom degrees 1 6 components 6 nnn NULL cutoff 1.3 # compute the Q6 parameter.
                                                                             # Use all neighbours within 1.3 unit cell.

# get number of connections
compute coord_number all coord/atom orientorder q6 0.5

# An atom is solid if it has 8 or more connections (of a possible 14)
variable is_solid atom c_coord_number>=8
group solid dynamic all var is_solid    # Must be dynamic to update
dynamic group solid defined

# do clustering
compute cluster solid cluster/atom 1.3 # Create a cluster where all atoms within are solid and max 1.3 units from another member

# define chunks one chunk per cluster
compute clus_chunks solid chunk/atom c_cluster nchunk every compress yes  # Says which atoms are in which chunk

# count the size of each chunk
compute size_chunks solid property/chunk clus_chunks count


# Find the maximum entry in the vector of chunk sizes
variable max_n equal max(c_size_chunks)


# Thermo style which includes this variable
thermo_style custom step temp pe vol v_max_n

thermo ${N}  # Print the thermo information every 100 steps
thermo 100  

# Reset the npt fix at a lower temperature (below freezing)
fix 1  all npt temp  ${temp} ${temp}  0.1  iso  5.68  5.68  0.5  mtk yes tchain  5  pchain  5
fix 1  all npt temp  0.9 ${temp}  0.1  iso  5.68  5.68  0.5  mtk yes tchain  5  pchain  5
fix 1  all npt temp  0.9 0.9  0.1  iso  5.68  5.68  0.5  mtk yes tchain  5  pchain  5

dump dmp2 all dcd ${N} traj_${rand}.dcd
dump dmp2 all dcd 100 traj_${rand}.dcd
dump dmp2 all dcd 100 traj_462431.dcd


# fix rnuntil all halt ${N} v_max_n >= 3980 error soft message no   # Stop when solidified


run 100000 # 5000000  # Run for this many steps
Neighbor list info ...
  update every 1 steps, delay 10 steps, check yes
  max neighbors/atom: 2000, page size: 100000
  master list distance cutoff = 3.8
  ghost atom cutoff = 3.8
  binsize = 1.9, bins = 9 9 9
  4 neighbor lists, perpetual/occasional/extra = 1 3 0
  (1) pair lj/cut, perpetual
      attributes: half, newton on
      pair build: half/bin/atomonly/newton
      stencil: half/bin/3d
      bin: standard
  (2) compute orientorder/atom, occasional
      attributes: full, newton on
      pair build: full/bin/atomonly
      stencil: full/bin/3d
      bin: standard
  (3) compute coord/atom, occasional
      attributes: full, newton on
      pair build: full/bin/atomonly
      stencil: full/bin/3d
      bin: standard
  (4) compute cluster/atom, occasional
      attributes: full, newton on
      pair build: full/bin/atomonly
      stencil: full/bin/3d
      bin: standard
Per MPI rank memory allocation (min/avg/max) = 9.514 | 9.518 | 9.522 Mbytes
Step Temp PotEng Volume v_max_n 
    4000   0.89658989   -6.3611528    4113.1025           12 
    4100   0.89331728    -6.392432    4095.0386           11 
    4200   0.89868636   -6.4289771    4082.3713            7 
    4300   0.90202463   -6.4196476    4085.6335            8 
    4400   0.92110104   -6.4280283      4079.76            8 
    4500   0.88493373   -6.3942409    4071.4096            7 
    4600   0.93053309   -6.4281319    4087.6554           10 
    4700   0.92760684   -6.4218216    4090.0705            6 
    4800   0.92804412   -6.4717832    4085.3918            7 
    4900   0.89756203   -6.4568405    4089.3582            9 
    5000   0.89644422   -6.4507622    4083.5571            4 
    5100   0.88662724   -6.4520507    4081.4849            5 
    5200   0.88971405   -6.4499087    4083.4784           12 
    5300   0.91948727   -6.4478091    4093.5931           12 
    5400   0.89916266   -6.4486698    4091.2026            9 
    5500   0.89444875   -6.4539094    4086.1428           13 
    5600   0.89112744   -6.4154439    4089.6416           17 
    5700   0.91598484   -6.4020849    4084.6817           11 
    5800   0.90192604   -6.4185317    4074.9696           11 
    5900   0.90282677   -6.4236378    4077.7432           13 
    6000   0.91661631   -6.4096817      4079.66           12 
    6100    0.9042055   -6.4306084    4071.7983            8 
    6200   0.91064021   -6.4492902    4077.4451           12 
    6300   0.89630072   -6.4736946     4073.824           16 
    6400   0.89362772   -6.4647258    4075.0536           11 
    6500    0.9102058   -6.4544467    4093.1578           12 
    6600   0.90569896   -6.4606629    4086.4794           13 
    6700   0.89868505   -6.4625835    4073.6832           19 
    6800   0.88495172    -6.460821    4071.9453           11 
    6900   0.90203397   -6.4428282    4075.3891            8 
    7000   0.90016347   -6.4610308    4074.0178            7 
    7100   0.89049811   -6.4680685    4070.6425            4 
    7200   0.91127225   -6.4706122    4075.2023            5 
    7300   0.88965495   -6.4726943    4069.8079            4 
    7400   0.90131856   -6.4826011      4064.82            6 
    7500   0.91498471   -6.4656057    4079.1873            4 
    7600    0.8943786    -6.480943    4090.2015            7 
    7700   0.90524565   -6.4666583    4084.1983            5 
    7800   0.90834099   -6.4386083    4092.0062            8 
    7900   0.89313932   -6.4714289    4077.7625           19 
    8000   0.88622261   -6.4524589    4072.3297           22 
    8100   0.90772254   -6.4424899    4088.1025           11 
    8200   0.91351425   -6.4646843    4085.7803            8 
    8300   0.90149154   -6.4375491    4080.6588           10 
    8400   0.92843966   -6.4394943    4078.7889           21 
    8500   0.89502152   -6.4630062    4086.2735            9 
    8600   0.89466221   -6.4861996    4084.0538           13 
    8700   0.87611311   -6.4818666    4073.0991            9 
    8800   0.89158644   -6.4874169    4077.7512            6 
    8900   0.90224454   -6.4765004    4077.3297           13 
    9000   0.89178218    -6.487269    4073.0167            5 
    9100    0.8892538   -6.4849337    4066.4024            6 
    9200   0.89844206   -6.4543871     4079.696            9 
    9300   0.91008223   -6.4381191    4083.0503           13 
    9400   0.88950427    -6.427903    4073.2117           14 
    9500   0.90189925   -6.4630001    4071.1986           27 
    9600   0.91395722   -6.4288466    4083.2164           17 
    9700   0.90754864   -6.4386066    4082.2006            7 
    9800   0.90051976   -6.4585807    4075.5333            9 
    9900   0.89676218   -6.4759907    4082.3659           14 
   10000   0.89856445   -6.4674361    4077.6221           10 
   10100   0.89050634   -6.4925513    4074.1565            7 
   10200   0.88630395   -6.4799676    4076.1008            5 
   10300   0.90154497   -6.4612344    4082.4519            5 
   10400   0.91344902   -6.4615176    4081.9185            7 
   10500   0.91315533   -6.4514087    4076.0435            9 
   10600   0.90061378   -6.4605817    4069.8003            6 
   10700   0.88583761   -6.4502285    4072.7744           16 
   10800   0.91389127   -6.4507264    4078.4878           13 
   10900    0.9069953   -6.4322275    4081.7093           29 
   11000   0.89946327   -6.4628685    4067.6493           36 
   11100   0.92068953   -6.4757065    4062.1458           30 
   11200   0.88206717    -6.467594    4053.1083           16 
   11300   0.89616246   -6.4556452    4065.0995           28 
   11400   0.91060392   -6.4504561     4075.779            8 
   11500   0.89757695   -6.4742751    4068.6767           10 
   11600   0.90097064    -6.483043    4065.8711           24 
   11700   0.90394694   -6.4736791     4075.533           12 
   11800   0.89505651   -6.4795236    4077.4014            5 
   11900   0.89990149   -6.4891358    4078.7492            8 
   12000   0.90801335   -6.4663765     4079.726            7 
   12100   0.90961808   -6.4492332    4086.2097            7 
   12200   0.90145088   -6.4563233    4077.7059            6 
   12300    0.9110716   -6.4666949    4068.6008            9 
   12400   0.89494899   -6.4647114    4065.3029            6 
   12500   0.90729948   -6.4346335     4073.463            8 
   12600   0.91313738   -6.4407852    4067.2838           12 
   12700    0.9014026   -6.4599121    4060.4595           11 
   12800   0.91382325   -6.4493227    4060.9736            6 
   12900   0.90401455   -6.4530815    4073.7635            6 
   13000    0.8918624   -6.4649533    4084.8419            8 
   13100   0.90226599   -6.4332719    4088.0375           11 
   13200   0.90789243   -6.4681506    4087.9923           10 
   13300   0.88876127   -6.4677715    4089.6401           21 
   13400   0.90426547   -6.4374267    4102.9454           20 
   13500   0.89411509    -6.460035    4095.2614           11 
   13600   0.90387343   -6.4623603     4083.623           14 
   13700   0.88681284   -6.4581202    4078.1334            9 
   13800   0.89672248   -6.4345659    4081.5057           13 
   13900   0.92894188   -6.4297669    4096.9342           11 
   14000   0.90053667   -6.4210746    4092.8943            9 
   14100   0.90517667   -6.4552573    4072.2807           12 
   14200   0.90206404   -6.4612201    4073.9766           17 
   14300   0.90891146   -6.4571684    4084.9352           18 
   14400   0.89039409   -6.4421454    4088.6865           17 
   14500   0.89380663   -6.4615818    4078.2409           18 
   14600   0.88940327   -6.4761705    4074.7077           13 
   14700   0.91911551   -6.4672858    4079.7324           11 
   14800   0.88904979   -6.4277928    4075.0451           11 
   14900   0.91232276   -6.4397022    4075.4334           20 
   15000   0.89726977   -6.4648664      4068.32           29 
   15100   0.90664246   -6.4313835    4069.4207           13 
   15200   0.89375665   -6.4313794    4072.8069           20 
   15300   0.89790353   -6.4348187    4076.9892            9 
   15400   0.88023305   -6.4628143    4077.4953           11 
   15500   0.88991976   -6.4719307    4080.6617           11 
   15600   0.90595985   -6.4540285    4084.3005           14 
   15700   0.89148725   -6.4651341    4079.7529           17 
   15800   0.86254738   -6.4689945    4073.9068           15 
   15900   0.89778244   -6.4733654    4077.1008            8 
   16000   0.90103194   -6.4597724    4092.7677           10 
   16100   0.89711997   -6.4374197    4091.8145           10 
   16200   0.90849277   -6.4780748    4080.1932           15 
   16300     0.892233    -6.464181    4085.1424            9 
   16400    0.9048448   -6.4642994    4077.9982           11 
   16500   0.88434692    -6.473723    4068.3232            5 
   16600   0.90709891   -6.4661694    4079.4108            7 
   16700   0.90477416   -6.4642415     4091.668            4 
   16800   0.89203158   -6.4512484    4085.6229            7 
   16900   0.88624026   -6.4670241    4070.1556           10 
   17000   0.90353895   -6.4570086     4082.855            9 
   17100   0.89482698   -6.4419032    4081.1293           15 
   17200   0.88571692   -6.4883367     4070.544           15 
   17300   0.88326224   -6.4693208       4076.6           12 
   17400   0.90046641   -6.4677538    4085.1151            9 
   17500   0.90034936   -6.4661526    4082.6658           10 
   17600   0.87928227     -6.45998    4079.7041           17 
   17700   0.89487467   -6.4520466    4080.9631           16 
   17800   0.91200528   -6.4359115      4080.64            9 
   17900   0.91082584   -6.4705485    4069.3859           12 
   18000   0.89691136   -6.4891619    4065.8921           16 
   18100   0.90004195   -6.4760129    4073.9584            9 
   18200    0.8803343   -6.4620752      4074.78           14 
   18300   0.89126798   -6.4301659     4094.116           11 
   18400   0.90914658    -6.474087    4089.9639           10 
   18500   0.88749001    -6.461232    4079.9409           10 
   18600   0.89265969   -6.4669315    4081.1453           12 
   18700   0.89514601   -6.4701495    4078.8592           12 
   18800    0.8955263   -6.4480752     4086.501            6 
   18900    0.9129661   -6.4631662    4095.6892           21 
   19000   0.89509897   -6.4811186    4092.7484           11 
   19100   0.89368311   -6.4486058    4088.3308            7 
   19200   0.91975371   -6.4597631     4086.174            6 
   19300    0.9027421   -6.4661974    4072.5886            7 
   19400   0.91979617   -6.4732656    4077.9623           11 
   19500   0.91500961   -6.4269389    4079.2594            8 
   19600   0.90081943   -6.4452462    4064.5819            4 
   19700   0.90944886   -6.4471924    4079.9932            9 
   19800   0.90868457   -6.4314061    4077.6118           10 
   19900   0.89284629   -6.4421382     4068.377            8 
   20000   0.92929878   -6.4435459    4063.8494            7 
   20100   0.90837955   -6.4205106    4066.0529           12 
   20200   0.90574132   -6.4565799    4057.6436           10 
   20300   0.89694511   -6.4844861    4057.8209           15 
   20400    0.8995942   -6.4580881    4077.3052           11 
   20500   0.91660958   -6.4514413     4077.882            7 
   20600   0.90251087   -6.4483862    4073.8006            9 
   20700    0.9235745   -6.4691102     4074.598           11 
   20800   0.91396959   -6.4542702     4070.786           24 
   20900   0.88685247   -6.4605044    4064.6007           22 
   21000   0.90758625   -6.4529883    4067.8648           15 
   21100   0.91477324   -6.4481304    4064.8739           20 
   21200   0.91049675   -6.4779351    4064.1935           26 
   21300   0.88921282   -6.4432279    4066.8968           20 
   21400   0.90501804   -6.4442793    4084.7976           14 
   21500   0.92005684   -6.4614272    4088.9415           10 
   21600   0.89801486   -6.4682693     4084.898            9 
   21700   0.91401581   -6.4657018    4080.6497           14 
   21800   0.91815456    -6.436528    4084.9278           23 
   21900   0.88942035   -6.4079069    4080.1676            9 
   22000   0.88900252   -6.4209617    4072.0576           13 
   22100   0.92153711   -6.4336733    4076.5193           11 
   22200   0.89660277   -6.4595021    4075.3539           10 
   22300   0.90072414   -6.4628654    4088.3171           20 
   22400   0.89618426   -6.4456219    4084.4232            8 
   22500   0.90996117    -6.459234     4077.348           13 
   22600   0.89872226   -6.4416153    4081.8933            6 
   22700   0.90958196   -6.4429019    4083.9159           12 
   22800     0.904078   -6.4746497    4075.1549            9 
   22900   0.90334552   -6.4525407    4083.4608           10 
   23000   0.89448727    -6.446544    4094.9636           21 
   23100   0.91267052   -6.4331228    4105.8042           22 
   23200   0.90368672   -6.4689648    4094.8299           37 
   23300   0.90078308   -6.4785325    4093.8421           29 
   23400   0.91472801   -6.4355739    4096.2373           17 
   23500   0.89630491   -6.4317674    4093.7133            9 
   23600   0.89320977   -6.4523304    4074.0599           16 
   23700   0.90436903   -6.4701095    4078.3618           12 
   23800   0.90398097   -6.4218561    4081.1569            8 
   23900   0.89357596   -6.4461668    4083.6034            7 
   24000   0.91314682   -6.4690811    4076.2125           19 
   24100   0.89685088   -6.4727223    4066.8396           28 
   24200   0.88700267   -6.4496323    4061.5853           11 
   24300   0.90747176   -6.4402769    4073.1789            6 
   24400   0.89893754   -6.4408297     4075.296            8 
   24500   0.90069948   -6.4624524    4063.2253           10 
   24600   0.91512924    -6.443363    4067.9472            8 
   24700   0.89904954   -6.4411139     4074.486            6 
   24800   0.91407075   -6.4221718    4086.4697           10 
   24900   0.90494289   -6.4393755    4083.6004            6 
   25000   0.88601548   -6.4363737    4078.5645           10 
   25100   0.92303874   -6.4501073    4086.8598            7 
   25200   0.90661637   -6.4284669     4082.105            7 
   25300   0.89764066   -6.4632728    4086.7722           28 
   25400   0.93069875    -6.469701    4100.2787           17 
   25500    0.8983208   -6.4293557    4097.9439            7 
   25600   0.89513295   -6.4479689    4092.0388           11 
   25700   0.90482844    -6.459406    4086.6588           14 
   25800   0.88009141   -6.4388595    4079.2014            8 
   25900   0.90393708   -6.4501904     4071.309            8 
   26000   0.88377454   -6.4400856    4080.4492            8 
   26100   0.90916639   -6.4976494    4071.1406            6 
   26200    0.9063642   -6.4529687    4072.9089            8 
   26300   0.92207352   -6.4206161    4073.3357            7 
   26400    0.9028274   -6.4336321    4066.2799            5 
   26500   0.89081599   -6.4505461    4060.7345            7 
   26600   0.91991551   -6.4581506    4071.6867            8 
   26700   0.89909986   -6.4696379    4077.3183            7 
   26800   0.90382075   -6.4825114    4079.4428            4 
   26900   0.91008173   -6.4535312    4087.9686           12 
   27000   0.88425138   -6.4450919    4080.0499           11 
   27100   0.88784282   -6.4773929    4079.7219            5 
   27200   0.91704767   -6.4979293     4081.673            9 
   27300   0.88174622   -6.4625361    4084.4081           33 
   27400   0.90354987   -6.4617535    4076.3268           22 
   27500   0.89448055   -6.4691797    4071.3791           38 
   27600   0.88191789    -6.456097    4071.1723           32 
   27700   0.90064398   -6.4362427    4076.4605           33 
   27800   0.91609054   -6.4628316    4067.3158           20 
   27900   0.89183165   -6.4797475    4075.3421           20 
   28000   0.89940048   -6.4615027    4082.8328           16 
   28100   0.89231199   -6.4691039    4079.4278           13 
   28200   0.87539893   -6.4694764    4075.5591           15 
   28300   0.89074755    -6.463301    4073.9855            7 
   28400   0.88247783   -6.4282159    4075.2554            7 
   28500   0.91158152   -6.4680189    4081.0283            9 
   28600   0.89175941    -6.480725    4064.8511            8 
   28700   0.89809254   -6.4618535    4070.2569            8 
   28800   0.88708146   -6.4303277    4069.7244            9 
   28900   0.91921516   -6.4685642       4076.6           14 
   29000   0.91356799   -6.4621122    4080.2876            7 
   29100   0.90355282   -6.4340617    4084.6067            8 
   29200   0.88869758   -6.4588834    4079.9582           21 
   29300   0.87522357   -6.4734843    4082.2435           13 
   29400   0.89813943   -6.4582908    4080.0893           19 
   29500   0.87231871   -6.4564621    4081.1244           30 
   29600   0.90216938   -6.4595718    4079.5774           16 
   29700   0.89954906   -6.4344034    4076.5663           13 
   29800   0.89083052   -6.4777985    4066.1005           11 
   29900   0.90540146   -6.4876268    4063.6194           18 
   30000   0.91948438   -6.4682355    4080.1812           19 
   30100   0.88657792   -6.4520566    4078.0923           11 
   30200   0.89486147   -6.4635973    4084.1289           17 
   30300   0.90648425   -6.4681807    4100.1516           25 
   30400   0.87670162   -6.4522038    4089.1662           19 
   30500   0.89798612   -6.4419197    4084.5735           19 
   30600   0.90004968   -6.4458266    4087.8822           21 
   30700   0.90454521   -6.4636601    4081.7826           25 
   30800    0.8873061    -6.426881    4072.3903           23 
   30900   0.90809976   -6.4442241    4077.5608           24 
   31000   0.89780583   -6.4687283    4074.1102           22 
   31100   0.92585956    -6.465969    4079.0668           24 
   31200   0.90349489   -6.4648113    4076.5015           14 
   31300   0.90050088   -6.4640131    4064.7016           11 
   31400   0.89226239   -6.4714791    4060.6986           22 
   31500   0.90166203   -6.4651713    4072.7914           17 
   31600   0.89707482   -6.4362176    4087.6673            8 
   31700   0.90261941   -6.4386791    4089.0975            9 
   31800   0.88982008   -6.4552555    4092.0283           10 
   31900   0.89565533   -6.4547344    4093.6282           10 
   32000   0.89090197   -6.4683559    4089.6001           21 
   32100   0.90672409   -6.4480361    4080.5256           16 
   32200   0.89302965   -6.4353305     4085.817           11 
   32300   0.90837435   -6.4651324    4075.6621           10 
   32400   0.89903953    -6.496121     4077.843           11 
   32500   0.88935254   -6.4590994    4089.3285            6 
   32600   0.89620416   -6.4396428    4091.5581            8 
   32700   0.89067742   -6.4514031    4086.7354            9 
   32800    0.8841571    -6.461679    4082.7248            9 
   32900   0.90026038   -6.4573519      4089.98           10 
   33000   0.88242318   -6.4728228    4089.1153            9 
   33100   0.91054139   -6.4646382    4089.1655            9 
   33200   0.90032597   -6.4523714     4080.135           11 
   33300   0.87386799   -6.4631546    4069.4753           13 
   33400   0.90392325   -6.4810297    4085.0396            8 
   33500   0.88906979   -6.4483863    4079.7879           16 
   33600   0.89345873   -6.4488968    4069.8153            4 
   33700   0.88842847   -6.4604546     4064.146            5 
   33800   0.91263667    -6.450063    4075.2374            9 
   33900   0.90710668   -6.4425252    4083.0901            4 
   34000   0.90833099   -6.4252928    4088.0606            5 
   34100   0.91425889   -6.4513131    4066.5575            7 
   34200   0.90457077    -6.453594    4063.2137            9 
   34300   0.91170003   -6.4286456    4062.4443            8 
   34400    0.9233456   -6.4588919     4070.414            8 
   34500   0.89439911   -6.4709749    4074.8823           10 
   34600   0.89835939   -6.4472327    4080.7742           12 
   34700    0.9199465   -6.4572975    4074.0689           19 
   34800   0.90049025   -6.4747849    4069.0485            8 
   34900   0.91651316   -6.4658069    4068.9026           14 
   35000   0.92965736   -6.4435706    4066.9811           10 
   35100    0.9111268   -6.4654953    4061.0793            6 
   35200   0.91751213   -6.4479604    4051.0038            9 
   35300   0.94721476   -6.4673526    4073.9494            5 
   35400   0.91047738    -6.457183    4066.4184            6 
   35500   0.91030204   -6.4897373    4069.1028           15 
   35600   0.91381961   -6.4478039    4072.1605           12 
   35700   0.90974488   -6.4560509    4068.6795           15 
   35800   0.89865378   -6.4668856    4074.4563           10 
   35900   0.92044233   -6.4508181    4078.6194           16 
   36000   0.89691545   -6.4478701     4085.406           12 
   36100   0.89029722   -6.4501682    4081.4737           10 
   36200    0.8791215   -6.4649587    4062.5455           13 
   36300   0.90948374   -6.4817107    4084.0891            9 
   36400   0.88557878    -6.475107    4083.2117           13 
   36500   0.90200158   -6.4780317    4085.2053           12 
   36600   0.91790859   -6.4764188     4091.475            8 
   36700   0.89184429   -6.4515763     4075.188            7 
   36800   0.90549218    -6.457218     4075.908            9 
   36900    0.9064272   -6.4384104    4080.1685           21 
   37000   0.90337056   -6.4807552    4077.4553           22 
   37100   0.90779173    -6.454829    4074.2248           20 
   37200   0.90679065   -6.4246997    4081.4971           15 
   37300   0.89590672   -6.4266137    4080.3263           10 
   37400   0.90293024   -6.4288401    4079.3778            7 
   37500   0.89607114   -6.4589976     4070.549            5 
   37600   0.89881624    -6.474492    4070.9527           11 
   37700   0.91117016   -6.4700062    4076.2982            6 
   37800   0.92001587   -6.4632068    4072.2318            6 
   37900   0.89650479    -6.426087    4067.3207            5 
   38000   0.92689276   -6.4391759    4072.6217            8 
   38100   0.90125598   -6.4593156    4071.2454            7 
   38200   0.91504467   -6.4445974    4072.8345            6 
   38300   0.88660877   -6.4601207    4075.9337            4 
   38400   0.90897505   -6.4569705    4084.4042            5 
   38500   0.87379949   -6.4220426    4089.2372            5 
   38600    0.9071975   -6.4535435    4096.4516            8 
   38700   0.88851729   -6.4333056    4084.7236            6 
   38800   0.89026611    -6.450773    4075.1647            9 
   38900   0.90563876   -6.4570301    4083.7059            6 
   39000   0.90521751   -6.4300808    4080.4323            8 
   39100    0.8978442   -6.4577971    4069.0327            6 
   39200    0.9262666   -6.4593566    4065.9935            3 
   39300   0.90210972   -6.4591826    4067.8271            7 
   39400   0.91158932   -6.4173499      4072.75           14 
   39500   0.88041718   -6.4198724    4072.9321            6 
   39600   0.90528454   -6.4544491    4076.0981            6 
   39700   0.91172791   -6.4454741    4089.3658            6 
   39800   0.89935632   -6.4301855    4083.0058            8 
   39900   0.89888618   -6.4759952    4082.2665            5 
   40000   0.91618029   -6.4673921    4078.6842           14 
   40100   0.88762756   -6.4659349    4083.6114           16 
   40200   0.89656983   -6.4915708    4088.2254           15 
   40300   0.90190146   -6.4501298    4091.5518           19 
   40400   0.89351101   -6.4709059    4085.0456           12 
   40500   0.86503412   -6.4595105    4077.4333           10 
   40600   0.89747694   -6.4574641    4082.4315            6 
   40700   0.89242441   -6.4373195    4079.5003           10 
   40800   0.90157167   -6.4416034    4073.4485           14 
   40900    0.8983643    -6.424853     4072.494            9 
   41000    0.9033745    -6.440466    4078.0669            8 
   41100   0.89519684   -6.4479942    4079.6514           13 
   41200   0.92278583   -6.4476202     4094.277            8 
   41300   0.89720457   -6.4504142    4088.2887            9 
   41400   0.89416035   -6.4442268    4078.7161            7 
   41500   0.88947346   -6.4477062    4071.4783            9 
   41600   0.90908343   -6.4597953    4088.8591           11 
   41700   0.91153372   -6.4418738    4083.1696            9 
   41800   0.89639563   -6.4610661    4081.4699           10 
   41900   0.88489932   -6.4747992    4066.1879           10 
   42000   0.89219676   -6.4573712    4078.7407           17 
   42100   0.91000543   -6.4655986    4069.4537           20 
   42200   0.89928851   -6.4495604    4064.2915           18 
   42300   0.91288376   -6.4474117    4069.3347           26 
   42400   0.90181412   -6.4743069    4073.0047           21 
   42500   0.91039254    -6.484432    4071.9355           21 
   42600   0.91326947   -6.4338977    4084.5124           12 
   42700   0.90639022   -6.4390713    4079.3616           16 
   42800   0.89179429   -6.4521382    4066.6687           18 
   42900    0.9184647   -6.4662059    4069.7583           25 
   43000   0.90719436   -6.4620557    4069.2957           27 
   43100   0.90137018   -6.4628201    4058.7221           18 
   43200   0.91459738   -6.4206853    4065.1536           12 
   43300    0.9071032   -6.4247182    4064.9568           21 
   43400   0.89096626   -6.4540384    4069.4129           16 
   43500    0.9124934   -6.4595055    4078.7385           16 
   43600   0.89387162   -6.4456935    4082.4395           15 
   43700    0.8942771   -6.4297039    4077.6586           13 
   43800   0.91511651   -6.4560414    4083.6417           10 
   43900   0.91455516   -6.4903676    4066.8577           13 
   44000   0.90657091   -6.4720699    4065.7856           17 
   44100   0.90991005   -6.4321643    4079.1524            6 
   44200   0.89681256   -6.4427711     4080.084            7 
   44300   0.89071452   -6.4733964    4082.3769            5 
   44400   0.89197254   -6.4590588    4096.6971            5 
   44500   0.90144885   -6.4448498    4095.8557            5 
   44600   0.90972561   -6.4725341    4085.8198            7 
   44700    0.8799258   -6.4656918    4076.9641            6 
   44800   0.88308008   -6.4648471    4080.9479            7 
   44900    0.8880223   -6.4595225    4086.8991            7 
   45000    0.9109107    -6.467813    4093.8943            4 
   45100   0.88007486   -6.4689885    4088.0555           11 
   45200   0.89696859   -6.4936219    4096.2428            3 
   45300   0.89981468   -6.4333494    4097.5838           10 
   45400   0.88603488   -6.4270843    4087.4801            6 
   45500   0.86636944   -6.4517211     4080.415            8 
   45600   0.88675755   -6.4295031    4086.4294            9 
   45700   0.90785402   -6.4515368    4095.2299            9 
   45800   0.88580901   -6.4598957     4084.475           10 
   45900   0.89915656    -6.447882     4092.241           10 
   46000   0.89855196   -6.4395053    4096.0728            8 
   46100   0.89767419   -6.4588395    4083.3762           11 
   46200   0.90842882   -6.4434548    4070.0564            5 
   46300   0.90469205   -6.4334861    4075.2974           12 
   46400   0.90430717   -6.4511211    4087.1544           20 
   46500   0.88292885   -6.4594232    4077.2814           16 
   46600   0.88779843   -6.4398771    4078.5682           20 
   46700   0.90753721   -6.4597362    4089.3228           17 
   46800   0.90928928   -6.4445101    4099.1131           16 
   46900   0.89760403    -6.455814    4098.0083           11 
   47000    0.8831511   -6.4454647    4092.6622            8 
   47100   0.90410846   -6.4616182    4085.1976           12 
   47200   0.88631738   -6.4376961    4079.3886           20 
   47300   0.90686249   -6.4438517    4089.7358           25 
   47400    0.8779963   -6.4420889    4080.3906           10 
   47500   0.90069799   -6.4632394    4079.3272           11 
   47600   0.89262923   -6.4561083    4074.9234           14 
   47700    0.9110305   -6.4708629    4076.9577           18 
   47800   0.88501838   -6.4589858    4070.6031           15 
   47900   0.89430797   -6.4767822    4079.5402           25 
   48000   0.89976359    -6.458918    4068.5861            7 
   48100   0.90043598   -6.4582631    4072.1493           10 
   48200   0.89411809   -6.4540245    4077.7522            8 
   48300   0.90585939   -6.4489141    4073.8925           18 
   48400   0.91072515   -6.4054399    4072.6338            5 
   48500   0.88866227   -6.4451865    4079.7325            8 
   48600   0.90150247    -6.452165    4085.7015            9 
   48700   0.90472535   -6.4404629    4090.6598            7 
   48800   0.88955052     -6.45204    4078.2564           10 
   48900   0.90006512   -6.4714555    4072.5922            8 
   49000   0.90163012   -6.4373462    4084.4117            8 
   49100   0.90739957   -6.4352158    4079.3366            7 
   49200   0.88709649   -6.4227351    4071.7854            7 
   49300   0.89726576   -6.4616471    4064.2381           10 
   49400   0.89179654   -6.4580295    4073.5825           14 
   49500   0.90728038   -6.4543316    4085.2675            8 
   49600   0.87878021    -6.438718    4084.4607           12 
   49700   0.91444311   -6.4825719    4072.5358           12 
   49800   0.91296295   -6.4345035    4085.7469            7 
   49900   0.89583846   -6.4402009    4083.5526           11 
   50000   0.91734764   -6.4736303    4076.7933           12 
   50100   0.89368534    -6.428258     4072.668           20 
   50200   0.90999155   -6.4227466     4086.241            8 
   50300   0.92099949   -6.4224109    4102.1816           14 
   50400   0.90783157   -6.4342694    4082.2138            9 
   50500   0.89263568   -6.4423136    4071.9761            8 
   50600    0.8931713    -6.437786    4073.7606            8 
   50700   0.91337711   -6.4243039    4082.6342            9 
   50800   0.90215656   -6.4329612    4070.0214           14 
   50900   0.91932184    -6.446738    4072.8604            9 
   51000   0.90670862   -6.4307716    4074.6237           13 
   51100   0.89869558   -6.4253436    4075.1569           11 
   51200   0.90800073   -6.4599194    4084.5981            8 
   51300   0.88823832   -6.4517305    4082.3632            8 
   51400   0.91328636   -6.4538108    4085.4999            9 
   51500   0.87731325   -6.4202601    4079.5458           10 
   51600   0.91336344   -6.4222666    4091.9486            6 
   51700   0.91454246   -6.4442054    4083.3057           13 
   51800   0.89379786   -6.4463183    4081.0994            6 
   51900   0.90546843   -6.4235548    4083.2003           11 
   52000   0.90873013   -6.4344152    4084.9884           17 
   52100   0.92462762   -6.4397718    4084.9687           10 
   52200   0.90227334   -6.4518415    4082.8637           14 
   52300   0.92582446   -6.4334083    4075.5107           10 
   52400   0.91676779   -6.4402215    4075.6728           10 
   52500   0.89280736   -6.4561557    4080.7201           11 
   52600   0.90607193   -6.4705901    4070.0025           10 
   52700   0.89970789   -6.4772356    4067.8764           18 
   52800   0.88794805   -6.4464524    4073.7953           19 
   52900   0.90806276   -6.4664008    4074.6626           12 
   53000   0.89660748   -6.4926677    4061.6904           31 
   53100   0.90436462   -6.4845569    4068.4522            7 
   53200   0.89721619   -6.4855514    4075.7503            6 
   53300   0.90527001   -6.5062405    4064.0942           10 
   53400   0.89764354   -6.4816807    4071.4806           12 
   53500   0.90387932   -6.4490978     4077.748            7 
   53600   0.88874818    -6.469087    4076.0762           13 
   53700   0.92036264    -6.498204    4063.5405           21 
   53800   0.89887024   -6.4772151    4061.5757           13 
   53900   0.92151384   -6.4735513    4072.9813           11 
   54000   0.89520772   -6.4603282    4075.2718            9 
   54100   0.89344924   -6.4526595    4074.5309            8 
   54200   0.92476307    -6.471612    4079.2022           10 
   54300   0.88484751   -6.4450669    4082.0014            7 
   54400   0.89485215    -6.467289    4072.9183           13 
   54500   0.89696648   -6.4696479     4059.506           10 
   54600   0.90445765   -6.4512682    4068.7265           21 
   54700   0.91069781     -6.45988    4083.0778           20 
   54800   0.87624883   -6.4221985    4078.9125           11 
   54900   0.93720178   -6.4664326    4079.0733           16 
   55000   0.89333751   -6.4516816     4073.061           14 
   55100   0.89812754   -6.4639505     4077.819           11 
   55200   0.89472628   -6.4498813    4088.5969            7 
   55300   0.89443998   -6.4853764     4073.321            5 
   55400   0.91073348   -6.4624935    4080.7001           12 
   55500   0.89891769   -6.4633245    4072.4173           14 
   55600   0.89352229   -6.4821208    4071.4634           10 
   55700   0.88940656   -6.4374086    4078.8396            8 
   55800   0.91930717    -6.445729    4090.0355           14 
   55900   0.88895603   -6.4482614    4084.3302           14 
   56000   0.89163388   -6.4404908    4091.1048           11 
   56100   0.90803622   -6.4447817    4093.9781            8 
   56200   0.89496765   -6.4550337    4077.3466           10 
   56300   0.88924666   -6.4550497    4069.3954            8 
   56400   0.90806869   -6.4395681    4073.7604           12 
   56500   0.90509668   -6.4518483    4069.9266            6 
   56600   0.89715638   -6.4632838    4071.8516            5 
   56700   0.89539551   -6.4479882    4076.4337            8 
   56800   0.89997497   -6.4519661    4072.7537           13 
   56900   0.89237841   -6.4808483    4070.0628           14 
   57000   0.90618212     -6.44933     4080.204            6 
   57100   0.89586095   -6.4457065     4081.553            8 
   57200   0.92494465   -6.4365484    4076.5074            7 
   57300   0.89686737   -6.4246309    4070.1953           14 
   57400   0.90182118   -6.4427516    4071.0951           12 
   57500     0.922954   -6.4285802    4081.0872           10 
   57600   0.89893103   -6.4380071    4074.5751            9 
   57700   0.91387729   -6.4966898    4068.2111            9 
   57800   0.89808786   -6.4702702    4068.3257           18 
   57900   0.90560884   -6.4729884    4068.6915            7 
   58000   0.89798258    -6.456853    4065.9544           11 
   58100   0.91050112   -6.4446592    4080.4828           24 
   58200   0.89089775   -6.4793433    4075.2413           11 
   58300   0.90112808   -6.4798524    4084.4927           12 
   58400   0.89865454    -6.455085    4077.7142           11 
   58500   0.88133287   -6.4447995     4077.558           15 
   58600   0.90704024   -6.4256411    4081.8639           24 
   58700   0.90356145   -6.4499235    4083.3341           18 
   58800   0.91080992   -6.4762827    4078.3415           18 
   58900   0.90027614   -6.4770149     4062.358           14 
   59000   0.89417679   -6.4305516    4074.5568            6 
   59100   0.90547625   -6.4242966    4080.3774            9 
   59200   0.88122573   -6.4506317    4073.7483            8 
   59300   0.89662776   -6.4645073    4071.9809            5 
   59400   0.91787746   -6.4480601    4073.9967           10 
   59500   0.90785217   -6.4537828     4076.716            9 
   59600   0.92591573   -6.4247354    4084.4596            7 
   59700   0.91196911   -6.4341202    4066.6334            8 
   59800   0.90726048    -6.433327    4064.2843            5 
   59900   0.90021756   -6.4671695    4069.6435            8 
   60000   0.89401286   -6.4724265    4057.1147           14 
   60100   0.91243992   -6.4580772    4061.3506           16 
   60200   0.90960766   -6.4562951    4082.8764           10 
   60300   0.89631392   -6.4311283    4093.6476           13 
   60400   0.89326779   -6.4511155    4087.5359           16 
   60500   0.89864865    -6.474284    4086.6281           10 
   60600    0.8904581   -6.4667338    4090.1101           10 
   60700    0.9124399   -6.4472384    4091.1375           14 
   60800   0.89816609   -6.4680687    4087.6086           19 
   60900   0.87083072   -6.4496957    4080.9658           10 
   61000   0.90671145   -6.4532548    4084.8131           27 
   61100   0.90259195   -6.4909119    4087.4254           10 
   61200   0.88812582   -6.4914612    4079.6933            8 
   61300   0.88828147   -6.4973086    4083.6779            7 
   61400   0.89229395   -6.4638237    4086.8531           18 
   61500   0.90010596   -6.4560986    4086.6053            6 
   61600   0.90049971   -6.4417386    4082.1934            7 
   61700   0.90643027   -6.4756531    4067.9132           10 
   61800   0.88618571   -6.4807351    4065.0797            5 
   61900   0.89245578   -6.4560628    4077.5611            7 
   62000   0.89446782   -6.4478241    4076.4221            8 
   62100   0.87630922   -6.4696728    4067.5339           11 
   62200   0.90053865   -6.4958981    4070.5289            9 
   62300   0.90305452   -6.4767141    4077.1115           11 
   62400   0.92530289     -6.47028    4086.9211           16 
   62500   0.90233397   -6.4257971    4087.8907           18 
   62600   0.89265773   -6.4452785    4079.3469            7 
   62700   0.90301903   -6.4859168     4079.446            8 
   62800   0.89485321   -6.4818856    4068.4779           16 
   62900    0.9168309   -6.4803633    4074.8163            8 
   63000   0.89985124   -6.4654802    4076.0015            6 
   63100   0.90730498   -6.4747581    4061.7988            7 
   63200    0.8961822   -6.4925735    4063.8368           11 
   63300   0.90157351   -6.4565162    4068.4223            9 
   63400   0.90090079   -6.4572849     4065.033            8 
   63500   0.89871625    -6.457499    4063.8611           14 
   63600   0.90468413   -6.4406236    4075.3999           14 
   63700   0.89828014   -6.4618913    4068.2291           12 
   63800   0.89645004   -6.4751693    4069.9067           25 
   63900   0.89378146   -6.4676023    4084.0343           20 
   64000   0.89943786   -6.4941612    4089.4299           25 
   64100   0.90967809   -6.4878291    4080.3666           15 
   64200   0.91105383   -6.4575994    4082.8246           10 
   64300   0.92378326    -6.437149     4076.588           10 
   64400   0.90477939    -6.467703    4065.7053           18 
   64500   0.89292436   -6.4713509     4066.517            9 
   64600   0.90852759   -6.4694212    4080.2195            8 
   64700   0.89998659   -6.4872024    4080.0786           11 
   64800   0.89240855   -6.4880709    4067.4228            6 
   64900   0.91645249   -6.4862609    4073.9722            9 
   65000   0.89604051   -6.4769083    4069.5834           13 
   65100   0.89422997   -6.4624488    4067.8453           24 
   65200   0.90387735   -6.4376618    4077.2119           10 
   65300   0.89253188   -6.4650658    4078.6381           14 
   65400   0.88491596   -6.4971515    4080.2802            5 
   65500    0.8940514   -6.4621193    4080.2598           10 
   65600   0.89074034   -6.4409187    4084.8784            6 
   65700   0.88173835   -6.4527303    4087.3504            6 
   65800   0.86735889   -6.4576109    4093.5735            5 
   65900   0.89131853   -6.4408929    4093.6533            5 
   66000   0.89039215   -6.4705226    4087.5193            8 
   66100   0.88002721   -6.4457934    4074.4561           11 
   66200   0.93663255   -6.4961061    4082.2438            7 
   66300   0.89482747    -6.458096    4078.7213            9 
   66400   0.88984646   -6.4567031    4079.3188            8 
   66500   0.90329178   -6.4446255    4078.2092            7 
   66600   0.88523951   -6.4676642     4080.607            9 
   66700    0.9066398   -6.4464757    4087.5315            7 
   66800   0.88745724   -6.4278504    4091.5732           13 
   66900   0.90087766   -6.4727061    4091.7439            6 
   67000   0.89486206   -6.4396108    4077.2526            6 
   67100   0.91388457   -6.4442835    4086.7971            6 
   67200   0.89388219   -6.4383788    4075.0166            8 
   67300   0.90535889   -6.4754134    4073.8694            8 
   67400   0.88030143   -6.4730268    4073.4836            8 
   67500   0.90688329   -6.4755177    4086.6415            6 
   67600    0.8879181   -6.4392612    4083.2453           15 
   67700   0.90561623    -6.415913    4072.9924           13 
   67800   0.91019708   -6.4287986    4082.1256           10 
   67900   0.89736124   -6.4372295    4065.7726           18 
   68000   0.93772765   -6.4601118    4080.1666           10 
   68100   0.90604422   -6.4477432    4083.0972           10 
   68200   0.89808685   -6.4505443    4071.9982           13 
   68300   0.89962195   -6.4473565    4079.7714           14 
   68400   0.89029218   -6.4211715    4084.8262            6 
   68500   0.89552508   -6.4284199    4081.3682            8 
   68600   0.90863872   -6.4797497    4068.8963            8 
   68700   0.90540434   -6.4665204    4070.3555            5 
   68800   0.90707941   -6.4728872    4075.4899            4 
   68900   0.91014356   -6.4436047    4086.1732            6 
   69000   0.89082333   -6.4294459    4086.3972            6 
   69100   0.93576334   -6.4441908    4081.5076           12 
   69200   0.90892047    -6.440336    4083.1791           10 
   69300   0.89367074   -6.4341713    4077.5627            4 
   69400   0.88441614   -6.4532062    4067.6454            6 
   69500   0.90425734   -6.4376591    4082.1873            8 
   69600    0.9042393   -6.4602806    4077.0614           24 
   69700   0.90877227   -6.4620404    4076.5661           11 
   69800   0.90921898   -6.4566189     4083.862            9 
   69900   0.89916091   -6.4198821    4076.9353           10 
   70000   0.89243699   -6.4500759    4072.7231            6 
   70100   0.91645983   -6.4492639    4079.5363           12 
   70200   0.90971045   -6.4166305    4087.3848            8 
   70300   0.91005015   -6.4484334    4079.4446           10 
   70400   0.89941534   -6.4463582    4086.8582           14 
   70500   0.90181125   -6.4300935    4090.7577            6 
   70600   0.89452784   -6.4558227     4076.014           12 
   70700   0.91333053   -6.4620826    4077.0073            8 
   70800   0.91377443   -6.4539804    4083.2212           15 
   70900   0.87580074   -6.4218982    4078.7591           11 
   71000   0.90972959    -6.463081    4085.5299           21 
   71100   0.89892758   -6.4784592    4083.6489           12 
   71200    0.8939605   -6.5079482    4065.0464           14 
   71300   0.89128564   -6.4676585    4066.5273            9 
   71400   0.90400361   -6.4680168    4070.5785           10 
   71500   0.89330191   -6.4847991    4070.9559           10 
   71600   0.88752537   -6.4943234    4051.6938            9 
   71700   0.90042122   -6.4685955    4068.1167           10 
   71800   0.91445779     -6.47586    4066.7987           11 
   71900   0.90044069   -6.4920549      4065.76            7 
   72000   0.90724343   -6.4557644    4068.1875           20 
   72100   0.90683591   -6.4527965     4072.945           23 
   72200   0.90470137   -6.4479673    4076.4966           12 
   72300   0.88397827   -6.4483265    4065.8648           16 
   72400   0.90258293   -6.4535355    4077.3514           15 
   72500   0.91083818   -6.4570751    4082.7338            6 
   72600     0.892304   -6.4741144    4072.9149            7 
   72700   0.89736442   -6.4627118    4071.7872            6 
   72800   0.90307211    -6.445844    4081.0754           10 
   72900   0.91432933   -6.4580864    4088.3457            7 
   73000    0.9001387   -6.4830508    4077.3609            7 
   73100   0.89838177   -6.4921222    4079.8953            8 
   73200    0.8988527   -6.4537322    4079.1391            8 
   73300   0.90550065   -6.4746493    4075.6478           13 
   73400   0.88179235   -6.4739651    4068.1789           10 
   73500   0.89829055   -6.4528635    4062.9652            8 
   73600   0.91010166   -6.4505434    4062.5014           17 
   73700   0.89817389   -6.4810049    4062.6585            7 
   73800    0.8931285   -6.4465189    4073.1894            8 
   73900   0.89788733   -6.4665761    4088.3477            8 
   74000   0.88774812   -6.4803041    4081.2995            9 
   74100   0.88470489   -6.4881537    4070.9893            8 
   74200   0.90349633   -6.4670821    4063.7772           21 
   74300   0.89015954   -6.4716677    4061.9535           19 
   74400   0.90902674   -6.4902678    4067.0355            8 
   74500   0.90241435   -6.4714655    4072.6309            6 
   74600    0.8603243   -6.4648551    4067.4105           14 
   74700   0.89577241   -6.4880181     4079.111           11 
   74800   0.90080256   -6.4573333    4080.6143           17 
   74900   0.88253853   -6.4618357    4080.6578           11 
   75000   0.87861067   -6.4566635    4085.3454            6 
   75100   0.88768753   -6.4422269    4090.0758            7 
   75200   0.91158841   -6.4716978    4086.7552            8 
   75300   0.89956821   -6.4712669    4077.8405           11 
   75400   0.89688274   -6.4409085    4073.0288           18 
   75500   0.89964023    -6.437253    4070.2288           20 
   75600   0.89036843    -6.441255    4065.6317           14 
   75700    0.9110327   -6.4670155     4050.034            6 
   75800   0.91658688   -6.4466708    4064.9333           12 
   75900   0.91985433   -6.4525479    4076.4652           17 
   76000    0.8881604   -6.4617628    4075.7627           11 
   76100   0.89994252   -6.4781661    4077.2517           30 
   76200   0.90853634   -6.4601921    4075.8661           17 
   76300   0.91172302   -6.4374007    4076.6052            9 
   76400   0.87807772   -6.4266868     4067.539           27 
   76500   0.88895862   -6.4344553    4072.5525            6 
   76600    0.9116676   -6.4482922    4075.7405            8 
   76700   0.89126036   -6.4556318    4069.8222           16 
   76800   0.90520199   -6.4762573    4077.7252           11 
   76900   0.91657267   -6.4587359    4080.4296           13 
   77000   0.89867319   -6.4628489    4079.8862           11 
   77100   0.89752734   -6.4583995    4075.2631            8 
   77200   0.91478611   -6.4425472    4082.4823            9 
   77300   0.89795285   -6.4379841    4082.5274           10 
   77400   0.88205262   -6.4445716    4073.2369           13 
   77500   0.90741604   -6.4516826    4080.9184           11 
   77600    0.8941186   -6.4633003    4090.3481           13 
   77700   0.90064124   -6.4561913    4090.0725            5 
   77800   0.88044572   -6.4511194    4078.0145            3 
   77900   0.89437798   -6.4481214    4073.0733            6 
   78000   0.90395141   -6.4337104    4074.5689           16 
   78100   0.91987105   -6.4546081    4079.3397           15 
   78200   0.90044959    -6.463544     4066.032           12 
   78300   0.88441118   -6.4721567    4069.7702           19 
   78400   0.90353528   -6.4537282     4072.638           13 
   78500   0.89325244   -6.4514451     4074.142           20 
   78600   0.88890842   -6.4762143    4074.5654           20 
   78700   0.90109535   -6.4475067    4079.1122           10 
   78800   0.90584764   -6.4593608    4081.2516           13 
   78900   0.88787717   -6.4632619    4069.6094            4 
   79000   0.90833855   -6.4541967    4082.0546           10 
   79100   0.91646187   -6.4440202    4073.9054           14 
   79200   0.89553587   -6.4415385    4071.7899            5 
   79300   0.91960451   -6.4646367    4069.2398           11 
   79400   0.89258389   -6.4723138    4062.2675            9 
   79500    0.8940403   -6.4636385    4074.9691            7 
   79600   0.90556274   -6.4507766    4103.1759            3 
   79700   0.89704465   -6.4654554    4093.7468            8 
   79800   0.88131675   -6.4502723    4088.9575           12 
   79900   0.91937833   -6.4595886    4092.2527           13 
   80000   0.90137662   -6.4605132    4083.9604            8 
   80100   0.89255739   -6.4612965    4082.7561            5 
   80200   0.89154988   -6.4317307    4097.7283           12 
   80300   0.89034248   -6.4334528    4095.8591           13 
   80400   0.89965846   -6.4695156    4071.0773           14 
   80500   0.89278616   -6.4659414    4076.2233           14 
   80600   0.89455347   -6.4464025    4079.2179           22 
   80700   0.91453647   -6.4624448    4070.3439            7 
   80800   0.89074711   -6.4598128     4064.686           15 
   80900   0.91673462   -6.4688075    4072.7553           26 
   81000   0.90156755   -6.4394048    4072.3991           13 
   81100   0.90112348   -6.4758658    4051.1838           25 
   81200   0.90380239   -6.4651561    4067.2011           18 
   81300   0.91146197   -6.4665202    4075.5305           11 
   81400   0.88051433   -6.4700963    4071.5012           10 
   81500   0.88312479   -6.4652038    4075.5735            7 
   81600   0.90973071   -6.4640768    4084.4903            9 
   81700   0.89690274   -6.4711061    4089.7122           12 
   81800   0.89676822   -6.4782448    4089.4597           12 
   81900   0.91207234   -6.4665086    4078.4158           14 
   82000   0.92436899   -6.4488216    4090.5461           17 
   82100   0.89642101    -6.447691    4086.5317           24 
   82200   0.89280468   -6.4730614    4073.5795           32 
   82300   0.90232605   -6.4587719    4074.3031            7 
   82400   0.89913722   -6.4485625    4070.4786           13 
   82500   0.90432694   -6.4867027    4068.2709           24 
   82600   0.89927496    -6.463475    4071.5614            9 
   82700   0.90525076   -6.4615385    4074.8819           22 
   82800   0.89002857   -6.4730967    4067.5467           12 
   82900   0.89436623   -6.4631474    4064.9437           10 
   83000   0.89677938   -6.4684514    4071.5211           12 
   83100   0.92095276   -6.4565818    4071.7136            9 
   83200   0.90512256   -6.4293776    4077.0894           11 
   83300   0.89973391   -6.4600713    4064.8475           11 
   83400   0.90909896   -6.4662257    4071.5523           20 
   83500   0.90727026   -6.4251902    4073.7374           13 
   83600   0.89365951   -6.4123419    4071.0522            8 
   83700   0.92162436   -6.4793307    4070.4444           15 
   83800   0.90432679    -6.496491    4072.1176           20 
   83900   0.88366768   -6.4901354    4060.2675           22 
   84000   0.90383181   -6.4718224    4075.9264           13 
   84100   0.90881679   -6.4656912    4080.5762            9 
   84200   0.89013575   -6.4682479    4071.5565           16 
   84300   0.88144747   -6.4608001    4069.8327           12 
   84400   0.89964834   -6.4529565    4083.4368            8 
   84500   0.89696978   -6.4550022    4082.9723           13 
   84600   0.88227453   -6.4586374    4069.2737           10 
   84700   0.92001274   -6.4488935    4077.2758           16 
   84800     0.914489   -6.4573882    4069.9892           20 
   84900    0.9050904   -6.4714214    4054.0036           35 
   85000   0.90982146   -6.4632861     4053.483           25 
   85100   0.91698259   -6.4499008    4057.6425           20 
   85200   0.89503193   -6.4473901     4073.452           13 
   85300   0.89476418   -6.4519006    4075.9589           17 
   85400   0.88030213   -6.4699185     4074.382           17 
   85500    0.8738307   -6.4591885    4072.8921           12 
   85600   0.90671297   -6.4697125    4085.8399            8 
   85700   0.88438922   -6.4506143    4084.9703           10 
   85800   0.88259545   -6.4338107    4081.8264           15 
   85900   0.90964248   -6.4457336    4084.5325           17 
   86000   0.89893176   -6.4550512    4076.3908           21 
   86100   0.91584376   -6.4853577    4069.7387            6 
   86200    0.9032805   -6.4752459    4076.6669            8 
   86300   0.89644553   -6.4694185    4078.5277           13 
   86400    0.8855625   -6.4736137    4072.0596           18 
   86500   0.90056628   -6.4564107    4081.9243           15 
   86600   0.88081219   -6.4729101     4080.593           12 
   86700   0.90220765   -6.4755796    4077.2242           17 
   86800   0.89913785    -6.450419    4081.4858           13 
   86900   0.90536476   -6.4645681    4081.1836            9 
   87000   0.89142738   -6.4574773    4075.2409           18 
   87100   0.87637574   -6.4570755    4077.8991           20 
   87200   0.90117001   -6.4592099    4075.8698           12 
   87300   0.91345167   -6.4344425      4084.16            9 
   87400   0.91631625   -6.4681884    4084.0358           19 
   87500   0.90238587   -6.4581447    4070.9871           22 
   87600   0.90281991   -6.4621673    4061.6981           32 
   87700   0.91080357   -6.4224868    4084.7091           34 
   87800   0.90860392   -6.4460221    4078.7471           27 
   87900   0.89509168   -6.4526775    4066.3108           14 
   88000   0.88466984   -6.4794947    4062.3517           17 
   88100   0.89620195   -6.4898334    4063.2076           13 
   88200   0.89811558   -6.4582911      4077.27           11 
   88300   0.90866121   -6.4548884    4077.9872           20 
   88400    0.8840193    -6.459443    4071.4167           21 
   88500   0.88936798   -6.4407788    4070.7267           41 
   88600   0.88206316   -6.4459872    4074.8068           31 
   88700   0.92870481   -6.4771124    4064.5377           20 
   88800    0.9066145   -6.4734674      4063.22           15 
   88900   0.88418464   -6.4629438     4067.908           11 
   89000    0.8989096   -6.4546564    4075.4954           14 
   89100   0.91324782   -6.4496602    4077.2373           14 
   89200    0.9017467   -6.4521465    4073.1266           23 
   89300   0.89854358   -6.4837303    4074.0268           10 
   89400   0.88590406   -6.4345924    4079.3909            9 
   89500   0.89113609   -6.4518055    4094.3023            7 
   89600    0.9006036     -6.45004    4093.1332            5 
   89700   0.91433767   -6.4611062    4081.3492            7 
   89800   0.89127156   -6.4501149    4078.1053           13 
   89900   0.91996184   -6.4615707    4075.9228            6 
   90000   0.88601778   -6.4518526    4079.2113            8 
   90100   0.88970053   -6.4385163    4083.7525            7 
   90200   0.92097204   -6.4411231    4091.4645           23 
   90300   0.89006409   -6.4464884    4089.9714            9 
   90400   0.90519625   -6.4492868     4089.982            4 
   90500   0.88839627   -6.4302278    4098.2594            9 
   90600   0.90023888   -6.4787662    4074.0298            9 
   90700   0.90003481   -6.4725692    4079.4175            5 
   90800   0.90829094   -6.4538385     4092.508            4 
   90900   0.89798228   -6.4623031    4086.0602           12 
   91000   0.89339746   -6.4533686    4076.8252           11 
   91100   0.89461561    -6.468807    4073.5128           11 
   91200   0.88957463   -6.4683179    4071.9714            8 
   91300   0.89810551   -6.4606139    4072.3025           13 
   91400   0.88511004   -6.4863293    4067.9475           19 
   91500   0.89897775   -6.4795594    4070.3571           15 
   91600    0.8960661   -6.4693788    4084.0821           11 
   91700   0.90870042   -6.4530477    4089.8344           16 
   91800   0.91411273   -6.4844586    4083.9718           16 
   91900   0.89623687   -6.4669355    4076.0788           19 
   92000   0.90682176   -6.4804892    4069.9971           10 
   92100   0.89128067   -6.4919936    4066.6804           11 
   92200   0.88570776   -6.4325611    4069.4424            8 
   92300    0.9051624   -6.4538668    4085.1808           10 
   92400   0.88368703   -6.4552252     4089.074            7 
   92500   0.89472188   -6.4684557    4075.1564           14 
   92600   0.88550932   -6.4573971    4079.6504           16 
   92700   0.89272991   -6.4516918    4085.1664           19 
   92800   0.89576859   -6.4151263    4093.9743           13 
   92900   0.91207253   -6.4489601    4093.4539           23 
   93000   0.89196194   -6.4476649    4082.3534           13 
   93100   0.88092776   -6.4586637    4078.4717            7 
   93200   0.90888094   -6.4783539    4077.3661           17 
   93300   0.90568882   -6.4460367    4082.3636           10 
   93400   0.88789716   -6.4705166    4077.0574           33 
   93500   0.91571623   -6.4591373    4066.2119           11 
   93600    0.8996549   -6.4529622    4064.8901           12 
   93700   0.89512109   -6.4496922    4068.4235           12 
   93800   0.89964172   -6.4691484    4068.2829           30 
   93900   0.89818083   -6.4759213    4082.3862           25 
   94000   0.90155787   -6.4644053    4091.9862           16 
   94100   0.87764203   -6.4492088    4083.4154           14 
   94200    0.8790046   -6.4826747    4078.1329           18 
   94300   0.89472489   -6.4660823    4070.3052            9 
   94400   0.89124863   -6.4564904    4075.8658            6 
   94500   0.89945452   -6.4347105    4083.8338           15 
   94600   0.91835974   -6.4434897    4090.9886           14 
   94700   0.89865705   -6.4750669     4084.729           23 
   94800   0.89363425   -6.4879568    4074.5641           13 
   94900   0.86719408   -6.4676792    4074.8383           10 
   95000   0.91234963   -6.4887627    4075.9572           14 
   95100   0.89277522   -6.4749079    4073.7142           14 
   95200   0.91349467   -6.4526867    4071.8514           15 
   95300   0.89470766   -6.4465508    4063.4797            9 
   95400   0.89792796   -6.4718318    4058.8105           16 
   95500   0.91213504     -6.45537    4065.9782           14 
   95600   0.91487715   -6.4840787    4076.0813           13 
   95700   0.88593369   -6.4677215    4069.8913           10 
   95800   0.91591813   -6.4746715    4085.1991            7 
   95900   0.90529554   -6.4732269    4090.4573           16 
   96000   0.90710194   -6.4862827    4076.8865           20 
   96100   0.88205536    -6.475117    4067.5131           35 
   96200   0.89441463   -6.4599211    4078.9843           27 
   96300   0.90371623   -6.4604003    4083.2771           29 
   96400   0.90675389   -6.4573546    4074.9598           14 
   96500   0.90142579   -6.4502449    4073.6939           12 
   96600   0.89605298   -6.4626128    4085.5403           14 
   96700    0.9113638   -6.4437846    4091.7339            9 
   96800   0.91086511   -6.4558034    4076.9498           11 
   96900   0.90601672   -6.4719562    4069.6053           10 
   97000    0.8999232   -6.4524759    4073.3405           15 
   97100   0.89834479    -6.437622    4079.4618           18 
   97200   0.91345633   -6.4678865    4074.7606           13 
   97300   0.89207265   -6.4121601    4082.8714           13 
   97400   0.88686865   -6.4564134    4072.7074           17 
   97500   0.88933518   -6.4465964    4087.4676            8 
   97600   0.90421356   -6.4401237    4085.8557           18 
   97700   0.91712716   -6.4508032    4075.1895           10 
   97800   0.88382466   -6.4538568    4072.7736            8 
   97900   0.91257118    -6.458921    4084.9001           14 
   98000   0.90301645   -6.4624694    4075.2987            9 
   98100   0.90524098   -6.4932947    4075.4452           10 
   98200   0.89346602    -6.422454    4081.4206            6 
   98300   0.89702302   -6.4367205    4083.3734           10 
   98400   0.87630675   -6.4643578    4070.4909           12 
   98500   0.91155512   -6.4888348     4073.047            6 
   98600   0.90049632   -6.4413412    4076.0035            9 
   98700   0.89682517   -6.4318302    4080.4417           16 
   98800   0.91098402   -6.4780623    4072.6425            9 
   98900   0.90478676   -6.4778194    4072.4886            7 
   99000     0.907747   -6.4576972    4092.3881           11 
   99100   0.89811196   -6.4563131    4087.5713           14 
   99200   0.90261863   -6.4831983    4091.0548           18 
   99300   0.88795537   -6.4773596    4094.7052           11 
   99400   0.89021331   -6.4676009    4084.7479           21 
   99500   0.91425611   -6.4584084    4079.0464            7 
   99600   0.87691432   -6.4571529    4081.4835           13 
   99700   0.89817436   -6.4618788    4079.5471           10 
   99800   0.90325072   -6.4540491    4088.9406           11 
   99900   0.89501671   -6.4914018    4081.7135           14 
  100000   0.90206897   -6.4728753    4078.8832            5 
  100100   0.91162626   -6.4508224    4093.7372            7 
  100200   0.90578987   -6.4432785    4090.4532           18 
  100300   0.88542855    -6.441672    4086.1588           12 
  100400   0.89176632   -6.4833888    4096.3115           19 
  100500   0.88904078   -6.4579718     4093.697           14 
  100600   0.87822643   -6.4780687    4081.5969            9 
  100700   0.90550362   -6.4865992    4070.0447           14 
  100800   0.89884125   -6.4568586    4068.9284           13 
  100900   0.89102962   -6.4313249    4079.0255           10 
  101000   0.89473786    -6.491292     4069.941           12 
  101100   0.90276782   -6.4727163    4065.2215           13 
  101200   0.89742683   -6.4340512    4089.8197           10 
  101300   0.92074582      -6.4508    4087.7398            7 
  101400   0.89418867   -6.4454378    4074.5619           15 
  101500   0.90385754   -6.4628489    4070.8143            5 
  101600   0.90786769    -6.454276    4076.0386           13 
  101700   0.92381722   -6.4478541    4080.7914           10 
  101800   0.90684208   -6.4674442    4069.9256            7 
  101900   0.89593151   -6.4554417    4071.0924           10 
  102000   0.89874443    -6.492799    4082.5332            7 
  102100   0.88351878   -6.4696744    4081.7539            4 
  102200   0.89997348   -6.4750995    4087.6793            5 
  102300   0.90337487   -6.4367951    4085.0599            7 
  102400   0.92803152   -6.4233037    4083.2678            5 
  102500   0.90756767   -6.4440136     4076.174            3 
  102600   0.90687588   -6.4546275     4074.847            6 
  102700   0.90703572   -6.4197715    4075.8518            8 
  102800   0.90265073   -6.4422409     4072.632           12 
  102900   0.91022376   -6.4868143    4070.8224            6 
  103000   0.88451751   -6.4939265    4066.1355            9 
  103100   0.91033513   -6.4850976    4080.9552            6 
  103200   0.88487918   -6.4717985    4075.9213           19 
  103300   0.90340081   -6.4674775    4077.9642           17 
  103400   0.89889031   -6.4483595    4081.9191           10 
  103500   0.91681136   -6.4337921    4084.9545            7 
  103600   0.90173623   -6.4430702    4075.4125            5 
  103700   0.89466924   -6.4533701    4066.1836            5 
  103800   0.88780244   -6.4518255    4063.8498            3 
  103900   0.91198381   -6.4519528    4067.1646            7 
  104000    0.9028375   -6.4592568    4061.0934            6 
Loop time of 337.789 on 20 procs for 100000 steps with 4000 atoms

Performance: 51156.218 tau/day, 296.043 timesteps/s
99.9% CPU use with 20 MPI tasks x no OpenMP threads

MPI task timing breakdown:
Section |  min time  |  avg time  |  max time  |%varavg| %total
---------------------------------------------------------------
Pair    | 29.691     | 31.698     | 33.339     |  20.2 |  9.38
Neigh   | 3.4628     | 3.5996     | 3.6855     |   3.9 |  1.07
Comm    | 14.039     | 15.54      | 18.471     |  33.7 |  4.60
Output  | 6.0244     | 6.0267     | 6.043      |   0.2 |  1.78
Modify  | 275.26     | 277.55     | 278.95     |   6.5 | 82.17
Other   |            | 3.379      |            |       |  1.00

Nlocal:        200.000 ave         208 max         194 min
Histogram: 4 1 2 0 3 6 1 1 1 1
Nghost:        2388.00 ave        2403 max        2367 min
Histogram: 1 1 0 6 1 1 1 4 1 4
Neighs:        22556.5 ave       23870 max       20994 min
Histogram: 2 2 0 2 4 1 2 2 1 4
FullNghs:      45115.3 ave       46782 max       43406 min
Histogram: 1 3 2 0 1 6 3 1 1 2

Total # of neighbors = 902306
Ave neighs/atom = 225.57650
Neighbor list builds = 5680
Dangerous builds = 0

#clear
#
#next RN
#
#jump SELF
Total wall time: 0:05:39
