
units lj                  # Use reduced LJ style units
atom_style atomic         # Uncharged point particles
atom_modify map hash      # Needed for indexing of clusters etc
                          # Used to be able to find where atoms are in relation to each other.

lattice fcc 1.0 spacing 1 1 1
Lattice spacing in x,y,z = 1.5874011 1.5874011 1.5874011
region box block 0 10 0 10 0 10 units lattice
create_box 2 box
Created orthogonal box = (0.0000000 0.0000000 0.0000000) to (15.874011 15.874011 15.874011)
  3 by 4 by 4 MPI processor grid
create_atoms 1 box
Created 4000 atoms
  using lattice units in orthogonal box = (0.0000000 0.0000000 0.0000000) to (15.874011 15.874011 15.874011)
  create_atoms CPU = 0.026 seconds
set type 1 type/fraction 2 0.24 78393
Setting atom values ...
  997 settings made for type/fraction
mass 1 1.0
mass 2 1.0
pair_style lj/cut  3.5
pair_modify tail  yes
pair_coeff 1  1  1.0  1.0   # Intearaction between 1 and 1 set with epsilon = 1 and sigma = 1
pair_coeff 1  2  1.5  0.8
pair_coeff 2  2  0.5  0.88

write_data data.0
System init for write_data ...
Neighbor list info ...
  update every 1 steps, delay 10 steps, check yes
  max neighbors/atom: 2000, page size: 100000
  master list distance cutoff = 3.8
  ghost atom cutoff = 3.8
  binsize = 1.9, bins = 9 9 9
  1 neighbor lists, perpetual/occasional/extra = 1 0 0
  (1) pair lj/cut, perpetual
      attributes: half, newton on
      pair build: half/bin/atomonly/newton
      stencil: half/bin/3d
      bin: standard
WARNING: Not all mixed pair coeffs generated from mixing. Use write_data with 'pair ij' option to store all pair coeffs. (../write_data.cpp:312)


#############################
#   M E L T   S Y S T E M   #
#############################

velocity all create 2.4 6229865 mom yes dist gaussian # Assign velocities
                                                    # Temperature 2.4, random number seed, zero linear momentum
                                                                                # Gaussian distribution

timestep 0.002   # simulation timestep
thermo 1000       # output thermodynamic data every 1000 steps bf 100

# Define a fix  in this case with index 1 applied to all
# particles in the simulation. This fix is for simulations
# in the anisotropic NPT ensemble. Note that we use the MTK
# correction.
fix 1 all npt temp 2.4 2.4 0.1 iso 5.68 5.68 0.5 mtk yes tchain 5 pchain 5 # Use NPT ensemble
                                                                         # Set temperature and pressure and damping
                                                                         # Numbers of thermostats in chain and in barostat
run 10000          # run for 10000 steps
Per MPI rank memory allocation (min/avg/max) = 3.642 | 3.644 | 3.648 Mbytes
Step Temp E_pair E_mol TotEng Press Volume 
       0          2.4   -6.7864136            0   -3.1873136   -3.7949501         4000 
    1000    2.4297132   -4.9273323            0   -1.2836737    5.7508622    4313.2456 
    2000     2.398713   -4.9092668            0   -1.3120969    5.8886484    4317.5823 
    3000    2.4194383   -4.9524448            0   -1.3241947    5.4716875     4336.973 
    4000    2.3784773   -4.8723005            0   -1.3054765    5.6844714    4344.2188 
    5000    2.4939118   -4.8734874            0   -1.1335548    5.8393421     4343.996 
    6000    2.3898552   -4.9307889            0   -1.3469024    5.8644023    4301.9455 
    7000    2.3981961   -4.9176237            0   -1.3212288    5.7743248    4315.9025 
    8000    2.3693978   -4.9097083            0   -1.3565001    5.9284009    4302.9403 
    9000    2.4248495   -4.8864068            0   -1.2500419    5.4874023    4358.5238 
   10000    2.3881694   -4.9443872            0   -1.3630286     5.620758     4322.199 
Loop time of 2.38281 on 48 procs for 10000 steps with 4000 atoms

Performance: 725193.592 tau/day, 4196.722 timesteps/s
99.6% CPU use with 48 MPI tasks x no OpenMP threads

MPI task timing breakdown:
Section |  min time  |  avg time  |  max time  |%varavg| %total
---------------------------------------------------------------
Pair    | 0.9875     | 1.07       | 1.2462     |   4.4 | 44.90
Neigh   | 0.19547    | 0.20773    | 0.2363     |   1.6 |  8.72
Comm    | 0.67106    | 0.84449    | 0.91875    |   5.4 | 35.44
Output  | 0.00023786 | 0.00024295 | 0.00031231 |   0.0 |  0.01
Modify  | 0.2134     | 0.24556    | 0.30308    |   5.1 | 10.31
Other   |            | 0.01481    |            |       |  0.62

Nlocal:        83.3333 ave          94 max          74 min
Histogram: 2 6 3 7 5 7 7 8 1 2
Nghost:        1566.62 ave        1599 max        1539 min
Histogram: 1 6 4 6 14 4 4 6 2 1
Neighs:        8838.10 ave        9964 max        7627 min
Histogram: 3 4 5 4 5 6 10 5 2 4

Total # of neighbors = 424229
Ave neighs/atom = 106.05725
Neighbor list builds = 907
Dangerous builds = 196

# Equilibrate just above the melting temperature to avoid step fn in T

fix 1 all npt temp 1.25 1.25 0.1 iso 5.68 5.68 0.5 mtk yes tchain 5 pchain 5
run 2000
Per MPI rank memory allocation (min/avg/max) = 3.643 | 3.645 | 3.649 Mbytes
Step Temp E_pair E_mol TotEng Press Volume 
   10000    2.3881694   -4.9443872            0   -1.3630286     5.620758     4322.199 
   11000    1.2365226    -6.599578            0   -4.7452579     5.683781    3538.5223 
   12000    1.2360842   -6.7519949            0   -4.8983322    5.1791178    3518.2628 
Loop time of 0.514091 on 48 procs for 2000 steps with 4000 atoms

Performance: 672255.075 tau/day, 3890.365 timesteps/s
99.7% CPU use with 48 MPI tasks x no OpenMP threads

MPI task timing breakdown:
Section |  min time  |  avg time  |  max time  |%varavg| %total
---------------------------------------------------------------
Pair    | 0.23683    | 0.25439    | 0.28157    |   2.0 | 49.48
Neigh   | 0.033261   | 0.035174   | 0.037235   |   0.5 |  6.84
Comm    | 0.14051    | 0.17391    | 0.19043    |   2.6 | 33.83
Output  | 5.0378e-05 | 5.1588e-05 | 6.6902e-05 |   0.0 |  0.01
Modify  | 0.042499   | 0.04599    | 0.051963   |   1.1 |  8.95
Other   |            | 0.004577   |            |       |  0.89

Nlocal:        83.3333 ave          95 max          74 min
Histogram: 4 1 2 11 11 13 4 0 1 1
Nghost:        1789.60 ave        1817 max        1759 min
Histogram: 1 2 6 7 5 7 7 7 4 2
Neighs:        10870.3 ave       12733 max        9624 min
Histogram: 3 5 5 9 13 9 2 1 0 1

Total # of neighbors = 521775
Ave neighs/atom = 130.44375
Neighbor list builds = 141
Dangerous builds = 8

#############################
# L I N E A R  Q U E N C H  #
#############################

# Define solid atoms. This closely follows ten Wolde  Ruiz-Montero and Frenkel  Faraday Discuss  1996  104  93-110
# Compute components of the per-atom q6 vector
compute q6 all orientorder/atom degrees 1 6 components 6 nnn NULL cutoff 1.3 # compute the Q6 parameter.
                                                                             # Use all neighbours within 1.3 unit cell.

# get number of connections
compute coord_number all coord/atom orientorder q6 0.5

# An atom is solid if it has 8 or more connections (of a possible 14)
variable is_solid atom c_coord_number>=8
group solid dynamic all var is_solid    # Must be dynamic to update
dynamic group solid defined

# do clustering
compute cluster solid cluster/atom 1.3 # Create a cluster where all atoms within are solid and max 1.3 units from another member

# define chunks one chunk per cluster
compute clus_chunks solid chunk/atom c_cluster nchunk every compress yes  # Says which atoms are in which chunk

# count the size of each chunk
compute size_chunks solid property/chunk clus_chunks count


# Find the maximum entry in the vector of chunk sizes
variable max_n equal max(c_size_chunks)


# Thermo style which includes this variable
# thermo_style custom step temp pe vol v_max_n

thermo ${N}  # Print the thermo information every 100 steps
thermo 1000  

# Reset the npt fix at a lower temperature (below freezing)
fix 1  all npt temp  ${temp} ${temp}  0.1  iso  5.68  5.68  0.5  mtk yes tchain  5  pchain  5
fix 1  all npt temp  0.45 ${temp}  0.1  iso  5.68  5.68  0.5  mtk yes tchain  5  pchain  5
fix 1  all npt temp  0.45 0.45  0.1  iso  5.68  5.68  0.5  mtk yes tchain  5  pchain  5

dump dmp2 all dcd ${N} traj.dcd
dump dmp2 all dcd 1000 traj.dcd


compute msd all msd com yes
variable twopoint equal c_msd[4]/6/(step*dt+1.0e-6)
fix 9 all vector 10 c_msd[4]
variable fit equal slope(f_9)/6/(10*dt)
thermo_style custom step temp pe c_msd[4] v_twopoint v_fit v_max_n

fix 1 all npt temp 1.25 ${temp} 0.1 iso 5.68 5.68 0.5 mtk yes tchain 5 pchain 5
fix 1 all npt temp 1.25 0.45 0.1 iso 5.68 5.68 0.5 mtk yes tchain 5 pchain 5
run 2000000 # 5000000  # Run for this many steps
Neighbor list info ...
  update every 1 steps, delay 10 steps, check yes
  max neighbors/atom: 2000, page size: 100000
  master list distance cutoff = 3.8
  ghost atom cutoff = 3.8
  binsize = 1.9, bins = 9 9 9
  4 neighbor lists, perpetual/occasional/extra = 1 3 0
  (1) pair lj/cut, perpetual
      attributes: half, newton on
      pair build: half/bin/atomonly/newton
      stencil: half/bin/3d
      bin: standard
  (2) compute orientorder/atom, occasional
      attributes: full, newton on
      pair build: full/bin/atomonly
      stencil: full/bin/3d
      bin: standard
  (3) compute coord/atom, occasional
      attributes: full, newton on
      pair build: full/bin/atomonly
      stencil: full/bin/3d
      bin: standard
  (4) compute cluster/atom, occasional
      attributes: full, newton on
      pair build: full/bin/atomonly
      stencil: full/bin/3d
      bin: standard
Per MPI rank memory allocation (min/avg/max) = 9.784 | 9.790 | 9.796 Mbytes
Step Temp PotEng c_msd[4] v_twopoint v_fit v_max_n 
   12000    1.2360842   -6.7519949 7.4882621e-31 5.2001818e-33 8.3333333e+20            2 
   13000     1.239493   -6.6662163   0.52383285 0.0033579027  0.042236574            5 
   14000    1.2651885   -6.6905371    1.0392045 0.0061857411  0.042666617            1 
   15000    1.2701141   -6.7107262     1.553272 0.0086292886  0.043005273            1 
   16000    1.2569566   -6.7455781    2.0695425  0.010778867  0.043087844            1 
   17000    1.2637782   -6.6879837    2.5397155  0.012449586  0.042796218            1 
   18000    1.2709675   -6.6798801    3.0200879  0.013981888  0.041929992            2 
   19000    1.2296858   -6.6953656    3.5914378   0.01575192  0.041921072            1 
   20000    1.2482293   -6.6838056    4.1301397  0.017208915  0.042341149            1 
   21000    1.2436531   -6.6925311    4.6291569   0.01836967  0.042597228            1 
   22000    1.2381005   -6.7001432     5.181207  0.019625784  0.042785168            3 
   23000    1.2315354   -6.6876082    5.6722457  0.020551615  0.042871312            2 
   24000    1.2209729   -6.6965214    6.2042148  0.021542412  0.042925534            1 
   25000    1.2218237   -6.7420171    6.6970235  0.022323411  0.042988803            2 
   26000    1.2607816   -6.7137552    7.1484484  0.022911693  0.042962111            1 
   27000    1.2522384   -6.6866692    7.5981031  0.023450935   0.04275902            2 
   28000    1.2406721   -6.7229544    8.1604785  0.024287138  0.042593641            1 
   29000    1.2506563   -6.7252371    8.8086804    0.0253123  0.042668207            2 
   30000    1.2373117   -6.7364106    9.2727112  0.025757531  0.042774663            2 
   31000    1.2486857   -6.7567945    9.8561696  0.026495079  0.042894685            4 
   32000    1.2875609   -6.6832273    10.503378  0.027352547   0.04306623            2 
   33000    1.2438005   -6.7427863    10.978068  0.027722393  0.043225561            2 
   34000    1.2273379    -6.735637    11.557398  0.028326955  0.043362747            6 
   35000    1.2473217   -6.7022513      12.0219  0.028623572  0.043490687            2 
   36000    1.2424481   -6.7636749    12.538314  0.029023874  0.043563384            1 
   37000    1.2685631   -6.7299294    13.126591  0.029564393  0.043616526            1 
   38000    1.2474656    -6.723385    13.700815  0.030045646   0.04372558            5 
   39000    1.2328272   -6.6800275    14.230973  0.030408061  0.043798193            2 
   40000    1.2423533   -6.7399009    14.664206  0.030550428  0.043815464            2 
   41000    1.2467992   -6.6801082     15.11753  0.030726686   0.04382199            2 
   42000    1.2658417   -6.7353645    15.571453   0.03089574  0.043782999            2 
   43000    1.2428564   -6.7199109     16.08137  0.031165445  0.043764781            3 
   44000    1.2373188   -6.7623363    16.603499   0.03144602  0.043734629            3 
   45000    1.2482961   -6.7646574    17.232468  0.031911977  0.043729407            4 
   46000    1.2514955   -6.7189415    17.695406  0.032056895  0.043721377       -1e+20 
   47000    1.2235236   -6.6907498    18.010037   0.03193269  0.043668176            1 
   48000    1.2274512   -6.7424617    18.494584  0.032108653  0.043539901            2 
   49000    1.2778608   -6.7393906    18.992056  0.032299415  0.043420177            1 
   50000    1.2481628   -6.7465928    19.469506  0.032449176  0.043330628            1 
   51000    1.2620924   -6.7329743    20.027717  0.032725027  0.043246552            1 
   52000    1.2073185   -6.7545847    20.442364  0.032760199  0.043169171            2 
   53000    1.2043222   -6.7671824    20.920337  0.032893611  0.043076721            3 
   54000    1.2142447   -6.6857795    21.501781   0.03318176  0.042989503            2 
   55000    1.2337681   -6.7420084    21.773417  0.032990026  0.042896078            2 
   56000    1.2457718   -6.7457324    22.268682  0.033137919   0.04278532            3 
   57000    1.2257966   -6.7119231    22.930033  0.033523439  0.042693226            1 
   58000    1.2222847   -6.7473769    23.316132  0.033500189  0.042627783            3 
   59000    1.2163632   -6.7165899    23.658214  0.033415556  0.042546303            3 
   60000     1.257745   -6.7002585    24.246424  0.033675589   0.04244444            2 
   61000     1.215478   -6.7348587    24.730399  0.033784698  0.042355586            1 
   62000    1.2335444   -6.7459526    25.122726  0.033767105  0.042273055            2 
   63000    1.2275865   -6.7078634    25.536712   0.03377872  0.042186356            1 
   64000    1.2458829   -6.7723887    26.084129  0.033963709  0.042115501            2 
   65000    1.2364287   -6.7341617     26.59205  0.034092371  0.042045325            2 
   66000    1.2218961   -6.6925412    27.005143  0.034097403  0.041962438            1 
   67000    1.1995985   -6.7369373    27.249734  0.033892704  0.041879211            1 
   68000    1.2380971   -6.7608038    27.578321  0.033796962  0.041780926            1 
   69000    1.2285289    -6.774167    28.051874  0.033879075  0.041656264            5 
   70000      1.23208   -6.7623648    28.414061  0.033826262  0.041540079            1 
   71000    1.2463794   -6.7332843    28.859739  0.033872933  0.041422433            2 
   72000    1.2211607   -6.7378457    29.207808  0.033805333  0.041301595            3 
   73000    1.2057847   -6.7470581    29.671882  0.033872011  0.041181646            2 
   74000    1.2086819   -6.7447347    30.167335  0.033972223  0.041081084            1 
   75000    1.2029225   -6.7218827    30.551428  0.033946031  0.040960616            2 
   76000    1.2204928    -6.762468    31.051068  0.034047224    0.0408559            1 
   77000    1.2075064   -6.7428991    31.361825  0.033941369  0.040752567            1 
   78000    1.2392907   -6.7404481    31.894458  0.034075275  0.040645689            1 
   79000    1.2345467   -6.7935297    32.281849  0.034052583  0.040560867            2 
   80000    1.2096672   -6.7130333    32.839459   0.03420777  0.040465552            2 
   81000    1.2417702   -6.7911415    33.316413  0.034276145   0.04039103            1 
   82000    1.2362422   -6.7483331    33.871995  0.034422759  0.040322113            2 
   83000    1.1919724   -6.7664731    34.062024  0.034198819  0.040250075            4 
   84000    1.2301683   -6.7632816    34.646885   0.03437191   0.04017531            1 
   85000     1.239541   -6.7419334    35.181308  0.034491478   0.04011522            1 
   86000    1.2387322   -6.7554881    35.906473  0.034793094  0.040071077            2 
   87000    1.2063309   -6.7822538    36.510133  0.034971391   0.04004107            1 
   88000     1.190809   -6.7980918    36.708142  0.034761498  0.040003566            1 
   89000    1.2192089   -6.7675547    37.178688  0.034811505  0.039958376            2 
   90000    1.2226501   -6.7328246    37.710611  0.034917232  0.039923292            2 
   91000    1.2255856   -6.7552816    38.178502  0.034961998  0.039889729            4 
   92000    1.2194178   -6.7806152    38.596034  0.034960176  0.039860901            1 
   93000    1.2094142   -6.7829054    38.792782  0.034760557  0.039822006            1 
   94000    1.2225935    -6.752683     39.27119  0.034814884  0.039779144            1 
   95000     1.204818   -6.7359467    39.841528  0.034948709  0.039739639            1 
   96000    1.2168608   -6.7633507      40.3519  0.035027691  0.039696703            3 
   97000    1.2304573   -6.7554583    40.625509   0.03490164  0.039656422            1 
   98000     1.241032    -6.750785    41.141155  0.034983975  0.039610781            2 
   99000    1.2203831   -6.7782582    41.602197  0.035018684  0.039577215            1 
  100000    1.2040425   -6.8052924    41.786465  0.034822054  0.039537789            1 
  101000    1.2136337   -6.7789432     42.20694  0.034824208  0.039491958            2 
  102000    1.2412976   -6.7769476    42.726612  0.034907362   0.03944042            1 
  103000    1.2236025   -6.7467334    43.220665  0.034968176  0.039393851            2 
  104000    1.2277488   -6.8234707    43.531787  0.034881239  0.039342837            2 
  105000    1.2271481   -6.8081771    44.252669  0.035121166  0.039302102            1 
  106000    1.2364481   -6.7676751    44.527135  0.035005609  0.039268657            2 
  107000    1.2229371   -6.7769649    45.168401  0.035177882  0.039231704            1 
  108000    1.2161945   -6.7155802     45.50432  0.035111358  0.039198948            2 
  109000    1.2065182   -6.7865128    45.873286  0.035071319  0.039168752            2 
  110000    1.2051556    -6.756789    46.520547  0.035242839  0.039142413            1 
  111000    1.2333634   -6.7620408    46.952127  0.035249344   0.03911814            2 
  112000    1.2011428   -6.8031989    47.456362  0.035309793  0.039097301            2 
  113000    1.2213479   -6.7567312    48.082443  0.035459028  0.039078618            1 
  114000    1.2190752   -6.7824514    48.508063   0.03545911  0.039058444            2 
  115000    1.2024313   -6.7493037    49.066367  0.035555338  0.039039083            1 
  116000    1.2221566    -6.785018    49.304525  0.035419917  0.039021761            1 
  117000    1.2070926   -6.8205548    49.720599  0.035413532  0.038994839            6 
  118000    1.1996049   -6.7989205    50.373869  0.035574766  0.038979486            4 
  119000    1.2285554   -6.8069955    50.933289  0.035667569  0.038971218            1 
  120000    1.2160953   -6.7945183    51.352764  0.035661642  0.038963878            3 
  121000    1.2127123   -6.7686413     52.10331  0.035883822  0.038959209            3 
  122000    1.2171444   -6.7690289    52.676902   0.03598149   0.03896332            2 
  123000    1.2041372   -6.7612315    53.072631  0.035957067  0.038961964            1 
  124000    1.2009294   -6.8217952    53.393453  0.035882697  0.038959238            1 
  125000    1.2126385   -6.7840817     53.91859  0.035945727  0.038959469            1 
  126000    1.2201424   -6.8187262     54.28732  0.035904312   0.03895655            2 
  127000    1.2279574   -6.8063506    54.838272  0.035983118  0.038949281            1 
  128000    1.1784267   -6.8159257    55.259769  0.035976412  0.038944669            1 
  129000    1.1969851   -6.7876597    55.673576  0.035964842  0.038944057            1 
  130000    1.1911416   -6.7987861    55.996763  0.035895361  0.038940482            1 
  131000     1.227058   -6.7548158    56.551122  0.035973996  0.038935087            1 
  132000    1.1871461   -6.7935643    56.598868  0.035731608  0.038925521            2 
  133000    1.1882062   -6.8028931    57.104619  0.035779837  0.038908899            2 
  134000    1.1879299   -6.8351335    57.492159   0.03575383  0.038894858            2 
  135000    1.1984026    -6.813977    57.862536  0.035717615  0.038878097            2 
  136000    1.1899028   -6.7796576    58.592709  0.035902395  0.038862704            2 
  137000    1.2068776    -6.776563    59.089484  0.035942508  0.038847395            2 
  138000    1.2126643   -6.7688483    59.731463  0.036069724   0.03883495            2 
  139000    1.2062087   -6.7561306    59.876733  0.035897322  0.038821908            2 
  140000    1.2030467   -6.7998946    60.139793  0.035797495  0.038805535            1 
  141000    1.2202534   -6.7932893     60.27541  0.035623765   0.03878075            1 
  142000    1.2105086   -6.7882114    60.507924  0.035509345  0.038756227            3 
  143000    1.1937565   -6.8187113    61.322524  0.035735736  0.038727589            2 
  144000    1.2155037   -6.8108004    61.516636  0.035599905   0.03870041            5 
  145000    1.1825976   -6.8338955    61.849249  0.035545545  0.038672786            1 
  146000    1.2030516   -6.8181001    62.549972  0.035702039  0.038645295            2 
  147000    1.2209733    -6.757337    63.074144  0.035756317  0.038618827            1 
  148000    1.1722821   -6.8326859    63.305471  0.035644972  0.038595394            3 
  149000    1.2078359   -6.8114544    63.531623  0.035532228  0.038570927            1 
  150000    1.2087763   -6.7692801    64.070377  0.035594654  0.038542149            3 
  151000    1.2173386   -6.7863877     64.44255  0.035564321  0.038511639            1 
  152000    1.1776174   -6.7989587    64.931422  0.035598367  0.038478942            1 
  153000    1.1882836   -6.8294521    65.115236  0.035465815  0.038446003            2 
  154000    1.1827696   -6.8168293    65.613304  0.035505035  0.038415286            3 
  155000    1.2264087   -6.8198742    65.557337   0.03524588  0.038379585            1 
  156000    1.1780052   -6.7777777     66.19983  0.035363157  0.038341991            1 
  157000    1.1850558   -6.8299136    66.243301  0.035160988  0.038304514            2 
  158000    1.1787066   -6.7927405    66.609037  0.035131348  0.038261808            2 
  159000     1.175021   -6.7997134    67.052332  0.035142731  0.038219413            1 
  160000    1.1870271   -6.7794708    67.407533   0.03510809  0.038174258            1 
  161000    1.1595446   -6.8370104    67.793536  0.035089822  0.038128041            2 
  162000    1.1730345   -6.7611065    68.062714  0.035011684  0.038082732            1 
  163000    1.2006741   -6.8149418    68.312566  0.034924625    0.0380368            2 
  164000    1.2059037   -6.7818254    69.387018  0.035257631  0.037991733            1 
  165000    1.1791556   -6.8491491    69.533774  0.035118067  0.037952924            1 
  166000    1.2011386   -6.8439932    69.907872  0.035094313  0.037912834            2 
  167000    1.2000656   -6.8206993    70.624235  0.035241634  0.037879155            1 
  168000    1.1902244   -6.8575426     70.81776  0.035127857  0.037844308            1 
  169000    1.2058806   -6.8311281    71.135017  0.035076438  0.037808201            5 
  170000    1.2182334   -6.7987535    71.349832  0.034975408  0.037770393            1 
  171000    1.1902354   -6.8814726    71.707207  0.034945032  0.037734362            1 
  172000    1.1881473   -6.8468365    72.455447  0.035104383  0.037698575            1 
  173000    1.1871897   -6.8057861    72.923891  0.035127115  0.037665924            1 
  174000    1.1952983   -6.7931764    73.599631  0.035248865  0.037636672            3 
  175000    1.1692592   -6.7843202    74.075819  0.035274199  0.037607069            1 
  176000    1.2039564   -6.8058386    74.283292  0.035172013  0.037578609            2 
  177000    1.1882104   -6.8165097    74.702254  0.035170553   0.03755144            1 
  178000    1.1850994   -6.8244371     75.33843    0.0352708  0.037526493            4 
  179000    1.2248663   -6.8570741    75.980562  0.035372701  0.037503384            1 
  180000    1.1685925   -6.8288135     76.33892  0.035342093  0.037482798            1 
  181000    1.2003135    -6.832289     76.71254  0.035318849  0.037462004            1 
  182000    1.1568433   -6.8552602    76.941515  0.035229631  0.037440739            2 
  183000    1.1596721   -6.8482067    77.564656  0.035320881   0.03741827            4 
  184000    1.1801724   -6.8638431    77.810836  0.035240415   0.03739607            1 
  185000    1.1856088   -6.8321007    78.495174  0.035358187  0.037375931            3 
  186000     1.188119   -6.8536466    78.753878  0.035283996  0.037354818            3 
  187000    1.2204751   -6.8824504    79.109105  0.035253612  0.037333666            1 
  188000     1.194852   -6.8062794    79.920118  0.035425584  0.037314798            5 
  189000    1.1611791   -6.8201324    80.252195  0.035384566  0.037298914            1 
  190000    1.1802115    -6.838793     80.39168  0.035259509  0.037279358            1 
  191000    1.1963178   -6.8841767    80.549708  0.035143852  0.037257907            2 
  192000    1.1760624   -6.8166413    81.235323  0.035258387  0.037239902            1 
  193000    1.1909052   -6.8341724    81.752762   0.03529912   0.03722083            2 
  194000    1.1687831   -6.8343078    82.148325  0.035287081  0.037200635            1 
  195000    1.1705069   -6.8503861    82.516989   0.03526367   0.03717961            1 
  196000    1.1837107    -6.844667    82.403983  0.035035707  0.037157739            3 
  197000    1.1744012   -6.8533608    82.897944  0.035066812  0.037134845            2 
  198000    1.1713938   -6.8701404    83.281137  0.035050983  0.037112324            3 
  199000    1.1543954   -6.8560411    83.952573  0.035156019  0.037090626            1 
  200000    1.1626831   -6.8217254    84.187735  0.035078223   0.03706757            1 
  201000    1.1930986   -6.8830741    84.323806  0.034960118  0.037042951            1 
  202000     1.166101   -6.8710376    84.590665  0.034897139  0.037016518            1 
  203000    1.1876893    -6.832707    85.212013  0.034980301  0.036988961            3 
  204000    1.1854882   -6.8381894    85.418918  0.034893349  0.036962438            2 
  205000    1.1894969   -6.8601796    85.564036  0.034782129  0.036932979            5 
  206000    1.1498284   -6.8574333    86.160081  0.034854402  0.036902463            1 
  207000      1.15919   -6.8140555    86.258894  0.034725803  0.036873498            2 
  208000    1.1742709   -6.8630388    86.733414  0.034748964  0.036843789            2 
  209000    1.1733879   -6.9097224    87.269262  0.034796357  0.036817198            2 
  210000    1.1480187   -6.8778836    87.501924  0.034722986  0.036787601            1 
  211000    1.2056077   -6.8537119    87.977764  0.034746352  0.036760139            5 
  212000    1.1544821   -6.8796727    88.727383  0.034877116  0.036734329            1 
  213000    1.1671264   -6.8816575     89.23458  0.034911807  0.036708816            3 
  214000     1.170175   -6.8511682    89.574733  0.034881126  0.036684969            2 
  215000    1.1678343   -6.8317869    90.094541  0.034920364  0.036659442            2 
  216000    1.1942216   -6.8598946    90.299552   0.03483779  0.036633479            2 
  217000    1.1838587     -6.86641    90.294345  0.034675248  0.036605465            3 
  218000    1.1523083   -6.8525961    90.579766  0.034625293   0.03657596            2 
  219000    1.1951258   -6.8660939    90.812951  0.034555917  0.036547613            3 
  220000    1.1831011   -6.8414488    91.395747  0.034619601  0.036518863            3 
  221000    1.1682878   -6.8841731     91.35635  0.034448096  0.036490357            1 
  222000    1.1567823   -6.8882764    91.935743  0.034510414  0.036460274            3 
  223000    1.1740525   -6.8784003    92.341184  0.034507169  0.036432666            1 
  224000    1.2049533    -6.865992    92.630968  0.034460926   0.03640319            1 
  225000    1.1525156   -6.8735031    93.227565  0.034528728  0.036374462            2 
  226000    1.1706025   -6.8972193    92.942032  0.034270661  0.036342725            1 
  227000    1.1542887   -6.8513883    93.452047  0.034306919   0.03630934            1 
  228000    1.1621616   -6.8691669    93.475736  0.034165108   0.03627374            1 
  229000    1.1515329   -6.8750514    93.754253  0.034117268  0.036236432            1 
  230000    1.1467302   -6.8909917    94.474233  0.034229794  0.036201022            1 
  231000    1.1746028   -6.9031477    95.025514  0.034280488  0.036167952            3 
  232000    1.1474554   -6.8641755     95.40364  0.034268549  0.036134746            2 
  233000    1.1583038    -6.842295    95.981536   0.03432816  0.036103042            3 
  234000    1.1593929   -6.8833375    96.475971  0.034357539   0.03607377            3 
  235000    1.2009648   -6.8642532    96.505558  0.034221829  0.036044242            2 
  236000    1.1374065   -6.8633958    97.029556  0.034261849  0.036013765            1 
  237000    1.1571012   -6.9044974    97.225867   0.03418631  0.035983437            2 
  238000    1.1525167   -6.9058206    97.555121  0.034157955  0.035951884            2 
  239000    1.1630767   -6.8778604    98.235127  0.034252136  0.035922407            2 
  240000    1.1559694   -6.8715083    98.667045  0.034259391  0.035894615            4 
  241000    1.1085281   -6.8750028    99.015024   0.03423756  0.035866257            4 
  242000    1.1864219   -6.8985394    99.213507  0.034164431  0.035839464            1 
  243000    1.1764442    -6.866626    99.645453  0.034171966  0.035813443            3 
  244000    1.1488317   -6.8656828    100.18185  0.034215114  0.035786097            2 
  245000    1.1649904   -6.8818692    100.14589  0.034063227   0.03575755            2 
  246000      1.15334   -6.8853904    100.43544  0.034022846  0.035727424            1 
  247000    1.1365722   -6.9084273    100.80108  0.034008462   0.03569761            1 
  248000    1.1543562   -6.9031003    100.92749  0.033913806  0.035667073            3 
  249000    1.1452753   -6.8677979     101.6955  0.034034637  0.035637817            1 
  250000    1.1503088   -6.8454176    102.08291  0.034027637  0.035609951            1 
  251000    1.1471277    -6.891775    102.61131  0.034067501  0.035583266            1 
  252000    1.1669346   -6.8856338    103.01324  0.034065226  0.035556002            1 
  253000    1.1694868   -6.9199907      102.984  0.033920947  0.035528088            1 
  254000    1.1436702   -6.9037064    103.49811  0.033956074  0.035500612            2 
  255000    1.1385874   -6.9468737    104.14669  0.034034864  0.035474279            1 
  256000    1.1655552   -6.8708771    104.67933  0.034075302  0.035449885            2 
  257000    1.1371745    -6.874808    105.03195  0.034057054  0.035424684            3 
  258000    1.1547759   -6.8876572    104.80681  0.033852328  0.035399665            2 
  259000    1.1533014   -6.8825274    105.31709  0.033885808  0.035372717            2 
  260000    1.1320838   -6.9026139    105.72596  0.033886525   0.03534753            2 
  261000    1.1720477    -6.886662    106.37724  0.033964637  0.035322867            4 
  262000    1.1563105   -6.8790988    106.53888  0.033886413  0.035297551            1 
  263000     1.146488   -6.9153332    107.19956  0.033966908   0.03527252            2 
  264000    1.1491477   -6.8850181    107.11481  0.033811492   0.03524759            1 
  265000    1.1644547   -6.9350798     107.5793  0.033829968   0.03522141            3 
  266000    1.1888782   -6.9155384    108.14629  0.033880417  0.035196521            2 
  267000    1.1182034   -6.9211504    107.91778  0.033682203  0.035169752            2 
  268000    1.1398379   -6.9405132    108.31409  0.033679755  0.035142356            2 
  269000    1.1548855   -6.8829399     109.0564   0.03378451  0.035116663            6 
  270000    1.1219331   -6.9377031    109.22141  0.033710313  0.035091695            1 
  271000     1.146807    -6.885305    109.63966  0.033714532   0.03506615            3 
  272000    1.1313975   -6.9012396    109.83076  0.033649131  0.035040094            3 
  273000    1.1398224   -6.8952849    110.00114  0.033577882  0.035012806            1 
  274000     1.139526   -6.8934434     110.3459  0.033560187  0.034985941            1 
  275000    1.1444951   -6.9303985    110.83836   0.03358738  0.034959379            2 
  276000    1.1677564   -6.9464276    111.20003  0.033574888  0.034932351            5 
  277000    1.1364106   -6.8944286    111.68102  0.033598381  0.034905727            2 
  278000    1.1288566   -6.8855979      111.856  0.033529977  0.034879598            1 
  279000    1.1302257   -6.8511204    112.34967  0.033557248   0.03485418            3 
  280000    1.1421856   -6.8801649    112.73755  0.033552843  0.034829385            4 
  281000    1.1432683   -6.8876971    113.19454  0.033568962  0.034804688            1 
  282000    1.1461794   -6.9291292    113.78566  0.033624603  0.034780152            4 
  283000    1.1368705   -6.9343445    113.57482  0.033443705  0.034757371            3 
  284000    1.1545239   -6.8954026    114.69902  0.033655814  0.034734308            1 
  285000    1.1010131   -6.8810381    115.00533  0.033627291  0.034711251            3 
  286000     1.131667   -6.9233288    114.94797  0.033492999  0.034688183            3 
  287000    1.1036888   -6.9192619    115.05552  0.033407527  0.034663687            2 
  288000    1.1498408    -6.942368    115.38754  0.033387597  0.034639153            1 
  289000    1.1365829   -6.9013883    116.12722  0.033485357  0.034614657            2 
  290000    1.1621852   -6.9141076    115.88637   0.03330068  0.034590893            2 
  291000    1.1543779   -6.9415331    116.23667  0.033286561  0.034565319            2 
  292000    1.1209568   -6.9260444    116.64498  0.033289092  0.034539449            3 
  293000    1.1676437   -6.9321584    116.87937  0.033242142   0.03451289            4 
  294000    1.1335341   -6.9158014     117.4275  0.033284439  0.034487837            2 
  295000    1.1385334   -6.9760794    117.34521  0.033148364   0.03446104            2 
  296000    1.1431271   -6.9421666    117.64805  0.033121635  0.034433828            2 
  297000    1.1387494   -6.9224038    118.14144  0.033148553  0.034407341            2 
  298000    1.1536189   -6.9094681    118.48875  0.033134438  0.034380962            1 
  299000    1.1086502    -6.956832    118.45956  0.033015485  0.034353801            2 
  300000    1.1387172   -6.9227258    118.85689  0.033015803  0.034325965            2 
  301000    1.1534344   -6.9309251    119.65479  0.033127017  0.034299838            3 
  302000    1.1436583   -6.9455924    119.72193  0.033035852  0.034274125            2 
  303000    1.1609027   -6.8943986     120.6205  0.033173956  0.034249751            1 
  304000    1.1221339   -6.9502967     120.4042  0.033005537  0.034226103            2 
  305000    1.1375436   -6.9413052    121.03105  0.033068592   0.03420313            2 
  306000    1.1319485   -6.9101286    121.75917  0.033158816  0.034179821            1 
  307000    1.1601213   -6.9658422    122.06103  0.033132743  0.034157052            2 
  308000    1.1156718   -6.9262078    122.52049  0.033149484  0.034134185            2 
  309000     1.115103   -6.9513588    122.69801  0.033090077  0.034110494            2 
  310000    1.1449609   -6.9648921    122.72809  0.032991421  0.034086224            2 
  311000    1.1267404   -6.9754936    122.32742   0.03277798  0.034061254            2 
  312000    1.1291209   -6.9305771    122.81002  0.032801821  0.034034675            3 
  313000    1.1532348   -6.9664649    123.20955  0.032803396  0.034008908            1 
  314000    1.1257211   -6.9350378    123.73223  0.032837641  0.033982776            3 
  315000    1.1125658   -6.9477505    123.92053   0.03278321  0.033957139            2 
  316000    1.1184979   -6.9680079    124.39623  0.032804913  0.033931103            3 
  317000    1.1171268   -6.9301554    124.06179  0.032613509  0.033904704            2 
  318000    1.1121854   -6.9353302    125.24971  0.032822251  0.033878753            1 
  319000    1.1400372   -6.9268077    125.53345  0.032793483  0.033853946            1 
  320000    1.1002474    -6.952673     126.0175  0.032817058  0.033829738            2 
  321000    1.1175536   -6.9956666    126.16402   0.03275286  0.033804669            2 
  322000    1.1186027   -6.9505343    126.49297  0.032736275   0.03377931            2 
  323000    1.1216605   -6.9082963    126.94277  0.032750973    0.0337551            1 
  324000    1.1415577    -6.975343    127.01471  0.032668392  0.033731688            5 
  325000    1.1430923   -6.9271823    127.84223   0.03278006  0.033707745            2 
  326000     1.115397   -6.9523199    128.43341  0.032830627  0.033685451            1 
  327000    1.1361282   -6.9261993    128.86126  0.032839262  0.033663754            1 
  328000    1.1363341   -6.9276539    129.50374  0.032902374  0.033643854            1 
  329000    1.1053369   -6.9855147    129.45012  0.032788784  0.033624149            2 
  330000    1.1482235   -6.9222348    130.21568  0.032882748  0.033605651            1 
  331000    1.1362414    -6.952901    130.37571  0.032823694  0.033587768            2 
  332000    1.1445985   -6.9912529    130.94285  0.032867182  0.033570165            2 
  333000    1.1186565    -6.966892      131.083  0.032803554  0.033551838            3 
  334000    1.1064945   -6.9466743     132.2391  0.032993788  0.033533379            3 
  335000    1.1075746   -6.9755943    132.31755  0.032914814  0.033516535            2 
  336000    1.0974834    -6.952587    133.13021  0.033018404  0.033500177            1 
  337000    1.1246115     -6.96243    132.98663  0.032884923  0.033484311            1 
  338000    1.1150604    -6.939218    133.07988  0.032810622  0.033466741            1 
  339000    1.1211918   -6.9165695    133.96715  0.032931944  0.033449636            2 
  340000    1.1383288   -6.9390247    133.82006  0.032799035  0.033432132            4 
  341000    1.1275366   -6.9616087     133.9296  0.032729619  0.033415453            1 
  342000    1.1131971   -6.9680474    134.82656  0.032852475  0.033399253            2 
  343000    1.1129033   -6.9604101    134.93892  0.032783995   0.03338297            1 
  344000    1.1222023   -6.9268279    135.26385  0.032767405  0.033366642            1 
  345000    1.1095508    -6.941629    135.82688  0.032808426  0.033350897            1 
  346000    1.1349046   -6.9593887    135.45842  0.032624861  0.033333118            1 
  347000    1.1137936   -6.9811691    136.04361  0.032671377  0.033315329            2 
  348000    1.1048161   -6.9405787    136.70287  0.032735361  0.033298116            2 
  349000    1.1233998   -6.9764841    136.60956  0.032619283   0.03327999            1 
  350000    1.1354516   -6.9755687    136.87751  0.032589882  0.033262829            1 
  351000     1.131189   -6.9284639    137.42518  0.032627061  0.033245801            3 
  352000    1.1351427   -6.9550545     137.9923  0.032668632  0.033228501            2 
  353000    1.1267654   -6.9835649    138.03392  0.032585912    0.0332113            3 
  354000    1.1327963   -6.9610558    138.58594  0.032623808  0.033194594            2 
  355000    1.0818971   -6.9749512    138.69529  0.032557579  0.033178716            1 
  356000    1.1199617   -6.9951927    139.24938  0.032595829  0.033162377            3 
  357000    1.1288024   -7.0172228    139.86058  0.032647194    0.0331466            2 
  358000     1.100449   -6.9449044     140.1125  0.032614641  0.033130548            1 
  359000    1.1072763   -6.9517418     140.3793  0.032585724  0.033114562            2 
  360000    1.1184435    -7.004198    140.67582  0.032563847  0.033098608            1 
  361000    1.1307132   -6.9397645    140.89109  0.032523335  0.033082639            1 
  362000    1.1160135   -6.9726016    141.53837  0.032582498  0.033066145            1 
  363000     1.142009   -6.9847174    141.79552  0.032551773  0.033049925            3 
  364000    1.1118203   -6.9991191    142.12117  0.032536897  0.033033975            2 
  365000    1.1428934   -6.9563371    142.23824  0.032474485  0.033018116            2 
  366000    1.1039723   -6.9682342    142.92876  0.032542977  0.033002188            1 
  367000    1.0984225   -6.9685969    143.11807  0.032497291  0.032985939            1 
  368000    1.0924988   -7.0039753    143.33157  0.032457331  0.032969871            2 
  369000    1.1067907   -7.0039648    143.59391  0.032428615  0.032954044            2 
  370000    1.1150353   -6.9800602    144.00068  0.032432585  0.032938181            1 
  371000    1.1112175   -7.0091377    144.36868  0.032427826  0.032922063            1 
  372000    1.1035724   -6.9962339     144.2492  0.032313889  0.032906029            3 
  373000    1.0892343   -6.9828165    144.76732  0.032343011    0.0328899            3 
  374000    1.1014846   -7.0057114    144.88395  0.032282521   0.03287316            2 
  375000    1.1147505   -7.0004421    145.66196  0.032369325  0.032856318            1 
  376000    1.0920953   -6.9747922    146.37949  0.032442262  0.032839731            3 
  377000    1.0994213   -6.9956928    146.28315  0.032334913  0.032823741            1 
  378000    1.0660895   -6.9738918    146.73311  0.032348568  0.032807577            2 
  379000    1.1141721   -6.9825909    146.74413  0.032265641  0.032790332            1 
  380000    1.1046507   -6.9693734    146.93577  0.032222757  0.032772236            1 
  381000    1.1113483   -6.9612994    147.06148  0.032165678  0.032753845            2 
  382000    1.0791394    -7.029658    147.19577   0.03211077   0.03273478            3 
  383000    1.1164356   -7.0270878    147.37536  0.032066005  0.032715099            5 
  384000     1.092691    -6.972508    147.15716  0.031935149  0.032695583            4 
  385000    1.1118493   -6.9946589    147.60536  0.031949211  0.032675951            2 
  386000    1.0767741     -6.95795    148.77072   0.03211803  0.032657337            2 
  387000     1.108807   -7.0084816    148.27299  0.031927861  0.032638397            1 
  388000    1.1020717   -7.0016154    149.21229  0.032047314  0.032620112            3 
  389000    1.1121986   -7.0046592    149.28399   0.03198029  0.032601248            1 
  390000    1.0832245   -7.0157778    149.03224  0.031844496   0.03258131            4 
  391000    1.0908386   -7.0285195    149.79912  0.031926496  0.032561564            4 
  392000    1.0959182   -6.9678373    150.47824  0.031989422   0.03254272            2 
  393000    1.0947338   -7.0304352    150.30201  0.031870655  0.032523399            2 
  394000    1.0870614   -6.9626467    151.37474  0.032016653  0.032504296            3 
  395000     1.092196    -6.973141     151.0852  0.031874514   0.03248589            3 
  396000    1.0833824   -7.0168469    151.54556  0.031890901  0.032467691            3 
  397000    1.1097559    -7.000621    151.58471  0.031818789  0.032448587            2 
  398000    1.1183052   -6.9931668     151.6228  0.031746818  0.032429038            2 
  399000    1.1065577   -6.9924955    151.54241  0.031650462  0.032408802            3 
  400000     1.101588   -7.0567878    152.28231  0.031725482  0.032388634            2 
  401000    1.0991884   -6.9961702    152.75977  0.031745589  0.032369125            2 
  402000    1.1075747   -6.9678958    153.53928  0.031828208  0.032349938            2 
  403000    1.1005638   -6.9966371    153.30514  0.031700816  0.032330854            1 
  404000    1.1079438   -7.0158132    153.24787  0.031610533  0.032311207            3 
  405000    1.0914258   -7.0217854    153.44197  0.031572422  0.032291859            4 
  406000    1.0608787   -6.9818157     154.2037  0.031651006  0.032272745            3 
  407000    1.0930847   -7.0374938    154.19875  0.031572226  0.032253261            2 
  408000    1.0903002   -7.0538051    154.38844  0.031533587  0.032232783            2 
  409000    1.0798024   -7.0188098    155.32041  0.031646375  0.032212295            3 
  410000    1.0813811    -7.039241     155.0249  0.031509126  0.032191418            2 
  411000    1.0619822   -7.0187492    155.33613  0.031495565  0.032170955            1 
  412000    1.0657294   -7.0130717    155.42878   0.03143786  0.032149804            3 
  413000    1.0903993   -7.0380749    155.33801  0.031343423  0.032128237            2 
  414000    1.0705138   -7.0416348    155.68372  0.031337303  0.032106109            3 
  415000    1.0833073   -7.0037982    156.34733  0.031395047  0.032084798            6 
  416000    1.0577091   -7.0199902      156.567  0.031363581  0.032064525            1 
  417000    1.0675212   -7.0180525    157.31772  0.031438393  0.032044142            4 
  418000    1.0881364   -7.0248237    157.42787  0.031385141  0.032023529            1 
  419000    1.0731463   -7.0713269    156.84095  0.031193506   0.03200311            2 
  420000    1.0642691   -7.0445883     157.6112  0.031272064   0.03198162            2 
  421000    1.0711892   -7.0480383    157.89653  0.031254262  0.031960402            1 
  422000    1.0875711   -7.0626716    158.08018  0.031216464    0.0319398            1 
  423000    1.1072362   -7.0294371    158.47302  0.031220058  0.031918478            3 
  424000    1.0521252   -7.0955896    157.88295  0.031030455  0.031896381            2 
  425000    1.0811747   -7.0033506    159.36246  0.031247541  0.031874771            2 
  426000    1.0847132    -7.001273    159.38317  0.031178241  0.031853846            1 
  427000     1.067283   -7.0324063    159.80993   0.03118851  0.031832476            1 
  428000    1.0716688   -7.0246023    159.46516  0.031048512  0.031811029            2 
  429000    1.0781557   -7.0261371    160.47252  0.031171818  0.031789982            2 
  430000    1.0896977   -7.0194196    160.53354  0.031111151  0.031768788            2 
  431000    1.0754252   -7.0497091    160.78317  0.031087233  0.031747535            2 
  432000     1.077196   -7.0271538    161.20644  0.031096922  0.031726197            1 
  433000    1.0773782    -6.989168     161.4677  0.031075385  0.031705883            2 
  434000    1.0527099   -7.0264567    161.41493   0.03099365  0.031685009            3 
  435000    1.0825717   -7.0305058    162.16948   0.03106695  0.031663918            2 
  436000    1.0896111   -7.0518795    162.48412  0.031055833  0.031643225            3 
  437000    1.1000536   -7.0385581    162.15432  0.030921877  0.031622378            2 
  438000     1.074817   -7.0313335    162.41309  0.030900511  0.031601016            1 
  439000    1.0735292   -7.0706383    162.48264  0.030843325  0.031579507            2 
  440000    1.0816144   -7.0243379    163.25085  0.030918721  0.031558251            2 
  441000    1.0597566   -7.0412387    163.35759  0.030868781   0.03153708            3 
  442000    1.0888509   -7.0469014    163.37408  0.030802051  0.031515463            4 
  443000    1.0898214   -7.0429552    163.87431   0.03082662  0.031493873            3 
  444000    1.0629544   -7.0103372    164.35466  0.030847346  0.031472285            3 
  445000    1.0739529   -7.0146044    164.25178  0.030758761  0.031451316            2 
  446000    1.0889639   -7.0498081    165.00573  0.030830668  0.031430774            2 
  447000    1.0915479   -7.0676158    165.04045  0.030768168  0.031410718            2 
  448000    1.0676589   -7.0929224    165.65443  0.030813697   0.03139075            1 
  449000    1.0855663   -7.0514104    165.82301  0.030776358  0.031370782            3 
  450000    1.0674901    -7.077293    166.66908  0.030864644  0.031350371            2 
  451000    1.0917483   -7.0660594    166.44381  0.030754585  0.031330996            1 
  452000    1.0477401   -7.0721268    166.99897  0.030788895  0.031311849            2 
  453000    1.0764996   -7.0240247    167.82327  0.030872566  0.031293023            6 
  454000    1.0840314   -7.0201974    168.17411  0.030868962  0.031274171            3 
  455000    1.0836502   -7.0581767    168.07187  0.030782394  0.031255059            2 
  456000    1.1048966   -7.0086176     168.3137  0.030759083  0.031236274            2 
  457000    1.0548065   -7.0548551    168.61719  0.030747116  0.031217523            1 
  458000    1.0685959   -7.0479643    168.98368  0.030746667  0.031198704            2 
  459000    1.0650524   -7.0622921    169.28919  0.030735147  0.031180155            2 
  460000    1.0643752   -7.0171142    169.23061  0.030657719  0.031161489            1 
  461000    1.0618536   -7.0812062    169.61717  0.030661094   0.03114243            2 
  462000    1.0838338    -7.083077     169.8881  0.030643596  0.031123471            1 
  463000    1.0775901   -7.0656546     170.0513  0.030606785  0.031104426            2 
  464000    1.0565582   -7.0591512    170.07057  0.030544283  0.031085292            2 
  465000    1.0757135   -7.0795354    170.26805  0.030513987  0.031066437            2 
  466000    1.0601511   -7.0305094     171.4078  0.030652324  0.031048204            2 
  467000    1.0665325   -7.1246525    171.28445  0.030564677  0.031029718            1 
  468000    1.0776613   -7.0502392    171.82784  0.030596125  0.031011096            2 
  469000    1.0619185   -7.0745062     171.4942  0.030471607  0.030992141            1 
  470000     1.058285   -7.0791838    171.97226  0.030491536  0.030972368            2 
  471000    1.0937388   -7.0817316    172.31742  0.030487866   0.03095327            3 
  472000    1.0629555   -7.0623177    173.24273   0.03058664  0.030934628            2 
  473000    1.0865498   -7.1028914    172.91488  0.030464215   0.03091606            2 
  474000    1.0665047   -7.0825028     173.5237   0.03050698  0.030897056            2 
  475000    1.0752623   -7.0581822    173.70409  0.030474401   0.03087809            1 
  476000    1.0724984   -7.0378493    174.26089  0.030507858  0.030859292            3 
  477000    1.0415273   -7.1069486    174.37115  0.030463164  0.030840826            2 
  478000     1.075249   -7.0692772    174.44268  0.030411903  0.030822649            3 
  479000    1.0737283   -7.0374807     175.2598   0.03049057  0.030804464            2 
  480000    1.0659799   -7.0801947    175.31786  0.030437129  0.030786817            2 
  481000    1.0601704   -7.0938004    175.74782  0.030448341    0.0307689            1 
  482000    1.0659959   -7.0739489    176.00819  0.030430185  0.030751274            2 
  483000    1.0611258   -7.1123214    175.75686  0.030323819  0.030732983            3 
  484000    1.0499737    -7.097585    176.04401  0.030310607  0.030715154            2 
  485000    1.0731746   -7.1021193    176.52068  0.030330014  0.030697625            1 
  486000    1.0394124   -7.0665542    177.06802  0.030361458  0.030680311            2 
  487000    1.0763296   -7.0645446    177.52145  0.030376703  0.030663004            2 
  488000    1.0439973     -7.06945    177.96034  0.030389402  0.030646159            2 
  489000    1.0726421   -7.0753784    177.73263  0.030288452  0.030629303            3 
  490000    1.0286039   -7.1188333    177.57669  0.030200118  0.030611442            2 
  491000    1.0647739   -7.0910089    178.47948  0.030291834   0.03059388            2 
  492000    1.0612163   -7.1459303    178.13716  0.030172283  0.030576034            3 
  493000    1.0478342   -7.0863842    178.90068  0.030240142   0.03055768            1 
  494000      1.04251   -7.1196726    179.31434  0.030248709  0.030540012            4 
  495000    1.0497011   -7.1207475    178.90224  0.030118222  0.030522375            1 
  496000    1.0417163   -7.1221203     179.3534  0.030133299  0.030504987            2 
  497000    1.0603811   -7.1071145    180.19779   0.03021425  0.030487523            2 
  498000     1.074535   -7.1112923    180.06002  0.030130526   0.03046964            4 
  499000    1.0603796   -7.1061407    180.23972  0.030100154   0.03045113            2 
  500000    1.0510373   -7.0744912    180.14976   0.03002496  0.030432759            3 
  501000    1.0409656    -7.102706    180.86118  0.030083363  0.030414465            2 
  502000    1.0745813   -7.0814962    181.19431  0.030078736  0.030396238            1 
  503000    1.0566032   -7.1131111    180.96963  0.029981715  0.030378293            2 
  504000    1.0782158   -7.1064421    181.54028  0.030016581  0.030359914            3 
  505000    1.0402271   -7.1449781     181.9568  0.030025875  0.030341721            3 
  506000    1.0422335   -7.0581099     182.1757  0.030002585  0.030323822            2 
  507000    1.0412967   -7.1018623    182.68255  0.030026718  0.030305797            3 
  508000    1.0267297   -7.0864214    182.43827  0.029927538    0.0302885            2 
  509000    1.0652978   -7.0991536    183.04666  0.029968347  0.030271245            2 
  510000    1.0411932   -7.0927741      183.716  0.030018953  0.030253807            5 
  511000    1.0678182   -7.0818057    183.76309  0.029967888  0.030236647            4 
  512000    1.0463973   -7.0871256    183.80998  0.029916989  0.030219254            2 
  513000    1.0469162   -7.0635748    184.13616  0.029911657  0.030201896            1 
  514000    1.0313548   -7.0919569    184.69872  0.029944669  0.030184532            4 
  515000    1.0391703   -7.1187127    184.23246  0.029811078  0.030166989            4 
  516000    1.0578628   -7.1251884    184.79606  0.029844325   0.03014975            3 
  517000    1.0470758   -7.1409361    185.01959  0.029822629  0.030132349            4 
  518000    1.0675732   -7.0795706    185.71838  0.029877475  0.030114916            1 
  519000    1.0448112   -7.1035147     186.0512  0.029873346  0.030097583            1 
  520000    1.0249914   -7.1201131    186.50864  0.029889205   0.03008029            3 
  521000    1.0553223   -7.0978123     186.8037  0.029879031  0.030063277            4 
  522000    1.0523451   -7.0786992    186.55672  0.029782363  0.030046243            2 
  523000    1.0565657   -7.1006087    186.99129  0.029794661  0.030029032            3 
  524000    1.0640751   -7.1091724    187.30277  0.029787337  0.030011835            2 
  525000     1.036581   -7.1081729    187.96533  0.029835767  0.029994454            2 
  526000    1.0400393    -7.118456    187.64598   0.02972845  0.029977001            3 
  527000    1.0333051   -7.1141644    187.49242  0.029647758  0.029959097            3 
  528000    1.0442317   -7.1063887    188.14978  0.029695356  0.029941694            2 
  529000    1.0461272   -7.1291679    188.15237  0.029639629  0.029924175            3 
  530000    1.0359692   -7.1382956    188.24441  0.029598177  0.029906569            1 
  531000    1.0430842   -7.1042323    188.62788  0.029602618  0.029889237            2 
  532000    1.0551596   -7.1411814    189.00076  0.029605382  0.029871651            2 
  533000    1.0587094   -7.1313303    188.82448  0.029522277  0.029854007            2 
  534000    1.0314618   -7.1709506    188.71881  0.029450501  0.029836193            1 
  535000    1.0374318   -7.1017814    190.22727  0.029630416   0.02981835            2 
  536000    1.0414538   -7.1340466    189.95554  0.029532888   0.02980087            3 
  537000    1.0302417   -7.1009163    189.99948  0.029484712  0.029783408            1 
  538000    1.0319842   -7.1135008    190.37595  0.029488221  0.029766267            3 
  539000    1.0336509   -7.1254181     190.1545  0.029399273  0.029748187            2 
  540000    1.0406751   -7.1186835    191.13695  0.029496443  0.029730668            3 
  541000    1.0460045   -7.1090467    191.05739  0.029429665  0.029713438            2 
  542000    1.0384172    -7.148419    191.75048  0.029481931  0.029696281            1 
  543000     1.035986   -7.1283937    192.43633  0.029532893  0.029679343            7 
  544000    1.0313728   -7.1233893     191.8036  0.029381679  0.029662232            1 
  545000    1.0518082    -7.131023     192.3093  0.029405091  0.029645222            3 
  546000    1.0498853   -7.1095483    192.43335   0.02937017  0.029627888            1 
  547000    1.0284688   -7.1600873    192.77227   0.02936811  0.029610675            1 
  548000    1.0313699   -7.1370183    193.30189  0.029395057  0.029593653            4 
  549000    1.0325251   -7.1394289      193.138  0.029316636  0.029576758            2 
  550000    1.0430545   -7.1421925    193.60747  0.029334465  0.029559739            3 
  551000    1.0287728   -7.1024702    194.21394  0.029372949    0.0295425            4 
  552000    1.0243621    -7.164487    193.93017  0.029276897  0.029525308            1 
  553000    1.0269658   -7.1479349    194.50418  0.029310455   0.02950814            4 
  554000    1.0339879    -7.080584    194.80427  0.029302688  0.029490991            2 
  555000    1.0462625   -7.1246355    195.05451  0.029287464  0.029473831            3 
  556000    1.0434219   -7.1211572    194.93298  0.029216574  0.029456513            1 
  557000    1.0220441   -7.1586263    195.04894  0.029181469  0.029439449            2 
  558000    1.0299396   -7.1496089    195.43305  0.029186537  0.029421559            2 
  559000    1.0066507   -7.1823472    195.30707  0.029115544  0.029403696            3 
  560000    1.0175205    -7.161105    195.38243  0.029074766  0.029385359            1 
  561000    1.0226575    -7.173204    194.97213  0.028961993  0.029366979            3 
  562000    1.0374202   -7.2005254    195.56536  0.028998422  0.029348208            2 
  563000    1.0161325   -7.1366502    196.08455  0.029023764   0.02932982            3 
  564000    1.0162374   -7.1123443    196.13182  0.028979288  0.029311819            2 
  565000    1.0514393    -7.166424     196.5575  0.028990782  0.029293831            1 
  566000    1.0374214   -7.1670352    196.59592  0.028945218   0.02927594            1 
  567000    1.0189469   -7.1527683    196.60707  0.028895807  0.029257993            3 
  568000    1.0061838   -7.1825158    197.47637  0.028972471   0.02923987            1 
  569000    1.0145301   -7.1862556    197.49201  0.028923844  0.029221883            3 
  570000    1.0332616   -7.1510971    197.74489  0.028910071  0.029204002            2 
  571000    1.0158276   -7.1614395     198.3921  0.028953897  0.029185988            1 
  572000    1.0189232   -7.1899299    197.25749   0.02873798  0.029167673            2 
  573000    1.0025276   -7.1804927    197.92581  0.028785022  0.029148943            1 
  574000    1.0248831   -7.1477325    197.82208  0.028719814   0.02912995            2 
  575000    1.0134387   -7.1552061    198.21431  0.028726711  0.029110859            4 
  576000    1.0426788   -7.1488216    198.74372  0.028753431    0.0290919            3 
  577000    1.0296595   -7.1910895    198.96031  0.028734881  0.029073184            3 
  578000    1.0119461   -7.1735573    198.69471  0.028646873   0.02905425            1 
  579000    1.0282417   -7.1935515    199.62442  0.028731207  0.029035317            2 
  580000    1.0147962   -7.1647918    199.81712  0.028709356  0.029016542            2 
  581000    1.0104252   -7.1521037    200.78647  0.028798978  0.028998352            3 
  582000    1.0489185   -7.1342683    200.93534  0.028770811  0.028980416            2 
  583000    1.0525565   -7.1822721    201.11058  0.028746509  0.028962464            1 
  584000    1.0145277   -7.1613466    200.68849  0.028637056  0.028944907            3 
  585000    1.0093512   -7.1810195    201.00515  0.028633213  0.028926942            2 
  586000    1.0107034   -7.1504847    200.98487  0.028581466  0.028909227            1 
  587000     1.027237   -7.1926825    202.17752   0.02870209  0.028891233            1 
  588000    1.0249981   -7.1776739    202.13801  0.028647677  0.028873622            2 
  589000    1.0036778   -7.1427465    202.77605  0.028689311  0.028856384            1 
  590000    1.0234755   -7.1870149    202.81373  0.028646007  0.028839801            1 
  591000    1.0131258   -7.1751218     203.4976  0.028693964  0.028823123            1 
  592000   0.99658398   -7.1862597    204.09474  0.028729553  0.028806756            2 
  593000    1.0028045   -7.1807181    203.94969  0.028660721  0.028790585            2 
  594000    1.0431756   -7.1666525     204.7748  0.028728226  0.028774713            3 
  595000    1.0386233   -7.1501588    204.94576  0.028703889  0.028758847            2 
  596000    1.0199766    -7.207588    204.87818  0.028646277   0.02874296            2 
  597000     1.007845    -7.161331    205.63766  0.028704307  0.028727489            2 
  598000    1.0044284   -7.1891185    205.80484  0.028679605  0.028711899            2 
  599000    1.0217545   -7.1900193    206.40022  0.028714554  0.028696697            4 
  600000    1.0308832     -7.19072    206.16125  0.028633507  0.028681102            2 
  601000    1.0235059   -7.1377592    205.65974  0.028516326  0.028665303            4 
  602000   0.99513699   -7.1797589    206.61595  0.028601323   0.02864933            3 
  603000    1.0380038   -7.1759568    206.63888   0.02855706  0.028633479            2 
  604000    1.0195952   -7.1937901    206.76544  0.028527241  0.028617697            2 
  605000    1.0059923   -7.2116073    206.68338  0.028468785   0.02860142            7 
  606000    1.0064941   -7.1747543    207.15064  0.028486062  0.028584857            2 
  607000    1.0082113   -7.1655886    207.58863  0.028499263  0.028568799            2 
  608000    1.0255198   -7.1363436    207.97534  0.028505392  0.028552553            1 
  609000    1.0135786   -7.1918317    207.53954  0.028398952  0.028536292            2 
  610000     1.022758   -7.1575388    208.56914  0.028493052  0.028519754            2 
  611000     1.024568   -7.1913057    208.57095  0.028446666  0.028503529            4 
  612000     1.002748   -7.2361106    208.35785  0.028371167   0.02848728            3 
  613000   0.97284169    -7.213204     208.3647  0.028325816  0.028470739            2 
  614000    1.0036671   -7.1978416    208.64869  0.028318226   0.02845409            1 
  615000    1.0098075   -7.2025294    208.50118  0.028252193  0.028437379            2 
  616000    1.0216099   -7.1844173    208.82473  0.028250098  0.028420451            3 
  617000     1.007463   -7.1810496    209.33491  0.028273218  0.028403501            3 
  618000   0.98031082   -7.2299268    209.50066   0.02824982  0.028386819            2 
  619000    1.0035584   -7.2160966    208.47499    0.0280661  0.028369538            3 
  620000   0.99641633   -7.2260949    209.98952  0.028224398  0.028352361            3 
  621000   0.98862606   -7.1796618    209.44457   0.02810582  0.028335375            5 
  622000    1.0003864   -7.2277123    210.33973  0.028180564  0.028318041            2 
  623000    0.9981289    -7.227393    210.47594  0.028153551  0.028300905            2 
  624000   0.99896114   -7.1972958    210.71724  0.028140658  0.028283917            1 
  625000    0.9945911   -7.1828273    210.19382  0.028025842  0.028266801            2 
  626000   0.98604976   -7.2538114     211.2945  0.028127596  0.028249951            2 
  627000    1.0101064     -7.20957    211.24857  0.028076631  0.028233239            3 
  628000    1.0085405   -7.2282731    212.24265  0.028163833  0.028216785            5 
  629000    1.0162315   -7.1912534    212.13064  0.028104219  0.028200685            1 
  630000     1.014237   -7.2189329    212.57515  0.028118406  0.028184054            2 
  631000    1.0335188    -7.172208    212.16377  0.028019516  0.028167236            4 
  632000    1.0234328   -7.1890363    212.68769  0.028044262  0.028150595            2 
  633000    1.0066611   -7.2291002    212.89988  0.028027893  0.028134067            4 
  634000   0.98202797   -7.1524861    213.12661  0.028013487  0.028117104            3 
  635000    1.0025856   -7.2247589    212.53374  0.027891567  0.028099969            3 
  636000   0.98500508   -7.1923246    213.57209  0.027983764    0.0280827            2 
  637000   0.99871412   -7.2193567    213.32196  0.027907111  0.028065553            2 
  638000   0.99519317   -7.2076809    213.32056  0.027863187  0.028048619            2 
  639000   0.98530103   -7.2084694    213.50481  0.027843611   0.02803152            4 
  640000    1.0120915   -7.1792841    214.46812  0.027925536   0.02801443            3 
  641000   0.98890661   -7.2014008    214.48013  0.027883532   0.02799787            4 
  642000   0.99434462   -7.1995905    214.46367  0.027837963  0.027981122            2 
  643000   0.98020484   -7.2167707    215.07964    0.0278745  0.027964518            5 
  644000    1.0133205   -7.2773508    214.85529  0.027802186  0.027947913            3 
  645000   0.99709134   -7.2499899    215.36792  0.027825313   0.02793105            2 
  646000   0.98676373   -7.1920155    215.94253  0.027856363  0.027914593            1 
  647000   0.97856692   -7.2673775    215.82459  0.027798119  0.027898092            3 
  648000   0.98166324   -7.2004603    216.29184  0.027815308  0.027881756            3 
  649000    1.0036952   -7.1999808    216.42011  0.027788919  0.027865575            3 
  650000   0.99638427   -7.2026236     216.9345  0.027812116  0.027849507            3 
  651000   0.99360414    -7.199332    216.85479  0.027759189  0.027833493            2 
  652000    1.0052741   -7.1818676    217.45224  0.027792976  0.027817541            4 
  653000   0.96692224   -7.2225944    217.30183  0.027731218  0.027801874            2 
  654000     1.013114    -7.214231    217.80123   0.02775245  0.027785926            3 
  655000    0.9998513   -7.2035238    218.82334  0.027840119  0.027770254            2 
  656000    1.0092498   -7.2399575     218.2254  0.027721723  0.027754532            2 
  657000   0.99013743   -7.1974963    218.97439   0.02777453  0.027739172            2 
  658000   0.97635409   -7.2236209    218.93794  0.027727703  0.027723955            3 
  659000   0.99944973   -7.2459212    218.81379  0.027669928   0.02770849            2 
  660000   0.99126992   -7.2068543    219.62889  0.027730921  0.027692942            2 
  661000   0.98671364   -7.2277064    219.46824  0.027668714  0.027677387            1 
  662000   0.99616213   -7.2484041    219.60596  0.027644255  0.027661576            2 
  663000   0.96066592    -7.188794    219.83108  0.027630855  0.027645761            2 
  664000   0.98605371   -7.2438507    219.26356  0.027518017  0.027629976            6 
  665000   0.98788813   -7.2238558    220.14983  0.027587698  0.027613924            2 
  666000    1.0027968    -7.253569    220.42244  0.027580385  0.027598065            3 
  667000    1.0019952   -7.2397083    220.64658  0.027567039  0.027582382            2 
  668000    1.0176338   -7.2503896    220.65235  0.027526491  0.027566574            3 
  669000   0.99936424   -7.2639916    220.56178  0.027474064  0.027550673            3 
  670000   0.97260864   -7.2163112    220.63505  0.027442171  0.027534539            2 
  671000   0.98178955   -7.2495834    220.65105   0.02740326  0.027518493            3 
  672000    0.9782978   -7.2557458    221.15067  0.027424438  0.027502105            3 
  673000   0.98677701   -7.2280468    221.53114    0.0274308  0.027485704            3 
  674000    1.0028214   -7.2621052    222.09192  0.027459436  0.027469571            2 
  675000   0.97529747   -7.2570786     221.5343  0.027349913  0.027453387            3 
  676000   0.97353943   -7.1975086    222.16959   0.02738777    0.0274369            3 
  677000   0.98550241   -7.2494919      221.658  0.027284342  0.027420184            4 
  678000   0.98760428    -7.261233    222.01247  0.027287669  0.027403336            3 
  679000   0.98584244   -7.2231487    222.28192   0.02728055  0.027386505            3 
  680000   0.98893449   -7.2587388    222.62257  0.027282178  0.027370102            3 
  681000   0.97788042   -7.2447336    222.39574  0.027214359  0.027353623            2 
  682000    0.9682808   -7.2686366    222.76902  0.027220066  0.027337138            2 
  683000   0.97227053   -7.2268729    223.32344  0.027247857  0.027320883            2 
  684000   0.97729051   -7.2385925    223.36261  0.027212794  0.027304348            4 
  685000    1.0093062   -7.2760874    223.57226  0.027198571  0.027288315            3 
  686000   0.99505676   -7.2326932    224.53472  0.027275841  0.027272478            3 
  687000   0.97278312   -7.2461915    224.02603  0.027174434  0.027256175            3 
  688000   0.95176469    -7.224889    224.87849  0.027238189  0.027239936           10 
  689000   0.95299534   -7.2406054    224.41397  0.027142474  0.027223889            2 
  690000    1.0021247   -7.2643082    224.80174  0.027149968  0.027207779            2 
  691000   0.97312339   -7.2416362    225.38442  0.027180948  0.027191859            4 
  692000   0.96588301   -7.2570258    225.11637  0.027109389  0.027175827            3 
  693000   0.98283068   -7.2576763    225.30883  0.027093414      0.02716            7 
  694000   0.99390614   -7.2811482    225.18973  0.027040073   0.02714385            3 
  695000   0.96160821    -7.245698    226.05423  0.027104823  0.027127903            2 
  696000    1.0008947    -7.259217    226.25022  0.027089346   0.02711174            5 
  697000   0.98217354   -7.2664399    226.08136  0.027030292  0.027095514            2 
  698000   0.99289355     -7.26937    226.67692  0.027062669  0.027079405            2 
  699000    0.9878479   -7.2740662    226.33999  0.026983785     0.027063            1 
  700000   0.99325979   -7.2730814    227.04076  0.027028662  0.027046433            5 
  701000   0.98274564   -7.2887784    227.46158  0.027040131  0.027030161            1 
  702000   0.97578875   -7.2837937    227.39746     0.026994  0.027014299            2 
  703000   0.96689468   -7.2648818    227.84352  0.027008478  0.026998432            2 
  704000    0.9560259   -7.2661201    228.39606  0.027035519  0.026982631            3 
  705000   0.97466537   -7.2737192    228.27964  0.026983409  0.026966537            3 
  706000   0.98394802   -7.2816256    228.00023  0.026912208  0.026950492            1 
  707000   0.95984536   -7.2686957    228.13515  0.026890046  0.026934104            3 
  708000   0.98796692   -7.3363866    227.69997  0.026800843  0.026917313            3 
  709000   0.99179951    -7.283802    228.10122  0.026810204  0.026900609            5 
  710000   0.96932367   -7.2862856    228.04458  0.026765795  0.026883811            1 
  711000   0.96587646   -7.2668351    227.46034  0.026659674  0.026866653            3 
  712000   0.98621816   -7.3077034    228.64436   0.02676081  0.026849401            4 
  713000   0.95263543   -7.2926893    228.53631  0.026710649  0.026832428            5 
  714000   0.98410439   -7.2693877    228.80508  0.026704608   0.02681555            3 
  715000   0.95960107    -7.273682    229.14644  0.026707045  0.026798832            2 
  716000   0.97964642   -7.2700468    229.17117  0.026672622  0.026782017            1 
  717000   0.97381685   -7.2979864    229.97996  0.026729423  0.026765451            2 
  718000   0.97000821   -7.2621413    230.60587  0.026764841  0.026749375            2 
  719000   0.95589747   -7.2785384    230.06289  0.026664683  0.026733325            2 
  720000   0.96728994   -7.2872588    230.60184  0.026690028  0.026717243            1 
  721000   0.96757164   -7.2529418    230.41119  0.026630974  0.026701074            3 
  722000   0.97494763   -7.2728501    230.46661  0.026600486  0.026684932            2 
  723000   0.96812183   -7.2832931    231.30179  0.026659958  0.026668782            3 
  724000   0.96582655   -7.3074624     230.9865  0.026586844  0.026652424            3 
  725000   0.95526807   -7.3285617    231.08889  0.026561941  0.026636312            2 
  726000   0.96532766   -7.3019598    231.76098    0.0266025  0.026619997            1 
  727000   0.98882049   -7.2692635    231.97918  0.026590919  0.026603915            2 
  728000    0.9683904   -7.2625827    232.42584  0.026605522   0.02658788            2 
  729000   0.94423887   -7.2794724    231.81138  0.026498786  0.026571681            1 
  730000   0.98071203   -7.2964099    232.52724  0.026544206  0.026555683            4 
  731000   0.95442988   -7.2772811    232.65017  0.026521907  0.026539552            1 
  732000    0.9798033   -7.3054046    232.26693  0.026442045  0.026523127            4 
  733000   0.95202119   -7.2866215    232.71654  0.026457088  0.026506604            2 
  734000   0.94803233   -7.3186361    232.31203  0.026375117  0.026490055            2 
  735000   0.96214334   -7.2699622    233.71296  0.026498068  0.026473661            4 
  736000   0.95887363   -7.2987052    233.27061   0.02641198  0.026457298            2 
  737000   0.95073694   -7.3049981    232.50416   0.02628948  0.026440666            2 
  738000   0.95317504   -7.3035551    233.54898  0.026371836  0.026424019            3 
  739000   0.95859437   -7.2642497    233.47023   0.02632727  0.026407279            4 
  740000   0.94560431   -7.3290985    233.16091  0.026256859  0.026390599            3 
  741000   0.95267504   -7.3195154    233.58134  0.026268707  0.026373697            3 
  742000   0.95752167   -7.2702871    233.71035  0.026247793  0.026356795            1 
  743000   0.95347224   -7.2593854    234.42822  0.026292981  0.026340252            2 
  744000   0.95177272   -7.3024585    234.34601  0.026248433  0.026323762            3 
  745000   0.92584342   -7.3027363    234.14467  0.026190679  0.026306712            3 
  746000   0.96583143   -7.3060438    233.35305  0.026067141  0.026289619            3 
  747000    0.9555994   -7.2913303    234.52837  0.026163361  0.026272552            1 
  748000    0.9396901   -7.3079959     234.3208  0.026105259  0.026255514            2 
  749000   0.95578848   -7.3295468    234.32796  0.026071201  0.026238352            2 
  750000   0.95205062   -7.3107812     235.3497  0.026149967  0.026221529            2 
  751000   0.95528581   -7.3344347     234.5873  0.026030548  0.026204431            3 
  752000   0.95563069   -7.3203743    235.20635  0.026064534  0.026187462            2 
  753000   0.94821913   -7.3297417    236.13137   0.02613229  0.026170662            3 
  754000   0.93537795    -7.303989    236.00816  0.026084014  0.026154019            2 
  755000   0.94715294   -7.3280057    236.08066  0.026057468  0.026137057            2 
  756000   0.95229757   -7.3283709    236.18915  0.026034959  0.026120084            1 
  757000   0.96135857   -7.3052144    236.45881  0.026030252  0.026103164            2 
  758000   0.95879545   -7.3540363    235.98725  0.025944069  0.026086318            4 
  759000   0.95961616   -7.3154671    237.10358  0.026032453   0.02606947            2 
  760000   0.93287374   -7.3135361    236.70321  0.025954299  0.026052494            5 
  761000   0.95024731   -7.3311219    236.49572  0.025897473  0.026035546            1 
  762000   0.97772217   -7.2855882    236.68648  0.025884348  0.026018496            2 
  763000   0.94225576   -7.3557491    236.67227  0.025848872  0.026001285            2 
  764000   0.96204083   -7.3385004    236.71258  0.025819435  0.025983993            3 
  765000   0.95245502     -7.29753    237.88872  0.025913804  0.025966875            2 
  766000   0.93049207   -7.3204602    237.21926  0.025807143  0.025949651            1 
  767000   0.95074135   -7.3692259    237.07262  0.025757564  0.025932452            3 
  768000   0.96229458    -7.344676    237.76648  0.025799314  0.025915404            2 
  769000   0.93174921   -7.3532514    236.77988  0.025658852  0.025897937            2 
  770000   0.95705788    -7.363906    237.67324  0.025722212   0.02588044            5 
  771000   0.96123865   -7.2965475     238.0173  0.025726038  0.025862863            2 
  772000   0.94666003   -7.3277388    238.31799  0.025725172  0.025845587            2 
  773000   0.94089376   -7.3686509    237.31724  0.025584006  0.025828182            2 
  774000   0.95755245   -7.3453117    237.82037  0.025605122  0.025810729            1 
  775000   0.94346692   -7.3648831    237.76229  0.025565838  0.025792948            1 
  776000   0.94541916   -7.3391455    238.02109  0.025560684  0.025775297            3 
  777000   0.93221879   -7.3394217    238.06306  0.025532289  0.025757611            4 
  778000   0.95639948   -7.3608455    237.66063  0.025456366  0.025739902            3 
  779000   0.94091071   -7.3182525    238.44531  0.025507628  0.025722032            7 
  780000   0.95219592   -7.3434714    239.60371  0.025598687  0.025704434            2 
  781000    0.9437854   -7.3397118    238.74068  0.025473824  0.025686827            4 
  782000   0.92875977   -7.3644591    239.10398  0.025479963  0.025669242            2 
  783000   0.94754736    -7.331721    238.68688  0.025403031    0.0256513            5 
  784000   0.93472685   -7.3337589    239.30519  0.025436351  0.025633251            3 
  785000   0.95661796   -7.3577204    239.46835  0.025421269  0.025615565            4 
  786000    0.9380063   -7.2998044    239.28573  0.025369564  0.025597922            2 
  787000   0.94831169   -7.3145828    239.29217   0.02533801  0.025580187            2 
  788000   0.90930843   -7.3278039    240.06347  0.025387423  0.025562618            2 
  789000   0.92560748   -7.3327838    239.83702  0.025331328  0.025545119            5 
  790000   0.93726693   -7.3479993    240.21717  0.025339364  0.025527705            2 
  791000   0.94082287    -7.334181    240.90703  0.025380008  0.025510219            2 
  792000   0.91994446   -7.3553708    240.82925  0.025339778  0.025492853            4 
  793000   0.94240422   -7.3872835     240.7441  0.025298875  0.025475232            2 
  794000   0.95463773   -7.3779484     240.8155  0.025274506  0.025457597            6 
  795000   0.92301585   -7.3492355    241.17333  0.025280223  0.025439959            5 
  796000   0.93710491   -7.3705327    240.77189  0.025206438  0.025422364            3 
  797000   0.93110524   -7.3788161    240.53094  0.025149617  0.025404615            2 
  798000   0.92893112   -7.3695591    240.89524  0.025156145  0.025386881            4 
  799000   0.91758304   -7.3564543    241.15135  0.025151372  0.025369135            3 
  800000    0.9346433   -7.3383437    241.96006  0.025204173  0.025351678            2 
  801000   0.93911222    -7.369444    241.78107  0.025154085  0.025334172            4 
  802000   0.91702088   -7.3690412    241.16752  0.025058969  0.025316353            2 
  803000    0.9306609    -7.341865    242.53053  0.025169213  0.025298701            3 
  804000   0.94364781    -7.353083    242.11613  0.025094955   0.02528133            2 
  805000   0.92290116   -7.3605951     242.6404  0.025118054  0.025263716            2 
  806000   0.92964855   -7.3855444    242.19181   0.02504051  0.025246004            4 
  807000   0.93164742   -7.3870693    242.50281  0.025041595  0.025228408            2 
  808000   0.91227049   -7.3638851    242.30312  0.024990009  0.025210727            4 
[...]
 1800000   0.54134087   -8.2760517    284.38039  0.013165759  0.011895052            4 
 1801000   0.53170398   -8.2733123    284.42063   0.01316031  0.011885438            4 
 1802000   0.54005621    -8.248858    284.06727  0.013136666  0.011875821            4 
 1803000   0.52542081   -8.2774387    284.40882  0.013145166  0.011866214            6 
 1804000   0.53054566   -8.2762283     284.0121  0.013119554  0.011856623            8 
 1805000    0.5363913   -8.2688087    284.18219  0.013120138  0.011847042            7 
 1806000   0.52296088   -8.2816185    284.41276  0.013123512  0.011837469            6 
 1807000    0.5215709   -8.2847989    284.29644  0.013110885  0.011827919            7 
 1808000   0.51513066   -8.2867567    284.25958  0.013101935  0.011818369            3 
 1809000   0.54529509   -8.2732007    284.59183  0.013109998  0.011808841            4 
 1810000   0.53285354   -8.2964362    284.71839  0.013108581  0.011799307            3 
 1811000   0.52764012   -8.2742108    284.11219  0.013073449  0.011789779            8 
 1812000   0.52946722    -8.282884    284.49746  0.013083953  0.011780274            4 
 1813000   0.52645261   -8.2854905    284.52128  0.013077831  0.011770767            8 
 1814000   0.53017987   -8.2935151       284.46  0.013067806  0.011761264            5 
 1815000   0.51366148   -8.2780109    284.53072  0.013063853  0.011751773            7 
 1816000   0.53368831   -8.2854639     283.8713    0.0130264  0.011742289            6 
 1817000   0.52571474   -8.2830023    284.26612  0.013037338  0.011732811           11 
 1818000   0.52569807   -8.2803531    284.07955  0.013021615  0.011723334            5 
 1819000   0.52920676   -8.2871342    284.16988  0.013018594  0.011713873            7 
 1820000   0.53358543   -8.3028337    283.60581  0.012985614  0.011704404            7 
 1821000   0.52529373   -8.2852447    284.01003  0.012996981  0.011694943            7 
 1822000    0.5189431    -8.302852    284.13014  0.012995341  0.011685493            5 
 1823000    0.5149071   -8.3020738    283.90575  0.012977955  0.011676057            4 
 1824000   0.52707164   -8.2893014    284.20019  0.012984292  0.011666623            7 
 1825000   0.51865126   -8.3093768    284.69102   0.01299959  0.011657182            7 
 1826000   0.51497003   -8.3016846    283.83219  0.012953276  0.011647766            4 
 1827000   0.53147139   -8.2831583    283.82881  0.012946032  0.011638358            6 
 1828000    0.5191353   -8.3120503    283.87442  0.012941029  0.011628969            3 
 1829000   0.51897698   -8.2988236    283.84115  0.012932438  0.011619591            4 
 1830000   0.52712773   -8.3120418    283.99606  0.012932425  0.011610222            4 
 1831000   0.51746802   -8.3121822    283.74375  0.012913879  0.011600866            7 
 1832000   0.52155752   -8.3041389    283.34418  0.012888654   0.01159151            6 
 1833000   0.52006047   -8.3004395    284.35743  0.012927688  0.011582175            6 
 1834000   0.53205215   -8.3244343    284.38887  0.012922068  0.011572855            5 
 1835000   0.52310459   -8.3075028    283.99672  0.012897217  0.011563537            6 
 1836000   0.52863699   -8.3009876    283.65262  0.012874574  0.011554223            6 
 1837000   0.51937901   -8.3186182    283.61442  0.012865833  0.011544921            5 
 1838000   0.51271559   -8.3109653    284.07131  0.012879548  0.011535623            5 
 1839000   0.52059524   -8.2954308    283.59857  0.012851122  0.011526339            7 
 1840000   0.51990971   -8.3098591    284.05646  0.012864876  0.011517067            8 
 1841000   0.51985962   -8.2929957    284.13205   0.01286131  0.011507809            6 
 1842000   0.51618567   -8.3168524    284.01638  0.012849094  0.011498564           14 
 1843000   0.51942152   -8.3173742    284.00542  0.012841627  0.011489328            4 
 1844000   0.52492544   -8.2972168    284.30783  0.012848329  0.011480103            5 
 1845000   0.51084435   -8.3160385    283.85437  0.012820884  0.011470873            6 
 1846000    0.5191342   -8.3032261     284.2429  0.012831478  0.011461655            8 
 1847000   0.50224727    -8.319432    283.92169  0.012810038  0.011452454            6 
 1848000   0.51246569   -8.3147401    283.80125  0.012797675  0.011443239            9 
 1849000   0.51629199   -8.3287959    283.30574  0.012768422   0.01143404            9 
 1850000   0.49729071   -8.3142021    283.50511  0.012770501  0.011424836            6 
 1851000   0.50440508   -8.3205231    284.39009  0.012803444  0.011415653            6 
 1852000   0.51210298   -8.3164858    283.31087  0.012747969  0.011406473            9 
 1853000   0.50678624   -8.3287445    283.95283   0.01276996    0.0113973            9 
 1854000   0.50703463   -8.3247218    283.90116   0.01276075  0.011388137            4 
 1855000   0.51263975   -8.2983155    283.96988  0.012756958   0.01137899            6 
 1856000   0.51863323   -8.3098613    284.03625  0.012753064  0.011369853            6 
 1857000   0.51083337   -8.3018919    283.95997  0.012742774  0.011360728            5 
 1858000   0.50718048   -8.3078165    283.75712  0.012726817  0.011351598            6 
 1859000   0.50744927   -8.3231243    283.69872  0.012717353  0.011342486            5 
 1860000   0.50583685   -8.3006093    283.53695  0.012703268  0.011333381            5 
 1861000   0.51019486   -8.3189791    283.60659  0.012699561  0.011324277            5 
 1862000   0.51322006   -8.3149809    284.07225  0.012713581  0.011315178            8 
 1863000   0.51706882   -8.3211329    283.75671  0.012692642  0.011306096            5 
 1864000   0.51799228   -8.3144222    283.79197  0.012687409  0.011297023            5 
 1865000   0.49956428   -8.3230682    283.62464   0.01267313  0.011287973            6 
 1866000   0.50601898   -8.3099713     284.2096  0.012692462   0.01127892            7 
 1867000   0.51154388   -8.3127101    284.38056  0.012693294  0.011269866            6 
 1868000    0.5118598   -8.3120183    283.82752  0.012661827  0.011260836            4 
 1869000   0.50590284   -8.3232916    284.09782  0.012667104  0.011251812            4 
 1870000   0.49946665   -8.3253054    283.97388  0.012654807  0.011242787            8 
 1871000   0.51442058   -8.3223709    284.31762  0.012663354  0.011233786            6 
 1872000   0.51377758   -8.3187525    283.97338  0.012641265  0.011224782            6 
 1873000   0.51262609   -8.3250462    284.01249  0.012636256  0.011215776            5 
 1874000   0.50245655   -8.3298222    284.08502  0.012632738  0.011206792            4 
 1875000    0.5085859   -8.3270245    283.37941  0.012594641  0.011197823           10 
 1876000   0.51829379   -8.3412086    283.52372  0.012594337  0.011188849            7 
 1877000   0.49818713   -8.3248624    283.83084  0.012601262  0.011179898            7 
 1878000   0.50628521   -8.3198774    283.99405  0.012601795  0.011170947            8 
 1879000   0.51402169   -8.3330139    283.74231  0.012583924  0.011161998            9 
 1880000    0.5048393   -8.3421079    283.65519  0.012573368  0.011153069            4 
 1881000   0.50395203   -8.3296247    283.75768  0.012571224  0.011144148           11 
 1882000   0.52144616   -8.3330657    283.57857  0.012556614   0.01113524            5 
 1883000   0.50837229   -8.3323763    283.71959  0.012556186  0.011126331            7 
 1884000   0.49100299   -8.3180022     283.5966  0.012544082  0.011117438            6 
 1885000   0.50952735   -8.3336132    283.72604  0.012543149  0.011108544            6 
 1886000   0.50512012   -8.3381285    284.17162  0.012556187  0.011099652            5 
 1887000    0.5032763   -8.3212299    283.92053  0.012538444   0.01109077            6 
 1888000   0.50218119   -8.3298627    283.43682  0.012510453  0.011081899            6 
 1889000   0.49711722   -8.3419341    283.54462  0.012508586   0.01107305            6 
 1890000   0.49645733   -8.3287915    283.64145  0.012506237  0.011064202            5 
 1891000   0.49753993   -8.3262264    283.66159  0.012500511  0.011055359            7 
 1892000   0.49398638   -8.3421919    283.60272  0.012491311  0.011046522           15 
 1893000    0.4966961    -8.339355    283.61023  0.012485042  0.011037695            8 
 1894000    0.5043909   -8.3163947    283.68111   0.01248157  0.011028877            6 
 1895000   0.49929273   -8.3366298    283.81948  0.012481068  0.011020061            7 
 1896000   0.50690649   -8.3256694    283.35854  0.012454226  0.011011248            7 
 1897000   0.49559415   -8.3240779    283.40097  0.012449524   0.01100244            4 
 1898000   0.48874802   -8.3411797    283.34512  0.012440513   0.01099364            9 
 1899000   0.49011026   -8.3513729    283.19991  0.012427589  0.010984852            9 
 1900000   0.49321412   -8.3348364    283.85427  0.012449749  0.010976074            5 
 1901000   0.48094986   -8.3258995    283.61453   0.01243269  0.010967297            6 
 1902000    0.4971366   -8.3435144    283.88244  0.012437892  0.010958532            5 
 1903000   0.50232822   -8.3349472    282.86721  0.012386898  0.010949775           13 
 1904000   0.49316265   -8.3538561    283.19364   0.01239468  0.010941029            5 
 1905000   0.49260657   -8.3420188    282.95762  0.012377849  0.010932291            6 
 1906000   0.50012181   -8.3411708    283.32226  0.012387297  0.010923558           14 
 1907000    0.4959369   -8.3540924    283.40166  0.012384271  0.010914837            7 
 1908000   0.49562963     -8.33438    283.59421   0.01238619  0.010906116            6 
 1909000   0.48043731   -8.3576617      283.536  0.012377161  0.010897416            5 
 1910000   0.49545882   -8.3435948    283.12257  0.012352643  0.010888726            6 
 1911000   0.49266243   -8.3502263    283.57096  0.012365732  0.010880041            7 
 1912000   0.49798988   -8.3455199     283.6671  0.012363454  0.010871376            6 
 1913000   0.48716677    -8.336932    283.59285  0.012353757  0.010862716            6 
 1914000   0.48232945   -8.3502846    283.43975  0.012340637  0.010854063            9 
 1915000   0.47782757   -8.3545861    283.01527  0.012315721  0.010845417            7 
 1916000   0.47982994   -8.3623987    283.10264  0.012313093  0.010836773            9 
 1917000   0.49211921    -8.342866    283.07492  0.012305465  0.010828133           10 
 1918000   0.48829412   -8.3312048    283.32893  0.012310085  0.010819511            7 
 1919000   0.49399445   -8.3561828    283.10562  0.012293973  0.010810893           12 
 1920000   0.48075438   -8.3480837    283.51681  0.012305417  0.010802282            5 
 1921000   0.48334617   -8.3444909    283.55375  0.012300614   0.01079368            7 
 1922000   0.49568725   -8.3428571    283.44927  0.012289684  0.010785091            7 
 1923000   0.49866251   -8.3572864    283.06883  0.012266807  0.010776499            6 
 1924000   0.48341468   -8.3521007    283.10942  0.012262189  0.010767914            6 
 1925000   0.47431242   -8.3521817    283.33821  0.012265724  0.010759335            9 
 1926000    0.4925113   -8.3640857    283.28683  0.012257132   0.01075077            7 
 1927000   0.48546861   -8.3605716    283.47332  0.012258836   0.01074222            7 
 1928000   0.47620839   -8.3625367    282.72805  0.012220265  0.010733668            7 
 1929000   0.47731479   -8.3515299    282.82202  0.012217989  0.010725134            9 
 1930000   0.47586403    -8.367099    282.93838  0.012216683  0.010716603            8 
 1931000   0.48875323   -8.3558788    283.15062  0.012219516  0.010708083            8 
 1932000   0.48089926   -8.3412597    283.02764  0.012207887  0.010699577            7 
 1933000   0.47721782   -8.3599821    283.17488  0.012207919  0.010691075           10 
 1934000   0.47516253   -8.3572055    283.22881   0.01220393  0.010682589            9 
 1935000    0.4764208    -8.350223    282.76274  0.012177551   0.01067411            8 
 1936000   0.47717882   -8.3533083    283.27719  0.012193405  0.010665635            9 
 1937000    0.4801924   -8.3606242    283.33444  0.012189573  0.010657161            8 
 1938000   0.47355816   -8.3701885    283.23283  0.012178914  0.010648695            7 
 1939000   0.48207078   -8.3807192    283.23489  0.012172722  0.010640234            7 
 1940000   0.47428134    -8.365115    283.30434   0.01216943  0.010631784            7 
 1941000   0.46793245   -8.3536424    283.32496  0.012164046  0.010623345           10 
 1942000   0.47062965   -8.3605012    283.20147  0.012152483  0.010614909            7 
 1943000   0.48164414   -8.3786374    283.21929  0.012146993  0.010606477            4 
 1944000   0.48294125   -8.3737047    283.04164  0.012133129  0.010598053            5 
 1945000   0.49011814   -8.3622977    283.00255  0.012125216  0.010589648            8 
 1946000   0.47538306   -8.3618351    282.62625  0.012102871  0.010581238            5 
 1947000   0.47533741   -8.3689528    283.17525  0.012120153  0.010572844            5 
 1948000   0.48102213   -8.3660761    283.12164  0.012111638  0.010564463            7 
 1949000   0.48536434   -8.3679249    282.79073  0.012091275  0.010556082            8 
 1950000     0.481952   -8.3757766    282.94601   0.01209171  0.010547703            9 
 1951000   0.47971625   -8.3689128    282.90093  0.012083587  0.010539329            9 
 1952000    0.4760662   -8.3685196    283.05647  0.012084037  0.010530974            7 
 1953000   0.47924266    -8.377567    283.46062  0.012095094  0.010522629            8 
 1954000   0.46853641   -8.3732525    282.74826  0.012058523  0.010514291            8 
 1955000   0.47271546   -8.3787893    283.32234  0.012076826  0.010505956            8 
 1956000   0.47146703   -8.3795939    282.62262  0.012040841  0.010497624            6 
 1957000   0.47197456   -8.3865803    282.94442  0.012048391  0.010489295            6 
 1958000   0.48443177   -8.3822355      282.942  0.012042135  0.010480983            5 
 1959000   0.46483124   -8.3787176    283.23303  0.012048368  0.010472682            6 
 1960000   0.47218595   -8.3808155    283.32026  0.012045929  0.010464391            7 
 1961000   0.46767043   -8.3811495    283.36747  0.012041793  0.010456096            8 
 1962000   0.46924843   -8.3665631    283.08741   0.01202376  0.010447819            6 
 1963000   0.46000822   -8.3782933    283.12506  0.012019233  0.010439545            5 
 1964000   0.47064844   -8.3640342    282.97946  0.012006936  0.010431285            5 
 1965000   0.45773347   -8.3872808     282.9119   0.01199796  0.010423025            6 
 1966000    0.4792255   -8.3890541     283.0629  0.011998258  0.010414779            7 
 1967000   0.47602263   -8.3813541    282.85004   0.01198314   0.01040653            8 
 1968000   0.47119692   -8.3659509     283.2076  0.011992192    0.0103983            6 
 1969000   0.47107778    -8.384573    282.49302  0.011955858  0.010390072            3 
 1970000    0.4702755   -8.3788724    283.04353  0.011973076  0.010381841            6 
 1971000   0.46562443   -8.3872443    282.90443  0.011961121  0.010373629            8 
 1972000   0.45850238   -8.3833697    282.71076  0.011946871   0.01036542           10 
 1973000   0.47556108    -8.387542    282.59809  0.011936057  0.010357225            4 
 1974000   0.45823172   -8.3775833    282.97332  0.011945851  0.010349038            5 
 1975000    0.4603151   -8.3823317    282.77543  0.011931453  0.010340857            9 
 1976000    0.4597202   -8.3872175    282.84355  0.011928287  0.010332681            4 
 1977000   0.46654893   -8.3775733    282.93192  0.011925979  0.010324509            8 
 1978000   0.46159663   -8.3789569    282.78486  0.011913754  0.010316349            9 
 1979000   0.44287916   -8.3992847    282.45787  0.011893964  0.010308194            6 
 1980000    0.4716881   -8.3920811    282.64761  0.011895943  0.010300045            7 
 1981000   0.46728619   -8.3856071    282.69553  0.011891954  0.010291908           10 
 1982000   0.45420594   -8.3914932    282.41446  0.011874137  0.010283777            8 
 1983000   0.45638868   -8.3991822    282.86665  0.011887151  0.010275657            6 
 1984000   0.45489697   -8.4034662    282.75365  0.011876414  0.010267544            9 
 1985000   0.45161096   -8.3854995    283.02209    0.0118817  0.010259436            8 
 1986000   0.46831137   -8.3811783    282.76343  0.011864864  0.010251336            9 
 1987000   0.45897515   -8.4002167    282.72147  0.011857133  0.010243247            7 
 1988000   0.45964278   -8.4050044    282.65683  0.011848459  0.010235165            8 
 1989000   0.45278844   -8.4033259    282.72205  0.011845234  0.010227099            6 
 1990000   0.46104921   -8.3903591    282.60477   0.01183437  0.010219034            7 
 1991000   0.45501269   -8.3996769    282.61603  0.011828898   0.01021098            9 
 1992000   0.45938487   -8.4143483    282.63759  0.011823861  0.010202928            4 
 1993000   0.46061183   -8.3946707    282.86711  0.011827526  0.010194886            4 
 1994000   0.46580852   -8.4021278    282.48981  0.011805826   0.01018686            5 
 1995000   0.45507196   -8.4032509    282.79258  0.011812555  0.010178843            6 
 1996000   0.45426138   -8.4142323    282.61718  0.011799315  0.010170825           13 
 1997000   0.45259948   -8.4017178    282.70097  0.011796902  0.010162811            3 
 1998000   0.45408775   -8.4027401    282.65792  0.011789203  0.010154805            4 
 1999000   0.46402055   -8.4131581    282.79491  0.011789016  0.010146807            4 
 2000000   0.46286204   -8.3930957    282.35406  0.011764752  0.010138814            4 
 2001000    0.4454388   -8.3991291    282.62873  0.011770312   0.01013083            8 
 2002000    0.4438117    -8.395177    282.46859  0.011757767  0.010122852            6 
 2003000   0.45822072   -8.3895383    282.19793  0.011740636  0.010114882            7 
 2004000   0.45886365    -8.406545    282.35556  0.011741332  0.010106922            6 
 2005000   0.45802324    -8.409986    282.74168  0.011751525  0.010098964            3 
 2006000   0.44763273   -8.3999546    282.33208  0.011728651  0.010091018            9 
 2007000   0.44904869   -8.3954727    282.83016  0.011743488  0.010083074            3 
 2008000    0.4500629   -8.4008888    282.45388  0.011722024  0.010075138            7 
 2009000   0.44756798   -8.4235054     282.4781  0.011717193  0.010067217            5 
 2010000   0.45371162   -8.4147935     282.3197  0.011704797  0.010059293            5 
 2011000   0.45113806   -8.4161314    281.91887  0.011682367  0.010051386            5 
 2012000    0.4456092    -8.400133    282.60883  0.011705137  0.010043481            9 
Loop time of 4711.72 on 48 procs for 2000000 steps with 4000 atoms

Performance: 73348.943 tau/day, 424.473 timesteps/s
99.4% CPU use with 48 MPI tasks x no OpenMP threads

MPI task timing breakdown:
Section |  min time  |  avg time  |  max time  |%varavg| %total
---------------------------------------------------------------
Pair    | 288.71     | 305.64     | 323.29     |  51.1 |  6.49
Neigh   | 30.128     | 31.884     | 33.672     |  13.4 |  0.68
Comm    | 297.21     | 316.57     | 337.64     |  55.1 |  6.72
Output  | 5.1671     | 5.1692     | 5.2234     |   0.3 |  0.11
Modify  | 4002.5     | 4008.9     | 4016.4     |   5.6 | 85.08
Other   |            | 43.57      |            |       |  0.92

Nlocal:        83.3333 ave          93 max          74 min
Histogram: 2 0 3 12 6 10 10 3 1 1
Nghost:        1975.52 ave        2000 max        1936 min
Histogram: 1 1 1 4 7 4 12 11 4 3
Neighs:        12677.3 ave       14978 max       11571 min
Histogram: 8 7 8 9 7 3 4 1 0 1
FullNghs:      25353.9 ave       28635 max       22441 min
Histogram: 2 1 7 7 9 10 7 3 1 1

Total # of neighbors = 1216988
Ave neighs/atom = 304.24700
Neighbor list builds = 107287
Dangerous builds = 2

#clear
#
#next RN
#
#jump SELF
Total wall time: 1:18:35
