
units lj                  # Use reduced LJ style units
atom_style atomic         # Uncharged point particles
atom_modify map hash      # Needed for indexing of clusters etc
                          # Used to be able to find where atoms are in relation to each other.

# Define a lattice with which to populate the simulation cell. With units
# set to 'lj' the second argument to the lattice command is the reduced
# density rho* and the spacings are multiples of that required to acheive
# that density. Also define a simulation cell called 'box' in lattice units
# and fill it with atoms. Here we're creating a box which is ten lattice
# constants in each direction.
lattice fcc 1.0 spacing 1 1 1                 # All equal sizes - gives the right reduced density.
Lattice spacing in x,y,z = 1.5874011 1.5874011 1.5874011

region box block 0 10 0 10 0 10 units lattice # Defines a region, "box", in lattice units
create_box 1 box                              # Creates a simulation box as specified above,
Created orthogonal box = (0.0000000 0.0000000 0.0000000) to (15.874011 15.874011 15.874011)
  2 by 2 by 5 MPI processor grid
                                              # with one type of atom
create_atoms 1 box                            # Creates particles on lattice points
Created 4000 atoms
  using lattice units in orthogonal box = (0.0000000 0.0000000 0.0000000) to (15.874011 15.874011 15.874011)
  create_atoms CPU = 0.002 seconds


# Set the mass of the first (and only) atom type.
mass 1 1.0

# Lennard-Jones interactions between particles, 3.5 sigma cut-off. Apply
# long range tail corrections to energy and pressure and set all coefficients
# to unity since we work in reduced units here. Note that this doesn't shift
# the potential such that it goes to zero at the cutoff. That would require
# pair_modify('shift', 'yes').
pair_style lj/cut  3.5      # non-GPU version
pair_modify tail  yes
pair_coeff 1  1  1.0  1.0   # Intearaction between 1 and 1 set with epsilon = 1 and sigma = 1

write_data data.*
System init for write_data ...
Neighbor list info ...
  update every 1 steps, delay 10 steps, check yes
  max neighbors/atom: 2000, page size: 100000
  master list distance cutoff = 3.8
  ghost atom cutoff = 3.8
  binsize = 1.9, bins = 9 9 9
  1 neighbor lists, perpetual/occasional/extra = 1 0 0
  (1) pair lj/cut, perpetual
      attributes: half, newton on
      pair build: half/bin/atomonly/newton
      stencil: half/bin/3d
      bin: standard

#############################
#   M E L T   S Y S T E M   #
#############################

velocity all create 2.4 5833274 mom yes dist gaussian # Assign velocities
                                                    # Temperature 2.4, random number seed, zero linear momentum
						                                                        # Gaussian distribution

timestep 0.002   # simulation timestep
thermo 100       # output thermodynamic data every 100 steps

# Define a fix  in this case with index 1 applied to all
# particles in the simulation. This fix is for simulations
# in the anisotropic NPT ensemble. Note that we use the MTK
# correction.
fix 1 all npt temp 2.4 2.4 0.1 iso 5.68 5.68 0.5 mtk yes tchain 5 pchain 5 # Use NPT ensemble
                                                                         # Set temperature and pressure and damping
                                                                         # Numbers of thermostats in chain and in barostat
run 1000         # run for 10000 steps
Per MPI rank memory allocation (min/avg/max) = 3.681 | 3.682 | 3.682 Mbytes
Step Temp E_pair E_mol TotEng Press Volume 
       0          2.4   -8.3859253            0   -4.7868253   -2.2405722         4000 
     100    1.2560543   -6.5166947            0   -4.6330842    5.4738617     4090.264 
     200    1.4620147   -6.2944328            0    -4.101959    6.0489469    4141.8953 
     300    1.5805517   -6.0148662            0   -3.6446313    5.8775706    4268.7287 
     400    1.6834669   -5.7107066            0   -3.1861375    5.9071358    4403.4982 
     500    1.7905016   -5.4263411            0   -2.7412601    5.8268731    4549.0839 
     600    1.8978346    -5.162881            0   -2.3168407    5.7228626    4703.0892 
     700    1.9845484    -4.865807            0   -1.8897287     6.002426    4840.6855 
     800    2.1384022    -4.696791            0   -1.4899895    5.9101296    4967.4306 
     900    2.2534752   -4.5516747            0    -1.172307    5.7523082    5085.8653 
    1000    2.3409821   -4.4247023            0  -0.91410702    5.7016656    5179.7126 
Loop time of 0.481034 on 20 procs for 1000 steps with 4000 atoms

Performance: 359226.442 tau/day, 2078.857 timesteps/s
99.8% CPU use with 20 MPI tasks x no OpenMP threads

MPI task timing breakdown:
Section |  min time  |  avg time  |  max time  |%varavg| %total
---------------------------------------------------------------
Pair    | 0.26124    | 0.2803     | 0.29853    |   2.0 | 58.27
Neigh   | 0.050524   | 0.05308    | 0.055591   |   0.6 | 11.03
Comm    | 0.10133    | 0.12053    | 0.13969    |   3.3 | 25.06
Output  | 0.00019486 | 0.00019934 | 0.00025922 |   0.0 |  0.04
Modify  | 0.021781   | 0.02363    | 0.026211   |   1.1 |  4.91
Other   |            | 0.003294   |            |       |  0.68

Nlocal:        200.000 ave         214 max         185 min
Histogram: 1 1 2 4 1 2 4 2 2 1
Nghost:        2060.35 ave        2080 max        2025 min
Histogram: 1 0 0 1 4 0 5 5 0 4
Neighs:        17663.0 ave       19553 max       16156 min
Histogram: 1 3 2 3 4 1 1 4 0 1

Total # of neighbors = 353260
Ave neighs/atom = 88.315000
Neighbor list builds = 87
Dangerous builds = 21

# Equilibrate just above the melting temperature to avoid step fn in T

fix 1 all npt temp 1.25 1.25 0.1 iso 5.68 5.68 0.5 mtk yes tchain 5 pchain 5
run 1000
Per MPI rank memory allocation (min/avg/max) = 3.682 | 3.683 | 3.683 Mbytes
Step Temp E_pair E_mol TotEng Press Volume 
    1000    2.3409821   -4.4247023            0  -0.91410702    5.7016656    5179.7126 
    1100    1.9394202   -4.6489983            0   -1.7405953    5.7043192    5010.4975 
    1200    1.7538302   -4.9709308            0   -2.3408432    5.7068483    4807.0107 
    1300    1.5722219   -5.1950829            0   -2.8373396    5.6802724    4673.3381 
    1400    1.4568845   -5.4057081            0   -3.2209276    5.5567683    4573.8845 
    1500    1.3503547   -5.5212706            0   -3.4962449    5.7302676    4490.7966 
    1600    1.3147643   -5.6482764            0   -3.6766229    5.6898925    4434.2315 
    1700    1.2716924   -5.7297408            0   -3.8226791    5.6958397    4391.1098 
    1800    1.2648862   -5.7893213            0   -3.8924664    5.8003465    4355.9343 
    1900    1.2354209   -5.8175189            0   -3.9648509     5.800932    4342.1233 
    2000    1.2349334    -5.850737            0      -3.9988    5.7262948    4335.4701 
Loop time of 0.472511 on 20 procs for 1000 steps with 4000 atoms

Performance: 365705.948 tau/day, 2116.354 timesteps/s
100.0% CPU use with 20 MPI tasks x no OpenMP threads

MPI task timing breakdown:
Section |  min time  |  avg time  |  max time  |%varavg| %total
---------------------------------------------------------------
Pair    | 0.25775    | 0.27791    | 0.29518    |   2.1 | 58.82
Neigh   | 0.043744   | 0.046387   | 0.049015   |   0.6 |  9.82
Comm    | 0.10177    | 0.12064    | 0.14141    |   3.4 | 25.53
Output  | 0.00019071 | 0.00019747 | 0.00026129 |   0.0 |  0.04
Modify  | 0.022036   | 0.023669   | 0.025892   |   1.0 |  5.01
Other   |            | 0.003707   |            |       |  0.78

Nlocal:        200.000 ave         208 max         193 min
Histogram: 3 2 2 0 3 2 4 1 0 3
Nghost:        2288.05 ave        2299 max        2264 min
Histogram: 1 0 0 2 0 3 2 3 5 4
Neighs:        21066.1 ave       22634 max       19412 min
Histogram: 1 2 3 1 3 1 2 4 2 1

Total # of neighbors = 421322
Ave neighs/atom = 105.33050
Neighbor list builds = 76
Dangerous builds = 7


# Small amount of linear quench

fix 1 all npt temp 1.25 ${temp} 0.1 iso 5.68 5.68 0.5 mtk yes tchain 5 pchain 5
fix 1 all npt temp 1.25 1.96 0.1 iso 5.68 5.68 0.5 mtk yes tchain 5 pchain 5
run 2000
Per MPI rank memory allocation (min/avg/max) = 3.683 | 3.683 | 3.684 Mbytes
Step Temp E_pair E_mol TotEng Press Volume 
    2000    1.2349334    -5.850737            0      -3.9988    5.7262948    4335.4701 
    2100    1.2668594   -5.8392723            0   -3.9394583    5.5608283    4354.6171 
    2200    1.2837394   -5.7939572            0   -3.8688294    5.5662173    4374.0134 
    2300    1.3303888    -5.771357            0   -3.7762727     5.468234    4397.2849 
    2400    1.3329348    -5.690036            0   -3.6911336    5.5474239    4427.1621 
    2500    1.4190711   -5.6749062            0   -3.5468317    5.7249782    4425.6986 
    2600    1.4287889   -5.5585599            0   -3.4159123    6.1228457    4442.2288 
    2700     1.445642   -5.5112521            0   -3.3433311    5.8046807    4490.7422 
    2800    1.5002905   -5.5034118            0   -3.2535388    5.6996098    4511.1924 
    2900    1.5528378   -5.4652776            0   -3.1366033    5.6577861    4535.1772 
    3000    1.5654023   -5.3828205            0   -3.0353041    5.7427854    4564.9632 
    3100    1.5853339   -5.3263584            0    -2.948952     5.599844    4612.0969 
    3200    1.6395128   -5.2773313            0   -2.8186769    5.6813637    4631.5546 
    3300    1.6727175   -5.2214226            0   -2.7129736    5.6922318    4660.1872 
    3400    1.7202482   -5.1988708            0   -2.6191436     5.759333    4671.2688 
    3500    1.7616211   -5.1397288            0   -2.4979579    5.8437529    4692.9145 
    3600    1.7649954   -5.0650193            0   -2.4181881    5.8157639    4733.7768 
    3700    1.8107893   -5.0413763            0   -2.3258714    5.6411442    4772.1554 
    3800    1.8209446    -4.947676            0    -2.216942    5.8559806    4796.6112 
    3900    1.8949951    -4.933751            0   -2.0919689    5.8202419    4817.9938 
    4000    1.9369196   -4.9040923            0   -1.9994392     5.660127    4854.4796 
Loop time of 0.933797 on 20 procs for 2000 steps with 4000 atoms

Performance: 370101.718 tau/day, 2141.792 timesteps/s
100.0% CPU use with 20 MPI tasks x no OpenMP threads

MPI task timing breakdown:
Section |  min time  |  avg time  |  max time  |%varavg| %total
---------------------------------------------------------------
Pair    | 0.51959    | 0.55342    | 0.58518    |   2.7 | 59.27
Neigh   | 0.089665   | 0.093146   | 0.098906   |   0.8 |  9.98
Comm    | 0.19873    | 0.23278    | 0.26075    |   4.4 | 24.93
Output  | 0.00036895 | 0.00037827 | 0.00047158 |   0.0 |  0.04
Modify  | 0.042083   | 0.04673    | 0.052366   |   1.5 |  5.00
Other   |            | 0.007341   |            |       |  0.79

Nlocal:        200.000 ave         209 max         190 min
Histogram: 3 1 1 1 1 3 4 3 2 1
Nghost:        2135.15 ave        2152 max        2123 min
Histogram: 2 4 2 4 2 1 0 2 1 2
Neighs:        18815.8 ave       20651 max       16484 min
Histogram: 2 0 1 1 2 6 3 2 1 2

Total # of neighbors = 376317
Ave neighs/atom = 94.079250
Neighbor list builds = 151
Dangerous builds = 3

#############################
# F R E E Z E  S Y S T E M  #
#############################

# Define solid atoms. This closely follows ten Wolde  Ruiz-Montero and Frenkel  Faraday Discuss  1996  104  93-110
# Compute components of the per-atom q6 vector
compute q6 all orientorder/atom degrees 1 6 components 6 nnn NULL cutoff 1.3 # compute the Q6 parameter.
                                                                             # Use all neighbours within 1.3 unit cell.

# get number of connections
compute coord_number all coord/atom orientorder q6 0.5

# An atom is solid if it has 8 or more connections (of a possible 14)
variable is_solid atom c_coord_number>=8
group solid dynamic all var is_solid    # Must be dynamic to update
dynamic group solid defined

# do clustering
compute cluster solid cluster/atom 1.3 # Create a cluster where all atoms within are solid and max 1.3 units from another member

# define chunks one chunk per cluster
compute clus_chunks solid chunk/atom c_cluster nchunk every compress yes  # Says which atoms are in which chunk

# count the size of each chunk
compute size_chunks solid property/chunk clus_chunks count


# Find the maximum entry in the vector of chunk sizes
variable max_n equal max(c_size_chunks)


# Thermo style which includes this variable
thermo_style custom step temp pe vol v_max_n

thermo ${N}  # Print the thermo information every 100 steps
thermo 100  

# Reset the npt fix at a lower temperature (below freezing)
fix 1  all npt temp  ${temp} ${temp}  0.1  iso  5.68  5.68  0.5  mtk yes tchain  5  pchain  5
fix 1  all npt temp  1.96 ${temp}  0.1  iso  5.68  5.68  0.5  mtk yes tchain  5  pchain  5
fix 1  all npt temp  1.96 1.96  0.1  iso  5.68  5.68  0.5  mtk yes tchain  5  pchain  5

dump dmp2 all dcd ${N} traj_${rand}.dcd
dump dmp2 all dcd 100 traj_${rand}.dcd
dump dmp2 all dcd 100 traj_462431.dcd


# fix rnuntil all halt ${N} v_max_n >= 3980 error soft message no   # Stop when solidified


run 100000 # 5000000  # Run for this many steps
Neighbor list info ...
  update every 1 steps, delay 10 steps, check yes
  max neighbors/atom: 2000, page size: 100000
  master list distance cutoff = 3.8
  ghost atom cutoff = 3.8
  binsize = 1.9, bins = 9 9 9
  4 neighbor lists, perpetual/occasional/extra = 1 3 0
  (1) pair lj/cut, perpetual
      attributes: half, newton on
      pair build: half/bin/atomonly/newton
      stencil: half/bin/3d
      bin: standard
  (2) compute orientorder/atom, occasional
      attributes: full, newton on
      pair build: full/bin/atomonly
      stencil: full/bin/3d
      bin: standard
  (3) compute coord/atom, occasional
      attributes: full, newton on
      pair build: full/bin/atomonly
      stencil: full/bin/3d
      bin: standard
  (4) compute cluster/atom, occasional
      attributes: full, newton on
      pair build: full/bin/atomonly
      stencil: full/bin/3d
      bin: standard
Per MPI rank memory allocation (min/avg/max) = 9.486 | 9.492 | 9.496 Mbytes
Step Temp PotEng Volume v_max_n 
    4000    1.9369196   -4.9040923    4854.4796            1 
    4100    1.9784974   -4.8983864    4882.9798       -1e+20 
    4200    1.9590654   -4.8838741    4878.7933            1 
    4300    1.9922058     -4.84937    4896.4173            1 
    4400     1.968354   -4.8527322    4910.6442            1 
    4500    1.9597868   -4.8521917    4868.7995            1 
    4600    1.9735051   -4.8837307    4843.3747            2 
    4700    1.9086605    -4.919418    4879.8582            1 
    4800     1.945162    -4.867876    4883.1067       -1e+20 
    4900    1.9904386   -4.8209056     4889.616            1 
    5000    1.9767626   -4.8555039    4898.9989            1 
    5100    1.9688076   -4.8874849    4902.7536       -1e+20 
    5200    1.9550556   -4.8639855    4870.6048            1 
    5300    1.9532645   -4.8946897     4854.407            1 
    5400    1.9703524   -4.8544664    4894.2463            1 
    5500    1.9940299   -4.8413799    4899.4957            1 
    5600    1.9451497   -4.8522521    4898.8286            1 
    5700     1.964952   -4.8150871    4896.7808            1 
    5800    1.9863113   -4.8302383    4911.5883            1 
    5900    1.9654046   -4.8824498    4882.0323            1 
    6000    1.9504291   -4.8754836    4869.4695       -1e+20 
    6100    1.9893532   -4.8372679    4905.2578            1 
    6200      1.96849   -4.8517521    4877.6609            1 
    6300    1.9261492   -4.8406935    4893.9787            1 
    6400    1.9551359   -4.8150009     4890.292            1 
    6500    1.9191798   -4.8119642     4880.621            1 
    6600    1.9742522   -4.8570413      4889.44            1 
    6700    1.9322263   -4.8580726    4906.9375            1 
    6800    2.0045319   -4.8395596    4844.9575            1 
    6900    1.9340114   -4.8726433     4889.042            1 
    7000    1.9593135   -4.8949628     4895.455            1 
    7100    1.9784265   -4.8282815    4886.5533            1 
    7200    1.9478772   -4.8335157    4904.7429            1 
    7300    2.0187234   -4.8289563     4909.473            2 
    7400    1.9710267   -4.8511221    4901.9327            1 
    7500    1.9496981   -4.8609429    4869.4483            1 
    7600    1.9303213   -4.8099372    4878.3643            1 
    7700     1.962483   -4.8244984    4893.3086            1 
    7800    1.9501508   -4.8141723    4929.1514            1 
    7900    2.0040069   -4.8664265    4879.5922            1 
    8000     1.972432   -4.8557606    4893.4197            1 
    8100     1.937751   -4.9106972    4890.7619            1 
    8200    1.9577329   -4.8360273    4881.4132            1 
    8300    1.9811138   -4.8127866    4905.6421            1 
    8400    1.9337708   -4.8646769    4900.7048            1 
    8500    1.9470677   -4.8361285     4878.949            1 
    8600    2.0005991   -4.7862002    4891.9841            2 
    8700    1.9630064   -4.8436261     4911.199            1 
    8800    1.9363723   -4.8692103    4884.5835            1 
    8900    1.9742453   -4.8161221    4868.0093            2 
    9000    1.9572319   -4.8523516    4903.1773       -1e+20 
    9100    1.9616878   -4.9000829    4871.5122            1 
    9200    1.9412738   -4.8607645    4872.2481            1 
    9300    1.9913076   -4.8741897    4896.4695            1 
    9400    1.9285495   -4.8161655     4889.015            1 
    9500    1.9726724   -4.9020919    4855.5053       -1e+20 
    9600    1.9332106   -4.8345418    4908.6462            1 
    9700    1.9462415   -4.8250692    4895.9071            1 
    9800    2.0056113   -4.8432452    4911.3886            1 
    9900    1.9722545   -4.8120271    4921.8416            1 
   10000    1.9505508   -4.8120479    4921.7551            1 
   10100    1.9894592   -4.8122844    4897.5684       -1e+20 
   10200    1.9708603   -4.8782432    4870.1015            1 
   10300     1.978168   -4.8810803    4886.9976       -1e+20 
   10400    1.9802763   -4.8305884    4915.3674            1 
   10500    1.9972937   -4.8210051    4912.5474            1 
   10600      1.96024   -4.8510893    4871.5089            2 
   10700    1.9579805   -4.8792375    4875.8614            1 
   10800    1.9660291   -4.8227346    4912.9629            1 
   10900    1.9415491   -4.7908649    4874.5466            1 
   11000    1.9598823   -4.8822855    4872.5705            1 
   11100    1.9408002    -4.936373    4877.6528            1 
   11200    1.9687089   -4.8735674    4884.5406       -1e+20 
   11300    1.9815006   -4.8544115    4872.1069            1 
   11400    1.9068316   -4.8414735    4911.0913            2 
   11500     1.965844   -4.8342644    4890.1182            1 
   11600     1.996408   -4.7882614    4900.4382       -1e+20 
   11700     1.959055   -4.8573355    4925.0295            1 
   11800    1.9718625   -4.8399381    4876.2222            1 
   11900    1.9743588   -4.9008177    4867.6405            1 
   12000    1.9151534   -4.8815574    4903.9959            1 
   12100    1.9888609   -4.8348172    4871.2673            1 
   12200    1.9479465    -4.850704    4886.4848            1 
   12300    1.9654939   -4.8023913    4923.1454            1 
   12400    1.9756518    -4.851123    4907.3364            1 
   12500    1.9404957   -4.8456105    4881.0102            1 
   12600    2.0275152   -4.8787952    4877.5816            1 
   12700    1.9528664   -4.9049439    4885.2276            1 
   12800    1.9506676   -4.8968976    4870.2299            1 
   12900    1.9667644   -4.8352615     4845.361            2 
   13000     1.925482    -4.849532    4876.9406            1 
   13100    1.9169113   -4.9226744    4847.2091       -1e+20 
   13200    1.9293446   -4.8613068    4857.3433       -1e+20 
   13300    1.9706232   -4.8511844    4894.1143            1 
   13400    1.9358317   -4.8371352    4901.8911            1 
   13500    1.9333084   -4.8828523    4856.0575            1 
   13600    1.9797292   -4.8794733    4866.9928            1 
   13700    1.9380612   -4.8390625    4893.9295            1 
   13800    2.0056076   -4.8547141      4903.27            1 
   13900    1.9064296   -4.7894788    4888.1898            1 
   14000    1.9695316   -4.8500726    4861.4828            1 
   14100    1.9497869   -4.7982594    4899.6336            1 
   14200    1.9434193   -4.8209961    4923.7976       -1e+20 
   14300    1.9322197   -4.7936618    4877.8644            1 
   14400    1.9611557   -4.8190046    4883.6039            1 
   14500    1.9511086   -4.8632939    4915.2744            1 
   14600    1.9980071   -4.8680288     4867.811            1 
   14700    1.9736443   -4.9009252    4888.2851            1 
   14800     1.956245   -4.8916799    4872.9437            2 
   14900    1.9586619    -4.863336    4868.9237            1 
   15000    1.9720484   -4.8748235    4885.3064            1 
   15100     1.921912   -4.7950365    4900.4351            1 
   15200    1.9978138   -4.8336319    4887.2811            1 
   15300    1.9446066   -4.8228298    4894.2334            2 
   15400    1.9494288   -4.8661765    4904.6616            2 
   15500    1.9624801   -4.8286465     4868.268       -1e+20 
   15600     1.916149    -4.859764    4872.3333            1 
   15700    1.9446953   -4.8426611    4873.8928            2 
   15800    1.9953859   -4.8156539    4865.3561       -1e+20 
   15900    1.8905049   -4.8273091    4902.0783       -1e+20 
   16000    1.9611645   -4.8324028    4882.5679            1 
   16100    1.9453715   -4.8452712    4866.8282            2 
   16200      1.97645   -4.8742563    4884.7608            1 
   16300    1.9718032   -4.8556275    4904.8073            1 
   16400    1.9630682   -4.8056445    4896.2608            1 
   16500    1.9212002   -4.8206654     4886.348            1 
   16600    1.9888514   -4.8408473    4898.9267            1 
   16700    1.9327854   -4.7752096    4925.0054       -1e+20 
   16800    1.9518246   -4.8371832    4895.9879            3 
   16900    1.9440737   -4.8364893    4847.8054            2 
   17000    1.8969231   -4.8701023    4873.1574            1 
   17100    1.9759298   -4.8755742    4885.4156       -1e+20 
   17200    1.9748602   -4.8901745    4865.5171            2 
   17300    1.9427967   -4.9430625    4845.1087            1 
   17400    1.9327886   -4.8963236    4871.4574            2 
   17500    1.9780801   -4.8797235    4891.3819            1 
   17600     1.987516   -4.8332727    4899.8127            1 
   17700    1.9385298   -4.8364281    4885.4295            1 
   17800    1.9811289   -4.8502423    4878.7406            2 
   17900    1.9255504   -4.8540845     4903.447            1 
   18000    1.9980404   -4.8407241    4899.8907            1 
   18100    1.9751359   -4.8334278    4887.1381       -1e+20 
   18200    1.9535512   -4.8927752    4892.9425            1 
   18300    1.9686041    -4.882491    4878.0857            1 
   18400    1.9923846   -4.8320934    4902.0874       -1e+20 
   18500     1.957159   -4.8232112    4901.2627            1 
   18600    1.9540919   -4.8359788    4888.2104            1 
   18700    1.9531066   -4.8483845    4881.8465            1 
   18800    1.9870586   -4.8228393    4909.8579            1 
   18900    1.9367877   -4.8416869    4907.6066            2 
   19000    1.9361264   -4.8263905    4862.2426            1 
   19100    1.9482054   -4.8391977    4861.2626            1 
   19200    1.9068074   -4.8474415    4873.8926            1 
   19300    1.9650714    -4.854223    4905.1784            1 
   19400    1.9408914   -4.8703902    4863.6493       -1e+20 
   19500    1.9612229   -4.9051794    4883.8939       -1e+20 
   19600    1.9769825   -4.8561455    4875.9171            1 
   19700    1.9041573     -4.86061     4867.406            1 
   19800    1.9706827   -4.8864746    4873.9768            2 
   19900    1.9795435   -4.8849159    4891.8069            1 
   20000    1.9535918   -4.8601324    4896.2087            1 
   20100    2.0153093   -4.8274779     4891.698            2 
   20200    1.9332145   -4.8029435    4910.0974            1 
   20300    1.9749941   -4.8726896    4883.2621            1 
   20400    1.9803085   -4.8246074     4867.497            1 
   20500    1.9167171   -4.8223204    4921.4473            1 
   20600    1.9791865   -4.8449172     4897.537            1 
   20700    1.9903638   -4.8309711    4896.1754            1 
   20800    1.9574776   -4.8772487    4891.3405       -1e+20 
   20900    1.9703403   -4.8629173     4881.552       -1e+20 
   21000    1.9952786   -4.8269533    4902.5576            1 
   21100     1.950299   -4.8673731    4894.6949            2 
   21200    1.9441998   -4.8264378    4878.8807            1 
   21300    1.9666267    -4.845943    4878.9075            1 
   21400    1.9721211   -4.8219512    4923.3369       -1e+20 
   21500    1.9739834   -4.7752758    4924.9879       -1e+20 
   21600     1.981289   -4.8230575    4872.7354            1 
   21700     1.906652   -4.8394788    4905.5375            2 
   21800    1.9417136   -4.7850904     4900.883            1 
   21900     2.012169   -4.8331677    4879.7711            1 
   22000    1.8993185   -4.8475634    4913.5747       -1e+20 
   22100    1.9993677   -4.8413224    4867.9906            1 
   22200    1.9458097   -4.8594808    4909.2964            1 
   22300    1.9706402   -4.8788645    4892.4442            1 
   22400    1.9380423   -4.8252633    4890.0918            1 
   22500    1.9781986   -4.8639942    4898.1383            1 
   22600    1.9477035   -4.8840111    4863.5386            1 
   22700    1.9395875   -4.8526655    4870.3981            1 
   22800    1.9761531   -4.8179997    4899.3599            1 
   22900      1.96941   -4.8395647     4902.893            2 
   23000    1.9551458   -4.8895908    4848.4864            1 
   23100    1.9991994   -4.8837289    4867.2258            1 
   23200    1.9302052   -4.8593715    4893.0278            1 
   23300    1.9641546   -4.8441749    4906.8072            1 
   23400     1.968657     -4.81569    4897.8034            1 
   23500    1.9671379   -4.9045669     4890.127            1 
   23600    1.9435323   -4.8324624    4902.8039            1 
   23700    2.0186347     -4.83383    4907.3195            1 
   23800      1.93565   -4.8235359    4890.9421            1 
   23900    1.9265588   -4.8338093    4905.7811            1 
   24000    1.9822814   -4.8252449    4872.7623            1 
   24100    1.9708983   -4.8669409    4901.7033            1 
   24200    1.9138951   -4.8311441    4893.5537            1 
   24300    2.0005761   -4.8723823    4873.4591            2 
   24400    1.9262095   -4.8681118    4891.9415            1 
   24500    1.9991285   -4.8666795    4865.2579            2 
   24600    1.9448995   -4.8427854    4870.1782            1 
   24700    1.9625935   -4.8966475    4904.4742            2 
   24800    2.0055506   -4.8669321    4921.6899            1 
   24900    1.9510311   -4.8110625    4898.5195       -1e+20 
   25000    1.9732158   -4.8098315    4898.7371            1 
   25100    1.9533105   -4.8881234    4893.6069            1 
   25200    1.9686995   -4.8888425    4866.0466            1 
   25300    1.9181858   -4.8892958    4845.9726            1 
   25400    1.9366748   -4.8513495    4900.8999            3 
   25500    1.9662417    -4.819394    4904.9703            1 
   25600    1.9283274   -4.8150989    4889.2728            1 
   25700    1.9763792   -4.8796311    4858.9175       -1e+20 
   25800    1.9224027   -4.8853521    4879.4116            1 
   25900    1.9555486   -4.8788847    4885.7338            1 
   26000    1.9884305   -4.8450325    4884.8766            3 
   26100    1.9822618   -4.9085277    4872.8649            2 
   26200    1.9463032   -4.8888646    4867.9438            1 
   26300    1.9660886   -4.8326407    4906.4351            2 
   26400    2.0042966   -4.8789639    4898.5595            1 
   26500    1.9300213   -4.8616592    4890.3545            1 
   26600    1.9938064   -4.8986017    4853.0273            1 
   26700    1.9340335    -4.901139    4854.6298            1 
   26800    1.9424601   -4.8505219    4892.5979            1 
   26900    1.9987461   -4.8740158    4888.0952            2 
   27000    1.9767669   -4.8686173    4886.7559            1 
   27100    1.9384162   -4.8945197    4909.2191            1 
   27200    1.9866654   -4.8211235     4865.733            1 
   27300    1.9524941   -4.8304778    4899.6304            2 
   27400    1.9707219   -4.8041948    4927.3483            1 
   27500    1.9839497   -4.7883018    4918.5613            1 
   27600    1.9678681   -4.8546777      4908.62            1 
   27700    1.9824839   -4.8966657    4903.0612            1 
   27800      1.94993   -4.8754409    4852.2437            1 
   27900    1.9716161   -4.8324823     4887.576            1 
   28000    1.9810754   -4.8440584    4916.0658            1 
   28100    1.9248992   -4.8370961    4894.7874       -1e+20 
   28200    2.0123289   -4.8590244     4865.074            1 
   28300    1.9225158   -4.8679844    4907.5537            1 
   28400    1.9730517   -4.8510334     4870.179            1 
   28500    1.9433203   -4.8271475    4872.2723            2 
   28600    1.9657047   -4.8222743    4921.9684            1 
   28700    1.9466912   -4.8388821    4897.9592            1 
   28800    1.9696454   -4.8349941     4890.977            2 
   28900    1.9809278   -4.8480023    4880.4856            1 
   29000    1.9436601   -4.8596971    4878.5045            1 
   29100    1.9912345   -4.8650266    4863.6465            1 
   29200    1.9446634   -4.8838862    4857.3559            2 
   29300    1.8933844   -4.8873724    4889.7694            1 
   29400    2.0045697   -4.8930467    4874.2537            1 
   29500    1.9483598   -4.8758152    4874.4845            1 
   29600    1.9360438   -4.8797046    4873.0368            1 
   29700    1.9504828   -4.8427783    4837.2507            1 
   29800    1.9557795   -4.8306965    4910.8794            2 
   29900    1.9719729   -4.8485031    4912.2498            1 
   30000    1.9679722   -4.8460261    4878.0826            1 
   30100    1.9334658   -4.8620396    4885.8358            1 
   30200    1.9508938   -4.8231264    4903.0602            1 
   30300    1.9469158   -4.7994852    4891.4869            1 
   30400    1.9776237   -4.8138839    4911.3628            2 
   30500    1.9173112   -4.8096687    4923.1274            1 
   30600    1.9549987   -4.8177201    4857.8276            1 
   30700    1.9800613   -4.8444725    4877.9643            1 
   30800    1.9390944   -4.8735462    4912.5642            1 
   30900    1.9854124   -4.8413048    4891.5113            2 
   31000    1.9623238   -4.8374788    4900.1144            1 
   31100    1.9384532   -4.8031462    4900.6303            1 
   31200    1.9808196   -4.7945269     4908.366            1 
   31300    1.9831811   -4.8947783    4901.8722       -1e+20 
   31400    1.9297435   -4.8466369    4874.8884            1 
   31500     1.935371   -4.8503098    4859.6008            1 
   31600    1.9682897   -4.8935305    4906.2298            1 
   31700    1.9737649    -4.846746    4890.2933            1 
   31800    1.9733979   -4.8271407    4891.0733            1 
   31900     1.942401   -4.8836292     4896.684            1 
   32000    1.9592234   -4.9124647    4847.5191            2 
   32100    1.9784981    -4.897213    4854.5109            2 
   32200    1.9101336   -4.8687162    4885.5442            2 
   32300    2.0109765   -4.9022774    4849.8968            1 
   32400    1.9143853   -4.8461062    4893.0757            1 
   32500    1.9834154    -4.852883    4908.8353            2 
   32600    2.0072397   -4.8358129    4882.3751            1 
   32700    1.9322156   -4.8724244    4907.3444       -1e+20 
   32800    1.9614817   -4.8036866    4881.4996            1 
   32900    1.9092916   -4.8250899    4890.2299            2 
   33000    1.9664842   -4.8115756    4884.9504            1 
   33100    1.9330232   -4.8379024    4891.8643            1 
   33200     1.988712   -4.8379647    4907.3453            1 
   33300    1.9697554   -4.8530679    4890.0499            1 
   33400    1.9544179   -4.8845615    4876.0588            1 
   33500    1.9854322   -4.8548092    4875.6041            2 
   33600    1.9290281   -4.8415739     4882.575            1 
   33700    1.9779187   -4.8344388    4903.9998            1 
   33800    1.9654122    -4.780486    4921.2772            1 
   33900    2.0076171   -4.8569887    4897.3529            1 
   34000     1.933246    -4.876708    4905.2651            1 
   34100    1.9830764   -4.8069552     4864.171            1 
   34200    1.9447284   -4.8410953    4910.9652            1 
   34300    1.9396813   -4.8298628    4900.0518       -1e+20 
   34400    1.9955982   -4.8322501    4876.6532       -1e+20 
   34500    1.9349409   -4.8187663    4900.8084            2 
   34600    2.0003022   -4.8831775    4896.5621            1 
   34700     1.944775   -4.8726869    4875.4484            1 
   34800     1.969207     -4.83587    4880.8072            1 
   34900    1.9647744   -4.8668085    4908.2163       -1e+20 
   35000    2.0163191   -4.8577004    4886.5872            1 
   35100    1.9304313     -4.84233    4873.2061            1 
   35200    1.9754877   -4.8397039    4886.0244            3 
   35300     1.930718   -4.8792529    4869.6374            1 
   35400    1.9519977   -4.8909707    4882.9027            1 
   35500    1.9574161   -4.8014617    4876.1396            1 
   35600    2.0064046   -4.8350792    4894.7852            1 
   35700    1.9256713   -4.8243666    4936.9834            1 
   35800    1.9970695    -4.847788    4882.6038            1 
   35900    1.9239289   -4.8165467    4895.8215            1 
   36000    1.9602781   -4.8540181    4879.3491            1 
   36100    1.9590196   -4.8188342    4902.8965            1 
   36200    1.9617162   -4.8694073    4868.0559            2 
   36300    1.9329747   -4.9165671    4860.3149            1 
   36400    1.9389504   -4.8477865    4893.3518            1 
   36500    1.9610183   -4.8112896    4891.1277       -1e+20 
   36600    1.9989142   -4.8440544    4915.2083            1 
   36700    1.9580595   -4.8574758     4913.392            1 
   36800    1.9501456   -4.8503366    4875.6321            1 
   36900    2.0004334   -4.8421383    4896.6294       -1e+20 
   37000    1.9432749   -4.8304232    4897.7548            1 
   37100    1.9888344   -4.8447011    4886.8974            1 
   37200    1.9162436    -4.840394    4903.7481            1 
   37300    2.0047502   -4.8406912    4889.6084            1 
   37400    1.9559213   -4.8169001    4905.8788            1 
   37500    1.9078935   -4.8470196    4888.1799            1 
   37600    1.9737527   -4.8169242    4859.1926            1 
   37700    1.9600263   -4.8228147     4895.874            1 
   37800    1.9332738   -4.8475487    4936.2464            1 
   37900    1.9992943   -4.8396243    4869.7103            1 
   38000    1.9178449   -4.8371914    4889.0772            1 
   38100     1.948872   -4.8498015    4895.1851            1 
   38200    1.9673911   -4.8084835    4861.3851       -1e+20 
   38300    1.9323949   -4.8540523    4900.5925       -1e+20 
   38400    1.9684986    -4.869459    4893.8678            2 
   38500    1.9706457   -4.8212007    4874.0986            1 
   38600     1.951779    -4.860076    4906.8649            1 
   38700     1.978333   -4.9022065    4862.5404            1 
   38800    1.9414446   -4.8634421    4871.4317            2 
   38900    1.9713633   -4.8383065      4912.57            1 
   39000    2.0316768   -4.8125338    4930.8804            1 
   39100    1.9707326   -4.7896632    4943.3524       -1e+20 
   39200    1.9573366   -4.8185705    4897.1859            1 
   39300    1.9283993   -4.7993595    4887.0878            1 
   39400    2.0109306   -4.8568129    4912.4496            1 
   39500    1.9254446    -4.834769    4904.6284       -1e+20 
   39600    1.9768423   -4.8196966    4917.1641            2 
   39700     1.974018    -4.830259     4889.765            1 
   39800    1.9446151   -4.8106654    4885.8949            1 
   39900    2.0168517   -4.7836679    4897.3171            1 
   40000    1.9426262   -4.7995408     4953.098            1 
   40100    1.9862706   -4.8734307    4895.4265            1 
   40200    1.9441824     -4.79804    4881.0571            1 
   40300    1.9507786   -4.8108173    4903.3298            1 
   40400    1.9482033   -4.8678739    4880.6472            1 
   40500    1.9610772   -4.8831374    4868.8055            1 
   40600    1.9521722     -4.79932    4908.3556            1 
   40700    2.0070419   -4.7971022    4907.7031            1 
   40800    1.9263912   -4.8233957    4927.9224       -1e+20 
   40900    1.9673037   -4.8486424    4904.4093            1 
   41000    2.0021976   -4.8507092    4854.7044            1 
   41100    1.9288921   -4.9051822    4891.1381            1 
   41200    1.9538208   -4.8382456    4885.3165            1 
   41300    1.9703045   -4.8243533    4893.3774            1 
   41400    1.9408941   -4.8410949     4903.601            1 
   41500    1.9701336   -4.8332859    4872.9687            1 
   41600    1.9294122   -4.8184929    4897.9205            1 
   41700    1.9908573   -4.8657637    4917.5138            2 
   41800    1.9126067   -4.8126548    4858.0597            1 
   41900     1.959428   -4.8579141    4891.5223            1 
   42000    1.9710922   -4.8392943    4906.8049            1 
   42100    1.9299646   -4.8624359    4887.7252            2 
   42200    1.9659588   -4.8528378     4855.932       -1e+20 
   42300    1.9467875   -4.8427955    4891.3654            2 
   42400     1.956923   -4.8496876    4908.2327            1 
   42500    1.9591266   -4.7952334    4861.2969            1 
   42600    1.9144363   -4.8479379    4872.1743       -1e+20 
   42700    1.9607881   -4.8737975    4897.4376            1 
   42800    1.9943399   -4.9190645    4888.8082            1 
   42900     1.982132   -4.8416846    4883.2095            1 
   43000    1.9580557   -4.8069007    4924.2901            1 
   43100    2.0163918   -4.8395187    4914.7384            2 
   43200    1.9737369   -4.8672417    4901.3137       -1e+20 
   43300    1.9265437   -4.8239257    4867.1423            1 
   43400    1.9697305   -4.8207737    4896.7463            2 
   43500    1.9211632   -4.8321428    4915.3078            1 
   43600    2.0370521   -4.8639371    4893.0642            1 
   43700    1.9461662   -4.8181448    4896.1534            3 
   43800    1.9623584   -4.8478174    4882.0816            1 
   43900    1.9527915   -4.8636724    4881.6797            1 
   44000    1.9520848   -4.8546499     4872.036            2 
   44100    1.9936279   -4.9035605    4888.8554            1 
   44200    1.8967052   -4.8265944    4860.9788            1 
   44300    1.9992902    -4.892135     4880.614            1 
   44400    1.9434251   -4.8445433    4892.2316            1 
   44500    2.0064615   -4.8442383    4898.5692       -1e+20 
   44600    1.9789953   -4.8873167    4876.7385            1 
   44700    1.9390367   -4.8954592    4883.6699            3 
   44800    2.0086791   -4.8848573    4881.5407            1 
   44900    1.9385936   -4.7954257    4907.3308            1 
   45000    1.9665411   -4.8110543    4900.7916            1 
   45100    1.9532182    -4.828734     4892.018            1 
   45200    1.9322562   -4.8268288     4892.228            2 
   45300    1.9861033   -4.8194302    4906.1085       -1e+20 
   45400    1.9642039   -4.8403342    4883.8864       -1e+20 
   45500    1.9397081   -4.8337736    4888.4476            1 
   45600    1.9860945   -4.8198048    4910.6946            1 
   45700    1.9787805   -4.7751473    4936.8238       -1e+20 
   45800    1.9666532   -4.8239496    4903.3213            1 
   45900    1.9833523   -4.9030117    4890.4297            1 
   46000    1.9320355   -4.8496698    4878.8343            1 
   46100    1.9562225   -4.7896105     4914.419       -1e+20 
   46200    1.9713928   -4.8271018    4909.0149            1 
   46300    1.9555477   -4.8686889    4861.8195            2 
   46400    1.9772259   -4.8761338    4882.5703            1 
   46500    1.9656979   -4.8582416    4917.3894            1 
   46600    1.9885342    -4.859544    4862.5146            1 
   46700    1.9494007   -4.8703526    4854.6468            2 
   46800    1.9586695   -4.8573843    4909.0656            1 
   46900    1.9610524   -4.8397269     4889.602            1 
   47000    1.9460856    -4.830395    4876.9366            4 
   47100    2.0044838   -4.8175905    4916.0798       -1e+20 
   47200     1.991433   -4.8582253    4913.7227            1 
   47300    1.9497286   -4.8605858    4912.0496            1 
   47400    2.0024778   -4.8294529    4875.4978            1 
   47500    1.9269993   -4.8340202    4906.2883            1 
   47600    1.9416331   -4.8119633    4906.3812            1 
   47700    1.9839215   -4.8698931    4848.1396            1 
   47800    1.9351602   -4.8878611    4887.4942            1 
   47900    2.0137566   -4.8754855    4892.3798            1 
   48000    1.9708343   -4.8536111    4865.3739            1 
   48100    1.9305356   -4.8515291     4894.084       -1e+20 
   48200    1.9654186   -4.8470267    4887.0684       -1e+20 
   48300     1.964633   -4.8452068    4891.6091            1 
   48400    1.9799398   -4.8594955     4903.265            3 
   48500    1.9518465   -4.8846463     4875.062            1 
   48600    1.9672011   -4.8219227    4898.1407       -1e+20 
   48700    1.9222571   -4.8013305     4905.359            1 
   48800    2.0287641   -4.8100458    4861.9183            3 
   48900    1.8961816   -4.7942755    4918.6265            1 
   49000     1.990377   -4.8777937     4907.213            1 
   49100    1.9718576   -4.8547977     4879.922            1 
   49200    1.9512883   -4.8658135    4886.1235            1 
   49300    1.9681267   -4.8556272    4885.4002            1 
   49400     1.978733   -4.8343468    4888.0888            1 
   49500    1.9420657   -4.8474823    4907.8615            3 
   49600    1.9668879   -4.8506251     4873.053            1 
   49700    1.9789238   -4.8760064    4868.9458            1 
   49800    1.9438535   -4.9267359    4892.6215            1 
   49900    1.9493317    -4.850729     4872.288            3 
   50000    1.9795281   -4.8023312    4893.2493            2 
   50100    1.9973922   -4.9246077    4888.3647            1 
   50200      1.94625    -4.883724    4883.5322            2 
   50300    1.9792536   -4.8612016    4876.8445            1 
   50400    1.9292123   -4.8759811    4856.7555            1 
   50500      1.93775   -4.8840026    4886.4003            1 
   50600    1.9866588   -4.8751185    4870.1661            1 
   50700    1.9702028   -4.8679779    4894.1271       -1e+20 
   50800     1.959392   -4.8387324    4920.7997            3 
   50900    1.9962848    -4.836979    4861.6263            1 
   51000     1.927771   -4.8787981    4879.5747            1 
   51100    1.9898837   -4.9021268    4883.4641            1 
   51200    1.9494051   -4.7737687    4917.0872       -1e+20 
   51300    1.9856653   -4.8045493    4921.1838            2 
   51400    1.9453449   -4.8426837    4901.3923            1 
   51500    1.9712076   -4.8714047    4907.1105            1 
   51600    1.9855468   -4.8168794    4875.0963            1 
   51700    1.9394387   -4.8485373    4881.5166            1 
   51800     1.956057   -4.8165244    4914.6277            1 
   51900    1.9712885   -4.7930846    4903.5582            1 
   52000    1.9465897   -4.8059663    4892.9004            1 
   52100    1.9644807   -4.8267002    4920.7931            1 
   52200    1.9717713   -4.8922017    4852.2183            1 
   52300    1.9209109   -4.8829104    4854.3997            1 
   52400    1.9526087   -4.8556124    4896.4596            1 
   52500    1.9742009   -4.8225849    4927.5627            1 
   52600    1.9612927   -4.8074672    4877.5686            2 
   52700     1.962709   -4.8687526    4846.8766            1 
   52800    1.8998899   -4.8726768    4883.9742            1 
   52900    1.9576365   -4.8283889    4866.9156            1 
   53000    1.9727493   -4.8382962    4895.9345       -1e+20 
   53100    1.9647471   -4.8236615    4946.6762       -1e+20 
   53200    1.9602421   -4.8316424     4875.745            1 
   53300    1.9849883   -4.8849608    4889.2294            1 
   53400    1.9288763   -4.8527807    4913.8096            1 
   53500    1.9821115   -4.8098185    4875.2814            2 
   53600    1.9501731   -4.8795248    4871.3802            1 
   53700    1.9527075   -4.8601913    4889.1579            1 
   53800    1.9516932   -4.8132862    4890.7602       -1e+20 
   53900    1.9771347   -4.8445579    4868.4771            1 
   54000    1.9570017   -4.8854027    4913.4322            1 
   54100    1.9835339   -4.8456915    4897.2102       -1e+20 
   54200    1.9502276   -4.8145891    4889.2703            1 
   54300    1.9680428   -4.8880799    4889.2572            1 
   54400    1.9500033   -4.8837348    4860.0026            1 
   54500    1.9586257   -4.8593612    4891.1169            1 
   54600     1.962054   -4.8450747    4893.9903            1 
   54700    1.9598202   -4.7920688     4897.579            1 
   54800     1.952078   -4.8213568    4908.4681            1 
   54900    1.9404808   -4.8662489    4877.9478            1 
   55000    1.9618627   -4.8643724    4880.1433       -1e+20 
   55100    1.9753293   -4.8526321    4892.6868       -1e+20 
   55200    1.9618232   -4.8727795    4896.7399            2 
   55300    1.9912101   -4.8812568    4875.0917            2 
   55400    1.9500829   -4.8640783    4900.2287            2 
   55500    1.9480942   -4.8489335    4876.2401            1 
   55600    2.0089939   -4.8762227     4892.464            1 
   55700    1.9702133   -4.8678088    4846.7404            1 
   55800    1.9173702   -4.8855518    4892.9194            1 
   55900    1.9594595   -4.8419008    4902.3509            1 
   56000    1.9919564   -4.8479829    4867.2705       -1e+20 
   56100     1.954774   -4.8904064    4908.0091            1 
   56200    1.9505562   -4.9351803    4853.3638            1 
   56300    1.9416641   -4.8620114     4868.904            1 
   56400    1.9841074   -4.8699599    4887.1278            1 
   56500    1.9188435   -4.8714315    4870.0897            1 
   56600    1.9510908   -4.8389731    4882.3101            1 
   56700     1.958319   -4.8291647    4903.0961       -1e+20 
   56800    1.9397388   -4.8890285    4870.3806            1 
   56900    1.9348704   -4.8374372    4898.3075            1 
   57000    1.9816058   -4.8338222    4896.0348            1 
   57100    1.9095546   -4.8192745    4899.2588       -1e+20 
   57200    1.9975099   -4.8060029    4892.9905       -1e+20 
   57300    1.9932634     -4.85419    4896.5677            1 
   57400    1.9251806   -4.8756583    4872.9929            1 
   57500    1.9983478   -4.9014654    4851.7624            1 
   57600    1.9308026   -4.9130194    4878.2701       -1e+20 
   57700    1.9415768   -4.8488931    4900.3011            3 
   57800    1.9981424   -4.8164674    4897.0226            1 
   57900    1.9511593   -4.8037622     4898.997            1 
   58000    1.9282645   -4.8166828    4887.9452            1 
   58100    1.9652652    -4.846328    4881.4269            2 
   58200    1.9897799   -4.8285764    4905.2257       -1e+20 
   58300    1.9297106   -4.8555252    4896.1625            1 
   58400    1.9250137   -4.7986787    4892.7838            1 
   58500    2.0142407   -4.8313986     4903.521            4 
   58600    1.9427583   -4.8311172    4908.4423            1 
   58700    1.9880383   -4.8139095    4874.8118            1 
   58800    1.9238351   -4.8513339    4900.1476            1 
   58900    1.9750963   -4.8344729    4917.0175            1 
   59000    1.9849265   -4.8345869    4900.5226            1 
   59100    1.9838741   -4.8556324    4907.9792       -1e+20 
   59200    1.9501991   -4.8827014    4886.4237            1 
   59300    1.9502471   -4.8535155    4889.5983            2 
   59400    1.9517972   -4.8151236    4888.3889            1 
   59500    1.9933359   -4.8072799    4881.9153            2 
   59600    1.9066808   -4.8269732    4911.1828            1 
   59700    2.0055019   -4.8796265    4886.9013            1 
   59800    1.9717856   -4.8558376    4884.4346            1 
   59900    1.9186657   -4.8764752    4907.1893            1 
   60000    1.9668666   -4.7947337    4856.5079            1 
   60100    1.9295456   -4.8211089    4902.6446            2 
   60200    1.9567972   -4.8215583    4944.0619            2 
   60300    2.0013799   -4.7753864     4907.302            1 
   60400    1.9368485   -4.8093653     4903.214            1 
   60500    1.9473996   -4.8507572    4879.0241            1 
   60600    1.9434821   -4.8362286    4887.1928            1 
   60700    1.9977785   -4.8655028    4905.5118            1 
   60800    1.9142743   -4.8412753    4884.8892       -1e+20 
   60900    1.9610298   -4.8276729    4871.9094       -1e+20 
   61000    1.9374363   -4.8945131    4875.1664            1 
   61100    1.9583018   -4.8470615    4881.9904            1 
   61200    1.9886726   -4.8682341    4893.7745            1 
   61300    1.9531275   -4.8943558     4889.844            1 
   61400    2.0183167    -4.849319    4885.2133            1 
   61500    1.9498154   -4.8157906    4892.0858            1 
   61600    1.9777268   -4.8154251    4906.3102            1 
   61700    1.9363774   -4.8701548    4926.6804            1 
   61800    1.9892148   -4.8436183    4872.5192            1 
   61900    1.9611396   -4.8924833    4869.7303            1 
   62000    1.9495336   -4.8479324    4919.5279            1 
   62100    1.9938533   -4.8188801    4919.3263            1 
   62200    1.9771722   -4.8269762    4884.8039            2 
   62300    1.9415986   -4.8751293    4889.4572            2 
   62400    1.9934935   -4.8554219    4867.2796       -1e+20 
   62500    1.9150903   -4.8653946    4896.1268            1 
   62600    1.9934724   -4.8626905    4875.9733            1 
   62700    1.9460055   -4.8402013    4899.3661            1 
   62800    1.9682995   -4.8113658    4921.2744            1 
   62900     1.996449   -4.8177827     4899.642            1 
   63000    1.9466429   -4.8512685    4878.7463            1 
   63100    1.9429793   -4.8195979    4898.4278            1 
   63200    1.9873832   -4.8122978    4911.1142            2 
   63300    1.9492148   -4.8103467    4909.2017       -1e+20 
   63400    1.9522166   -4.7729637    4894.9979            1 
   63500    1.9239016   -4.8196708    4884.1616            1 
   63600    1.9803074   -4.8285558    4899.7158            1 
   63700    1.9514075   -4.8852577    4898.2218            2 
   63800    1.9657391   -4.8148672    4897.4697            1 
   63900    1.9767149   -4.8350078      4896.88            1 
   64000     1.928451   -4.8634414    4895.7294            1 
   64100    1.9850331   -4.8535817    4880.8741            1 
   64200    1.9523864   -4.8659522    4890.9693            1 
   64300     1.950689   -4.8763529    4884.9382            2 
   64400    1.9791357   -4.8236419    4876.7006            1 
   64500    1.9149579    -4.847076    4888.6937            1 
   64600    1.9772414   -4.8885123    4880.0181            1 
   64700    1.9586384   -4.8596432    4872.5085            1 
   64800    1.9924131   -4.8830518     4896.722            1 
   64900    1.9184393   -4.8406649    4900.1758            2 
   65000    1.9608432   -4.8218229    4887.0069       -1e+20 
   65100    1.9597229   -4.8777821    4913.3206            1 
   65200    1.9463312   -4.9114124    4848.1069            3 
   65300      1.96535   -4.9107192    4879.1402            1 
   65400    1.9618092   -4.8429301    4893.1264            1 
   65500    1.9768962   -4.8095179    4921.1373            2 
   65600    1.9798875   -4.8178666    4931.0637            1 
   65700    1.9645853   -4.8080825    4861.4164            1 
   65800    1.9109949   -4.8289781    4883.4577            1 
   65900    1.9487786   -4.8542216    4892.9696       -1e+20 
   66000    1.9963695   -4.8395234    4875.1547            1 
   66100    1.9449576   -4.7990521    4935.1734            1 
   66200    1.9628919   -4.8145017    4918.6033       -1e+20 
   66300    1.9702816   -4.8263731    4868.3387            2 
   66400    1.9287986   -4.8238065    4899.9049            1 
   66500    1.9870643   -4.8465283    4906.4969       -1e+20 
   66600    1.9650144   -4.8349589     4875.982            1 
   66700    1.9389458   -4.8738794    4895.8882            3 
   66800    1.9580333    -4.808899    4885.9473            1 
   66900    1.9835163   -4.8307966    4895.4174            1 
   67000    1.9270383   -4.8369042    4912.9151            1 
   67100    1.9865214   -4.8478789    4887.9297            1 
   67200    1.9626216   -4.8283587    4894.5717            1 
   67300    1.9116652    -4.832252    4881.9209            1 
   67400     1.975433   -4.8318395    4892.8976            1 
   67500    1.9411819   -4.8265808    4900.9019            1 
   67600    1.9964981   -4.8388583    4881.7982            1 
   67700    1.9177135   -4.8408047    4886.2649            2 
   67800    1.9713939   -4.8410349    4892.2688            1 
   67900     1.977917   -4.7867008    4921.3622            1 
   68000    1.9921953   -4.8594476    4895.9633            1 
   68100    1.9308174   -4.8391504     4885.424       -1e+20 
   68200    1.9758654   -4.8838452    4866.6876            1 
   68300    1.9035464   -4.8686982    4852.9157            1 
   68400    1.9520967   -4.8393396    4877.3898       -1e+20 
   68500    1.9441951   -4.8400888    4868.0795            1 
   68600    2.0234797   -4.8703663    4898.7905            2 
   68700    1.9718562   -4.8998038    4898.9584            1 
   68800    1.9259127   -4.8439154    4845.5932            1 
   68900    2.0058255    -4.880269    4854.6995            1 
   69000    1.9156466   -4.8150701    4927.9268            1 
   69100    1.9797266   -4.8153273    4898.0719            2 
   69200    1.9882728    -4.881995    4889.9714       -1e+20 
   69300    1.9098488   -4.8779936     4873.791            1 
   69400    1.9903626   -4.8800298    4876.4429       -1e+20 
   69500    1.9465505   -4.8091877    4894.9943            1 
   69600    1.9452615   -4.8029339    4895.6287            1 
   69700    1.9703598   -4.8053492    4879.3288            1 
   69800    1.9308786   -4.8485946    4901.4724            1 
   69900    1.9771564   -4.8720862    4867.1732       -1e+20 
   70000    1.9364192    -4.877119    4858.1424            1 
   70100    1.9461899   -4.8405532     4898.432            1 
   70200    2.0178903   -4.8076545    4875.0014            1 
   70300     1.927764   -4.8245161    4931.2844            1 
   70400    1.9661666   -4.8448076    4905.6039            1 
   70500    1.9804685   -4.8502398    4851.2799            1 
   70600    1.9202202   -4.9006763    4874.4065            1 
   70700    1.9663051   -4.8760984     4890.533            2 
   70800     2.002549   -4.8414449    4897.3479            1 
   70900    1.9212529   -4.8341674    4896.8248            1 
   71000    1.9631021   -4.8605731    4890.0187            1 
   71100    1.9845226   -4.8065152    4896.6327            1 
   71200    1.9606631   -4.8244464    4882.3291            1 
   71300    1.9343402    -4.863849    4879.7406            1 
   71400     1.980548   -4.8170204    4889.4352       -1e+20 
   71500    1.9498525   -4.8287461    4895.4325       -1e+20 
   71600    1.9374556    -4.936249    4894.0688            2 
   71700    1.9974021   -4.9102097    4869.3548            1 
   71800    1.9635482   -4.8557654    4892.4369            1 
   71900    1.9485133   -4.8133245    4911.1792            1 
   72000    1.9900302   -4.7658481    4892.3263       -1e+20 
   72100    1.9464776   -4.8211083    4904.4502       -1e+20 
   72200    1.9591417   -4.8665386    4891.9696            1 
   72300     1.979444   -4.8335033    4894.5301            2 
   72400     1.946579   -4.8344283    4897.1156            2 
   72500    1.9862044   -4.8682697    4877.0799            3 
   72600    1.9263864   -4.8834703     4864.684            1 
   72700    1.9545185   -4.8754305    4887.3471            2 
   72800    1.9724998   -4.8390699    4850.1864            1 
   72900    1.9421048   -4.8508348    4881.9313            1 
   73000     1.907591   -4.8158955    4899.6128            1 
   73100    2.0398129   -4.8756761    4871.0906            1 
   73200    1.9593304    -4.896164    4906.3253            1 
   73300    1.9655324   -4.8431618    4881.5274            1 
   73400    1.9508455   -4.8689775    4868.8756            1 
   73500    1.9533322   -4.8528018    4917.9473            1 
   73600    1.9737283   -4.8349755    4884.8309            1 
   73700    1.9442637    -4.851121    4863.0965            1 
   73800    1.9321582   -4.8427164    4875.1483            1 
   73900    1.9604342   -4.8510249    4887.1699            2 
   74000    1.9348703   -4.8187811    4906.6691       -1e+20 
   74100    1.9778304   -4.8014054    4897.4281       -1e+20 
   74200    1.9523126   -4.8599561    4893.1941       -1e+20 
   74300    1.9705736   -4.8670171    4885.4377            1 
   74400    1.9517464   -4.8335326    4897.6071            1 
   74500    1.9340449   -4.8242898    4875.6967            1 
   74600     1.931077   -4.8020867    4909.1294            1 
   74700    1.9837736   -4.8298799    4900.6218            1 
   74800    1.9433909    -4.843784    4906.1301            1 
   74900     1.946221   -4.8177402    4902.3784            1 
   75000    1.9604335   -4.8808185    4847.7697            1 
   75100    1.9370679   -4.9207544    4882.4305            1 
   75200    1.9514228   -4.8622025    4894.1033            1 
   75300    1.9919053   -4.8225728    4904.8349            1 
   75400    1.9486059   -4.8438871    4889.1119       -1e+20 
   75500    1.9613351    -4.868215    4901.5697            1 
   75600    1.9636665   -4.8094811    4897.4985            2 
   75700    1.9361959    -4.867557    4877.0276            1 
   75800    1.9502261   -4.9009663    4875.2547            2 
   75900    1.9973669   -4.8744332    4890.0723            1 
   76000    1.9495975   -4.8740418    4886.1052            1 
   76100    1.9697092   -4.9263284    4831.4548            1 
   76200    1.9839048   -4.8613775    4872.4829            1 
   76300    1.9266135   -4.8427636    4897.1293            1 
   76400    2.0053392   -4.8612402    4881.9272            1 
   76500     1.968102   -4.7836706    4930.1902            1 
   76600    1.9831745   -4.8170991    4908.2513            1 
   76700     1.953045   -4.8512834    4883.1507            1 
   76800    1.9707971   -4.8571992    4873.2309       -1e+20 
   76900    1.9750877   -4.8308021    4915.5128            1 
   77000    1.9268302   -4.8317224    4891.4756            2 
   77100    2.0047245   -4.8532706    4868.3724            1 
   77200    1.9351868   -4.8388134    4928.6968       -1e+20 
   77300    1.9156682   -4.8606474    4863.1747            1 
   77400    1.9898769   -4.8938344     4865.649            2 
   77500    1.9088507   -4.8614383    4902.2886            2 
   77600    2.0237072   -4.9115374    4869.2895            1 
   77700    1.9393625   -4.8445852    4897.0659            1 
   77800    1.9722484   -4.8414661    4908.7832            1 
   77900    1.9335227   -4.7994417    4897.3046            1 
   78000    1.9489803   -4.8356935    4865.2668            1 
   78100    1.9486671   -4.8582517    4891.8959            1 
   78200    1.9466717   -4.8050858    4889.7792            1 
   78300    1.9552743   -4.8532299    4869.9912            1 
   78400    1.9132349    -4.877539    4873.1343            1 
   78500    1.9655429   -4.8592225    4900.3977            1 
   78600    1.9879892    -4.858754    4895.6113            1 
   78700    2.0039131     -4.83537    4913.7544            2 
   78800    1.9249751   -4.7975612    4879.8224            1 
   78900    1.9548214   -4.8393156    4888.4819            1 
   79000    1.9397221   -4.7853871    4912.6375            1 
   79100    1.9818945   -4.8206983     4899.586            1 
   79200    1.9366129   -4.8277341    4899.6672            1 
   79300    1.9224891   -4.8409585    4919.6362            1 
   79400    1.9891537    -4.776255     4878.034            1 
   79500    1.9377693   -4.8163736    4917.6931            1 
   79600    1.9300529   -4.8776131    4880.3281            1 
   79700    1.9688051   -4.8747376    4872.2761       -1e+20 
   79800    2.0196724   -4.8628488    4900.8048            2 
   79900    1.9131769   -4.8287844    4914.0368            1 
   80000    1.9611911   -4.8204949    4877.5519       -1e+20 
   80100    1.9774339   -4.7871473    4883.1133            2 
   80200    1.9559791   -4.9004994    4895.4669            1 
   80300    1.9469869    -4.913528      4868.71            1 
   80400     2.004247   -4.8792123    4879.1049       -1e+20 
   80500    1.9522263   -4.8529475    4897.3522            1 
   80600    1.9567822   -4.7682626    4897.4525       -1e+20 
   80700    1.9704583    -4.787955    4915.6322            3 
   80800    1.9678303   -4.8759583    4884.4211            1 
   80900    1.9382983   -4.8600665    4861.9746            1 
   81000    1.9510516   -4.8428197    4905.9686            1 
   81100    1.9556152   -4.8369893    4891.9638       -1e+20 
   81200    1.9790995    -4.858459    4864.2251            1 
   81300    1.9312557   -4.9226386    4889.8939            1 
   81400    1.9986331   -4.9221586    4861.8504            1 
   81500    1.9942447   -4.8269046     4881.847       -1e+20 
   81600    1.9464161   -4.8434461    4927.3015       -1e+20 
   81700    1.9927339   -4.8229567    4915.6916            1 
   81800    1.9558767   -4.8373095    4875.2008            1 
   81900    1.9778389    -4.867677     4889.163            1 
   82000    1.9282458   -4.8861315    4884.0814            2 
   82100    1.9524298   -4.8113052    4864.6891            1 
   82200    1.9576684   -4.8358872    4898.5377            1 
   82300    1.9916085   -4.8272802    4929.0889            1 
   82400    1.9668507   -4.8987834    4886.7716            1 
   82500    1.9149443   -4.8250748    4894.9502       -1e+20 
   82600    1.9686964   -4.8303857    4902.3119            2 
   82700    1.9736255   -4.8261824    4911.9781            1 
   82800    1.9126308   -4.8187746    4885.5967            2 
   82900    1.9896491    -4.868202    4895.4388            1 
   83000    1.9477244   -4.8422121    4911.5337       -1e+20 
   83100    1.9580361   -4.8960516    4866.9287       -1e+20 
   83200      2.01761   -4.9252833    4880.4547            1 
   83300    1.9425078   -4.8947581     4884.301            1 
   83400    1.9519684   -4.7772683    4858.8688       -1e+20 
   83500    1.9101383   -4.7859367    4921.8991       -1e+20 
   83600    1.9784159   -4.8149983    4929.5117            1 
   83700    1.9857496   -4.8729613    4869.8433            1 
   83800    1.9318806   -4.8544405    4891.3275       -1e+20 
   83900    1.9638959   -4.8249434    4899.5559            1 
   84000    1.9640199   -4.8406451       4905.2            1 
   84100    1.9322397   -4.8895501    4867.6761            2 
   84200    1.9456317   -4.8458998    4856.8738            1 
   84300    1.9607462   -4.8058402    4892.9311            1 
   84400     1.934032   -4.8780438    4920.9956            2 
   84500     1.954049   -4.8848849    4845.4116            2 
   84600    1.9657297    -4.873677    4873.0908       -1e+20 
   84700    1.9069706   -4.7899911    4900.0133            1 
   84800    2.0179359   -4.8307576    4901.2054            2 
   84900    1.9794707   -4.8519973    4902.0765            1 
   85000    1.9434101   -4.8663177    4881.6363            1 
   85100    1.9472451   -4.8221658    4866.7697            1 
   85200    1.9856458   -4.8151905    4913.0191            1 
   85300     1.948057   -4.8326282    4906.8213            1 
   85400    1.9878315   -4.9096073     4871.333       -1e+20 
   85500    1.9690428   -4.8654819    4886.1872            1 
   85600    1.9667129   -4.8436728    4890.4494            1 
   85700     1.948799    -4.877602    4896.2467            1 
   85800     1.963019   -4.8061302    4883.3246            1 
   85900    1.9415215   -4.8236321    4913.0179            1 
   86000    1.9532758   -4.8224783    4913.1435            1 
   86100    1.9958431   -4.7986666     4887.767            1 
   86200    1.9108564   -4.8325116     4938.564            1 
   86300    1.9997493   -4.8445735     4885.612            1 
   86400    1.9142332    -4.787445    4893.4955            1 
   86500    1.9629062   -4.8362744    4895.3441            1 
   86600    1.9984457   -4.8355195    4895.9553       -1e+20 
   86700    1.9537351   -4.8925872    4879.6033            3 
   86800    1.9741402   -4.8320265    4878.7722            1 
   86900     1.950417   -4.8199925    4921.8398            1 
   87000    1.9586845   -4.7892492    4930.1607       -1e+20 
   87100    1.9967083   -4.8320956    4871.6064            1 
   87200    1.9047713   -4.8547763    4902.1724            1 
   87300    1.9689685   -4.8634946    4872.3443       -1e+20 
   87400    1.9333631   -4.8721673    4858.4932            2 
   87500    1.9295133   -4.8099941    4903.6643            1 
   87600      1.97013   -4.8305886    4884.6843            1 
   87700    1.9417658   -4.8319418    4900.2402            1 
   87800    1.9579035   -4.8169562    4911.5328            1 
   87900    1.9628245   -4.8315179    4882.7658            1 
   88000    1.9223991    -4.881369     4862.526            1 
   88100    1.9534692   -4.8624231     4872.788            2 
   88200    1.9467094   -4.8362668    4875.3817            1 
   88300     1.949254   -4.8084178    4903.7677            1 
   88400    1.9517436   -4.8076912    4908.2239            1 
   88500    1.9622491   -4.8518287    4864.1827            1 
   88600    1.9743763    -4.880327    4882.2154            1 
   88700    1.9539926    -4.881452    4888.6981            1 
   88800    1.9542661   -4.8502278    4880.9952            1 
   88900    1.9772996   -4.8285856    4882.1478            1 
   89000    1.9338775   -4.8599946    4889.6952            1 
   89100    1.9674566   -4.8215415    4886.2039            1 
   89200    2.0054317   -4.7816936    4932.9709            1 
   89300    1.9831498   -4.8299425    4911.6764            2 
   89400    1.9398671   -4.8364352     4877.879            1 
   89500     1.928537   -4.8560834    4885.1712            1 
   89600    1.9609008   -4.7929359    4900.1151            1 
   89700    1.9379263   -4.8240637    4897.4357       -1e+20 
   89800    1.9437791   -4.9043771    4872.1641            1 
   89900     1.956515   -4.8759509    4870.2102            2 
   90000    1.9642006   -4.8368738    4891.1929            2 
   90100    1.9591233   -4.8766815    4885.1966            1 
   90200    1.9505603   -4.8409047    4869.5706            1 
   90300    1.9615649   -4.8163232    4918.0178            1 
   90400    1.9775441   -4.8482641    4901.8265            1 
   90500    1.9547163   -4.8021253    4895.1854            2 
   90600    1.9491144   -4.8330227    4920.7316            2 
   90700    1.9574284    -4.828835     4889.539            2 
   90800    1.9571366    -4.858086    4847.8933            1 
   90900    1.9285759   -4.8524289    4902.1557            2 
   91000    1.9913326   -4.8693207    4878.8285            1 
   91100    1.9622475    -4.883904    4885.5404       -1e+20 
   91200     1.982617    -4.840328    4908.3656            1 
   91300       1.9918   -4.8172734    4908.9966            1 
   91400     1.938839   -4.8442721    4894.1314            1 
   91500    1.9728162   -4.8121199    4910.7997            2 
   91600    2.0019073   -4.7810236    4937.2754            1 
   91700    1.9572969   -4.8111601    4903.2047            1 
   91800     1.955254   -4.7680827    4904.3827            1 
   91900    1.9314461   -4.7965268     4931.956       -1e+20 
   92000    1.9515941   -4.8168173    4881.0661            1 
   92100    1.9895525   -4.7975631    4897.2907            1 
   92200    1.9590556   -4.8396706    4946.6096            1 
   92300    1.9763611   -4.8430317    4901.3287            2 
   92400    1.9815201   -4.8314434    4878.6107            1 
   92500    1.9152476   -4.8620301    4888.0114       -1e+20 
   92600    1.9439323   -4.8212548    4891.9082            1 
   92700    1.9643725   -4.8010937    4895.7584            1 
   92800    1.9356315   -4.8511582    4895.1155            1 
   92900    1.9531637    -4.848412    4864.3876            1 
   93000    1.9339967   -4.8533078    4877.2877            2 
   93100    1.9517818   -4.8023977    4917.3499            1 
   93200     1.982206   -4.8367711    4876.2711            1 
   93300    1.9388111   -4.8515389    4905.0722            1 
   93400    1.9669238   -4.8445069     4910.688            1 
   93500    1.9478644   -4.8645906    4866.6786            1 
   93600    1.9487093   -4.9027278    4890.0679            1 
   93700    1.9671762   -4.8287452    4894.9246            2 
   93800     1.986425   -4.8492003    4911.8947            1 
   93900    1.9281833   -4.8385011     4869.751            2 
   94000    1.9418283   -4.8198581    4924.3912            1 
   94100    1.9405648   -4.7929816    4910.9618            1 
   94200    2.0130688   -4.7691547    4896.7855            1 
   94300    1.9618543   -4.8172151     4923.395            1 
   94400    1.9575058    -4.869261    4877.6078            1 
   94500     1.963227   -4.8265081    4876.2122            1 
   94600    1.9765192   -4.8444632    4936.1256            1 
   94700    1.9673857   -4.8236387    4917.1921            1 
   94800    1.9368111   -4.7954949    4883.1777            1 
   94900    1.9783395   -4.8133172      4908.35            1 
   95000    1.9381519   -4.8095104    4911.0097            1 
   95100    1.9982795   -4.9055244    4869.4616            1 
   95200    1.9348161    -4.881048    4890.2637            2 
   95300    1.9716089   -4.8654509    4911.8562       -1e+20 
   95400    1.9874879   -4.8279095    4891.6347            1 
   95500    1.9349539   -4.8581065    4890.4849            1 
   95600    1.9853823   -4.8583325    4892.2573            3 
   95700    1.9615366    -4.820252    4885.7455            1 
   95800    1.9065624    -4.837309    4889.5312            1 
   95900    1.9573814   -4.8381909     4905.413       -1e+20 
   96000    2.0044315   -4.8141458    4891.2443            1 
   96100      1.96231   -4.8633883    4919.0538       -1e+20 
   96200    1.9473413   -4.7817212    4903.9654            2 
   96300     2.013877   -4.7938157    4927.5444            1 
   96400    1.9415383   -4.7938684    4913.0676            1 
   96500    1.9546608   -4.8578572    4865.4789            1 
   96600    1.9540144   -4.8691432    4869.2474            2 
   96700    1.9514683   -4.8816855    4876.3599            1 
   96800    1.9645554   -4.8249813    4841.1265            1 
   96900    1.9333315   -4.8731893    4931.2828            1 
   97000    1.9817841   -4.8373441    4915.5319            1 
   97100    1.9638778   -4.8129327    4879.5877            1 
   97200     1.940969   -4.8958152    4899.4982            1 
   97300    1.9937824   -4.8662821    4887.2175            1 
   97400    1.9388658   -4.8273175    4868.8234            1 
   97500    1.9603111   -4.8837067    4881.5723            1 
   97600    1.9422039   -4.8173516    4916.3325            1 
   97700    1.9792451   -4.7697336    4879.1845            1 
   97800    1.9188096   -4.8198865    4899.0722            1 
   97900    1.9552033   -4.8562112    4901.2299       -1e+20 
   98000    1.9737792   -4.8481457    4857.3693       -1e+20 
   98100    1.9448683   -4.8644734    4901.1669       -1e+20 
   98200    1.9917501   -4.8804992    4895.9122            1 
   98300    1.9496108   -4.8184557     4906.346            1 
   98400    1.9587007   -4.7956161    4895.4627       -1e+20 
   98500    1.9518342   -4.8265963    4904.0414            1 
   98600    2.0005396   -4.8524521     4899.731            3 
   98700    1.9771594   -4.8664313    4901.6585            1 
   98800    1.9200458   -4.8850424    4896.1241            1 
   98900    2.0054703   -4.8222008    4853.5337            1 
   99000    1.9695676   -4.8266712    4910.2402            1 
   99100    1.9515305   -4.8047563    4935.8845            1 
   99200    1.9796711   -4.8468496    4884.4224            1 
   99300    1.9582038    -4.844842    4869.7801            1 
   99400     1.898666   -4.8799702    4875.3879            2 
   99500    1.9572357    -4.841208    4868.0636            1 
   99600    1.9673013   -4.8158634    4874.8977            2 
   99700    1.9412155   -4.9024072    4897.6961            1 
   99800     1.970279    -4.883448    4871.8013            1 
   99900    1.9703644   -4.8292748    4901.7242            1 
  100000    1.9372421   -4.8561728      4871.77            2 
  100100    1.9439653   -4.8763651    4876.8702            2 
  100200    1.9917437   -4.8654039    4860.4137            1 
  100300    1.9449523   -4.8900412    4889.3315            1 
  100400    1.9690732   -4.8623516    4874.4655            1 
  100500    1.9720219     -4.85342    4889.4239            1 
  100600       1.9826   -4.8788766    4900.0086            2 
  100700    1.9547555   -4.8453161    4884.4519            1 
  100800    2.0148341   -4.8414375    4895.7885            1 
  100900    1.9394976   -4.8459847    4897.2344       -1e+20 
  101000    2.0078373   -4.8494808     4889.056       -1e+20 
  101100     1.956507   -4.8632136    4919.6092            2 
  101200    1.9499266   -4.8171905    4883.3409            1 
  101300    2.0348613   -4.8519053    4892.8314            1 
  101400    1.9408654   -4.8552861    4927.5661            2 
  101500    1.9930438   -4.8692482    4904.9216       -1e+20 
  101600    2.0334056   -4.8338685    4917.2182            4 
  101700     1.954063   -4.8343164    4909.5926            1 
  101800    1.9291688   -4.8166857    4906.2674            1 
  101900    1.9814048   -4.8082579    4907.2228            1 
  102000    1.9744346   -4.8203876    4924.3841            1 
  102100    1.9775953   -4.8524829    4908.0685       -1e+20 
  102200    1.9742028   -4.8250066    4883.0617            1 
  102300    1.9027453    -4.855392     4906.787            1 
  102400     1.934804   -4.8219781    4857.9532            1 
  102500    1.9534877   -4.8291973    4858.3661            1 
  102600    1.9322324   -4.8632019    4896.4451       -1e+20 
  102700    1.9866042   -4.8221931    4888.8983            1 
  102800    1.9424239   -4.8599014    4890.3525       -1e+20 
  102900    1.9439117   -4.8206887    4906.2639            1 
  103000    1.9732738   -4.8511459    4902.0454       -1e+20 
  103100    1.9198583   -4.8495236     4857.441            1 
  103200     1.948747   -4.8680305    4881.8773            1 
  103300    1.9577419    -4.828072    4885.5602            1 
  103400    1.9666668   -4.8580546    4896.1718            1 
  103500    1.9450427   -4.8514129    4877.3965            1 
  103600    1.9090401   -4.8370611    4866.6035            1 
  103700    1.9658552   -4.8449283    4894.0193            1 
  103800    1.9240355   -4.8688656    4888.2227            1 
  103900    1.9790859   -4.8918215    4847.6148            1 
  104000    1.9654955   -4.8810122    4888.8877       -1e+20 
Loop time of 319.095 on 20 procs for 100000 steps with 4000 atoms

Performance: 54153.101 tau/day, 313.386 timesteps/s
99.9% CPU use with 20 MPI tasks x no OpenMP threads

MPI task timing breakdown:
Section |  min time  |  avg time  |  max time  |%varavg| %total
---------------------------------------------------------------
Pair    | 25.029     | 26.745     | 28.152     |  18.6 |  8.38
Neigh   | 4.7688     | 4.9868     | 5.2161     |   5.1 |  1.56
Comm    | 14.313     | 15.973     | 19.097     |  31.2 |  5.01
Output  | 5.5538     | 5.5549     | 5.5698     |   0.1 |  1.74
Modify  | 261.94     | 263.47     | 264.5      |   5.1 | 82.57
Other   |            | 2.366      |            |       |  0.74

Nlocal:        200.000 ave         214 max         191 min
Histogram: 1 1 2 10 1 2 2 0 0 1
Nghost:        2120.10 ave        2140 max        2100 min
Histogram: 1 1 1 6 2 1 2 3 1 2
Neighs:        18661.2 ave       20267 max       16966 min
Histogram: 1 1 3 2 3 2 3 2 1 2
FullNghs:      37322.7 ave       40463 max       35282 min
Histogram: 1 1 5 5 4 1 2 0 0 1

Total # of neighbors = 746453
Ave neighs/atom = 186.61325
Neighbor list builds = 8260
Dangerous builds = 238

#clear
#
#next RN
#
#jump SELF
Total wall time: 0:05:21
