
units lj                  # Use reduced LJ style units
atom_style atomic         # Uncharged point particles
atom_modify map hash      # Needed for indexing of clusters etc
                          # Used to be able to find where atoms are in relation to each other.

lattice fcc 1.0 spacing 1 1 1
Lattice spacing in x,y,z = 1.5874011 1.5874011 1.5874011
region box block 0 10 0 10 0 10 units lattice
create_box 2 box
Created orthogonal box = (0.0000000 0.0000000 0.0000000) to (15.874011 15.874011 15.874011)
  3 by 4 by 4 MPI processor grid
create_atoms 1 box
Created 4000 atoms
  using lattice units in orthogonal box = (0.0000000 0.0000000 0.0000000) to (15.874011 15.874011 15.874011)
  create_atoms CPU = 0.019 seconds
set type 1 type/fraction 2 0.47 78393
Setting atom values ...
  1873 settings made for type/fraction
mass 1 1.0
mass 2 1.0
pair_style lj/cut  3.5
pair_modify tail  yes
pair_coeff 1  1  1.0  1.0   # Intearaction between 1 and 1 set with epsilon = 1 and sigma = 1
pair_coeff 1  2  1.5  0.8
pair_coeff 2  2  0.5  0.88

write_data data.0
System init for write_data ...
Neighbor list info ...
  update every 1 steps, delay 10 steps, check yes
  max neighbors/atom: 2000, page size: 100000
  master list distance cutoff = 3.8
  ghost atom cutoff = 3.8
  binsize = 1.9, bins = 9 9 9
  1 neighbor lists, perpetual/occasional/extra = 1 0 0
  (1) pair lj/cut, perpetual
      attributes: half, newton on
      pair build: half/bin/atomonly/newton
      stencil: half/bin/3d
      bin: standard
WARNING: Not all mixed pair coeffs generated from mixing. Use write_data with 'pair ij' option to store all pair coeffs. (../write_data.cpp:312)


#############################
#   M E L T   S Y S T E M   #
#############################

velocity all create 2.4 5833274 mom yes dist gaussian # Assign velocities
                                                    # Temperature 2.4, random number seed, zero linear momentum
                                                                                # Gaussian distribution

timestep 0.002   # simulation timestep
thermo 1000       # output thermodynamic data every 1000 steps bf 100

# Define a fix  in this case with index 1 applied to all
# particles in the simulation. This fix is for simulations
# in the anisotropic NPT ensemble. Note that we use the MTK
# correction.
fix 1 all npt temp 2.4 2.4 0.1 iso 5.68 5.68 0.5 mtk yes tchain 5 pchain 5 # Use NPT ensemble
                                                                         # Set temperature and pressure and damping
                                                                         # Numbers of thermostats in chain and in barostat
run 10000          # run for 10000 steps
Per MPI rank memory allocation (min/avg/max) = 3.642 | 3.644 | 3.648 Mbytes
Step Temp E_pair E_mol TotEng Press Volume 
       0          2.4   -5.4815223            0   -1.8824223   -4.2035566         4000 
    1000    2.4353093   -4.9273476            0   -1.2752969    5.7582803    3768.8539 
    2000    2.4066257   -4.9665081            0   -1.3574721    5.7475837    3744.8735 
    3000    2.3919096   -5.0455484            0    -1.458581    5.4768908    3727.3863 
    4000    2.3860791   -4.9948829            0    -1.416659     5.546438    3742.0117 
    5000    2.4395279   -4.9554846            0   -1.2971077     5.451897    3779.6781 
    6000    2.3645241   -4.9343144            0   -1.3884149     5.683619    3765.5228 
    7000    2.3737746    -4.850916            0   -1.2911443    5.6952648    3800.2125 
    8000    2.3776573   -5.0347386            0   -1.4691442    5.3925896    3742.0536 
    9000     2.381581   -4.9249134            0    -1.353435    5.7398473    3769.9159 
   10000    2.3534943    -4.983142            0    -1.453783    5.7625143    3723.9691 
Loop time of 2.58574 on 48 procs for 10000 steps with 4000 atoms

Performance: 668281.162 tau/day, 3867.368 timesteps/s
99.6% CPU use with 48 MPI tasks x no OpenMP threads

MPI task timing breakdown:
Section |  min time  |  avg time  |  max time  |%varavg| %total
---------------------------------------------------------------
Pair    | 1.1481     | 1.2276     | 1.3178     |   2.6 | 47.48
Neigh   | 0.21212    | 0.21956    | 0.22961    |   0.7 |  8.49
Comm    | 0.77525    | 0.86778    | 0.9598     |   3.8 | 33.56
Output  | 0.00024306 | 0.00024875 | 0.00031492 |   0.0 |  0.01
Modify  | 0.22682    | 0.25497    | 0.28089    |   3.3 |  9.86
Other   |            | 0.01557    |            |       |  0.60

Nlocal:        83.3333 ave          93 max          74 min
Histogram: 1 3 4 5 11 12 6 4 0 2
Nghost:        1717.12 ave        1744 max        1684 min
Histogram: 3 1 3 4 9 8 3 9 1 7
Neighs:        10244.2 ave       11946 max        8900 min
Histogram: 3 2 7 7 9 12 2 4 0 2

Total # of neighbors = 491724
Ave neighs/atom = 122.93100
Neighbor list builds = 901
Dangerous builds = 180

# Equilibrate just above the melting temperature to avoid step fn in T

fix 1 all npt temp 1.25 1.25 0.1 iso 5.68 5.68 0.5 mtk yes tchain 5 pchain 5
run 2000
Per MPI rank memory allocation (min/avg/max) = 3.644 | 3.646 | 3.649 Mbytes
Step Temp E_pair E_mol TotEng Press Volume 
   10000    2.3534943    -4.983142            0    -1.453783    5.7625143    3723.9691 
   11000    1.2403044   -7.0140035            0    -5.154012    5.7442546     2946.402 
   12000    1.2605191    -7.102879            0   -5.2125731    5.5140045    2933.2282 
Loop time of 0.641656 on 48 procs for 2000 steps with 4000 atoms

Performance: 538606.372 tau/day, 3116.935 timesteps/s
99.7% CPU use with 48 MPI tasks x no OpenMP threads

MPI task timing breakdown:
Section |  min time  |  avg time  |  max time  |%varavg| %total
---------------------------------------------------------------
Pair    | 0.28305    | 0.30895    | 0.35144    |   2.1 | 48.15
Neigh   | 0.040435   | 0.042424   | 0.048573   |   0.7 |  6.61
Comm    | 0.19684    | 0.24008    | 0.26519    |   2.5 | 37.42
Output  | 5.3296e-05 | 5.4941e-05 | 6.9629e-05 |   0.0 |  0.01
Modify  | 0.038707   | 0.045208   | 0.050817   |   1.8 |  7.05
Other   |            | 0.00494    |            |       |  0.77

Nlocal:        83.3333 ave          90 max          77 min
Histogram: 3 4 4 5 9 5 12 1 1 4
Nghost:        2019.85 ave        2040 max        1993 min
Histogram: 1 2 1 8 6 7 7 6 8 2
Neighs:        13015.4 ave       14103 max       11866 min
Histogram: 7 0 2 3 6 11 9 5 3 2

Total # of neighbors = 624739
Ave neighs/atom = 156.18475
Neighbor list builds = 142
Dangerous builds = 7

#############################
# L I N E A R  Q U E N C H  #
#############################

# Define solid atoms. This closely follows ten Wolde  Ruiz-Montero and Frenkel  Faraday Discuss  1996  104  93-110
# Compute components of the per-atom q6 vector
compute q6 all orientorder/atom degrees 1 6 components 6 nnn NULL cutoff 1.3 # compute the Q6 parameter.
                                                                             # Use all neighbours within 1.3 unit cell.

# get number of connections
compute coord_number all coord/atom orientorder q6 0.5

# An atom is solid if it has 8 or more connections (of a possible 14)
variable is_solid atom c_coord_number>=8
group solid dynamic all var is_solid    # Must be dynamic to update
dynamic group solid defined

# do clustering
compute cluster solid cluster/atom 1.3 # Create a cluster where all atoms within are solid and max 1.3 units from another member

# define chunks one chunk per cluster
compute clus_chunks solid chunk/atom c_cluster nchunk every compress yes  # Says which atoms are in which chunk

# count the size of each chunk
compute size_chunks solid property/chunk clus_chunks count


# Find the maximum entry in the vector of chunk sizes
variable max_n equal max(c_size_chunks)


# Thermo style which includes this variable
# thermo_style custom step temp pe vol v_max_n

thermo ${N}  # Print the thermo information every 100 steps
thermo 1000  

# Reset the npt fix at a lower temperature (below freezing)
fix 1  all npt temp  ${temp} ${temp}  0.1  iso  5.68  5.68  0.5  mtk yes tchain  5  pchain  5
fix 1  all npt temp  0.45 ${temp}  0.1  iso  5.68  5.68  0.5  mtk yes tchain  5  pchain  5
fix 1  all npt temp  0.45 0.45  0.1  iso  5.68  5.68  0.5  mtk yes tchain  5  pchain  5

dump dmp2 all dcd ${N} traj.dcd
dump dmp2 all dcd 1000 traj.dcd


compute msd all msd com yes
variable twopoint equal c_msd[4]/6/(step*dt+1.0e-6)
fix 9 all vector 10 c_msd[4]
variable fit equal slope(f_9)/6/(10*dt)
thermo_style custom step temp pe c_msd[4] v_twopoint v_fit v_max_n

fix 1 all npt temp 1.25 ${temp} 0.1 iso 5.68 5.68 0.5 mtk yes tchain 5 pchain 5
fix 1 all npt temp 1.25 0.45 0.1 iso 5.68 5.68 0.5 mtk yes tchain 5 pchain 5
run 5000000 # 5000000  # Run for this many steps
Neighbor list info ...
  update every 1 steps, delay 10 steps, check yes
  max neighbors/atom: 2000, page size: 100000
  master list distance cutoff = 3.8
  ghost atom cutoff = 3.8
  binsize = 1.9, bins = 8 8 8
  4 neighbor lists, perpetual/occasional/extra = 1 3 0
  (1) pair lj/cut, perpetual
      attributes: half, newton on
      pair build: half/bin/atomonly/newton
      stencil: half/bin/3d
      bin: standard
  (2) compute orientorder/atom, occasional
      attributes: full, newton on
      pair build: full/bin/atomonly
      stencil: full/bin/3d
      bin: standard
  (3) compute coord/atom, occasional
      attributes: full, newton on
      pair build: full/bin/atomonly
      stencil: full/bin/3d
      bin: standard
  (4) compute cluster/atom, occasional
      attributes: full, newton on
      pair build: full/bin/atomonly
      stencil: full/bin/3d
      bin: standard
Per MPI rank memory allocation (min/avg/max) = 9.832 | 9.840 | 9.844 Mbytes
Step Temp PotEng c_msd[4] v_twopoint v_fit v_max_n 
   12000    1.2605191    -7.102879 1.8086608e-30 1.2560144e-32 8.3333333e+20            1 
   13000     1.246549   -7.1149665   0.44402906   0.00284634  0.036093863            3 
   14000    1.2282001    -7.171384   0.90512014 0.0053876197   0.03614448            2 
   15000    1.2495571   -7.1707341    1.3286845 0.0073815801  0.036498964            1 
   16000    1.2550035   -7.1473197    1.7683702 0.0092102614  0.036352524            2 
   17000    1.2430136   -7.1089066    2.1911964  0.010741158  0.036305041            2 
   18000    1.2396515   -7.1450061    2.6073875  0.012071238  0.036044841            2 
   19000    1.2377493   -7.1379659    3.0278206  0.013279914  0.035911587            4 
   20000    1.2739591   -7.1395375    3.4658342  0.014440975  0.035792199            2 
   21000     1.258177   -7.0915229    3.8556627  0.015300248  0.035684207            2 
   22000    1.2344325   -7.1210923    4.3386415  0.016434248  0.035739353            1 
   23000    1.2446196   -7.1434845    4.6371606  0.016801306  0.035575677            1 
   24000    1.2620208   -7.1830911    4.9732178  0.017268117  0.035162912            2 
   25000    1.2115634   -7.1796891    5.3636889  0.017878963  0.034686092            5 
   26000    1.2576126   -7.1295818    5.7033154  0.018279857  0.034275067            1 
   27000    1.2463175    -7.135558    6.0226929  0.018588558  0.033858288            4 
   28000     1.266442   -7.1058161    6.5059777  0.019363029  0.033538017            3 
   29000    1.2362578   -7.1507281    6.7872302  0.019503535  0.033294456            2 
   30000    1.2314969   -7.2114803    7.1665593  0.019907109  0.033072451            1 
   31000     1.228272   -7.1024366    7.5473328  0.020288529  0.032865514            2 
   32000    1.2621339   -7.1836643    7.8459156  0.020432071  0.032650382            6 
   33000    1.2308155   -7.1151471    8.3233438  0.021018545  0.032482626            1 
   34000    1.2306503   -7.1797528    8.6941399  0.021309166  0.032383347            1 
   35000    1.2523065   -7.1774812    9.0928817  0.021649718  0.032312115            1 
   36000    1.2316158   -7.1070276    9.5530512  0.022113544  0.032308039            2 
   37000    1.2341963   -7.1425736    9.8747509   0.02224043  0.032304054            1 
   38000    1.2429244   -7.1605948    10.286151  0.022557349  0.032268477            5 
   39000    1.2735022   -7.1836133    10.658437  0.022774438  0.032221285            3 
   40000    1.2282245   -7.1443899     11.09066  0.023105541  0.032188402            2 
   41000    1.2401145   -7.1889087    11.539822  0.023454923  0.032215755            1 
   42000    1.2521225   -7.1771495    12.014248  0.023837793  0.032262602            3 
   43000    1.2572937   -7.1866488    12.275681  0.023790079   0.03230935            2 
   44000    1.2395111   -7.1420646    12.625751  0.023912407  0.032317507            2 
   45000    1.2348832   -7.1709946    13.081948   0.02422583  0.032321638            1 
   46000    1.2670476   -7.0794314    13.494036  0.024445718  0.032340506            5 
   47000    1.2337666   -7.1929395    13.833356  0.024527227  0.032361992            2 
   48000    1.2371685   -7.1339367    14.126942  0.024525941  0.032351498            4 
   49000    1.2642533   -7.1471551    14.537087  0.024722937  0.032339423            2 
   50000    1.2344612   -7.1794992    14.931331  0.024885552  0.032325753            1 
   51000    1.2644519   -7.1622552    15.319724  0.025032229  0.032309195            4 
   52000     1.230974   -7.1343502    15.850868  0.025402033  0.032321875            1 
   53000    1.2488505   -7.1579507    16.230833  0.025520177  0.032344191            2 
   54000    1.2232797   -7.1824943    16.603308  0.025622388    0.0323612            2 
   55000    1.2423162   -7.1827698    17.066311  0.025858047  0.032370332            1 
   56000    1.2255584   -7.1636639    17.469669  0.025996531   0.03240753            1 
   57000     1.221662   -7.1944307    17.890314   0.02615543  0.032455465            1 
   58000    1.2350001   -7.1359504    18.552089  0.026655299  0.032513942            2 
   59000    1.2477234   -7.1383592    18.956597  0.026774854  0.032598736            2 
   60000    1.2446149   -7.1484865    19.254498  0.026742358  0.032681352            3 
   61000    1.2398426   -7.1509059    19.703225  0.026916974  0.032754466            2 
   62000    1.2176465   -7.1811819    20.099497  0.027015453  0.032808633            1 
   63000    1.2422215   -7.0955551    20.671423  0.027343152  0.032869866            4 
   64000     1.239059   -7.1590647    20.934304  0.027258208  0.032928147            3 
   65000    1.2179803   -7.1721527    21.306182  0.027315617  0.032979589            1 
   66000    1.2272764   -7.1307826    21.916707   0.02767261  0.033033518            6 
   67000    1.2239352   -7.1162041    22.359045  0.027809757  0.033089464            1 
   68000    1.2070415   -7.2115551    22.579816  0.027671342   0.03313913            2 
   69000    1.2213084   -7.1303128    23.017665  0.027799112  0.033175442            3 
   70000    1.2241221   -7.1131186    23.352536  0.027800638  0.033195098            2 
   71000    1.2307718   -7.1762069     23.89761  0.028048838  0.033229742            3 
   72000    1.2436511   -7.1426584     24.37931  0.028216794  0.033275395            2 
   73000    1.2417237   -7.1627025    24.715046  0.028213522   0.03331922            2 
   74000    1.2498465   -7.1630368    25.182764  0.028358969  0.033365653            1 
   75000    1.2495204   -7.1291903    25.473928  0.028304364   0.03339797            4 
   76000    1.2193231   -7.1543451    25.833054  0.028325717  0.033418152            4 
   77000    1.2532744   -7.1499426    26.333691  0.028499665   0.03344409            1 
   78000    1.2543975   -7.2158418    26.663444  0.028486585   0.03346898            2 
   79000    1.2489869   -7.2039601    27.211678  0.028704301  0.033497946            2 
   80000    1.2458536   -7.1850957    27.638739  0.028790353  0.033538799            2 
   81000    1.2158818   -7.1644185     28.06565  0.028874125  0.033575996            1 
   82000    1.1985145   -7.1710102     28.31891   0.02877938  0.033598987            2 
   83000    1.2336905   -7.1901226    28.642649  0.028757679  0.033609244            1 
   84000    1.2306073   -7.1705332    28.839858   0.02861097  0.033614131            1 
   85000    1.2119107   -7.1842652    29.139731  0.028568363  0.033601999            1 
   86000    1.2580181   -7.1756703    29.535968  0.028620124  0.033583614            2 
   87000    1.2175164   -7.1768095    29.987777  0.028723924  0.033566395            6 
   88000    1.2668393   -7.1645973    30.550416  0.028930318   0.03356013            2 
   89000    1.1993442   -7.1864809    30.913465  0.028945192  0.033554602            2 
   90000    1.2388302   -7.1725178     31.31311   0.02899362  0.033552976            2 
   91000    1.2352962   -7.1940849    31.892571  0.029205651  0.033558365            1 
   92000    1.2660551   -7.1453986    32.346223  0.029299115  0.033560426            3 
   93000    1.2091976    -7.168991    32.616872  0.029226587  0.033564912            2 
   94000    1.2322045   -7.1437197     32.82056  0.029096241  0.033563169            2 
   95000    1.2195147   -7.1484393    33.255724  0.029171687  0.033552352            1 
   96000    1.2413299   -7.1408013     33.41047  0.029002144  0.033534084            3 
   97000    1.2353781    -7.114188    33.970596  0.029184361  0.033514453            1 
   98000    1.2339539   -7.1740449    34.213923  0.029093471  0.033492969            1 
   99000    1.2424884   -7.1550819    34.713811  0.029220379  0.033472207            1 
  100000    1.2417654   -7.1321265    35.193993  0.029328328  0.033459657            1 
  101000    1.2292789   -7.1774624    35.658778  0.029421434  0.033449235            2 
  102000    1.2366107   -7.1637255    35.821097  0.029265602  0.033432137            2 
  103000    1.2432484   -7.1191206    36.254662   0.02933225  0.033415828            1 
  104000    1.2558895   -7.1603052    36.644861   0.02936287  0.033400468            2 
  105000    1.2086146    -7.202605    36.883957  0.029272982  0.033385882            1 
  106000    1.2275007   -7.1879132    37.207685  0.029251325  0.033362681            1 
  107000    1.2422863   -7.2012166     37.46174   0.02917581  0.033335368            3 
  108000    1.2198739   -7.1935195    37.925337  0.029263377   0.03330711            2 
  109000    1.2390622   -7.1883115    38.248489  0.029241964  0.033280966            2 
  110000    1.2176642   -7.2349005    38.681647  0.029304278  0.033254761            4 
  111000    1.2343425   -7.2191243    38.869254  0.029181122  0.033222672            1 
  112000    1.2218888   -7.1956067    39.025537  0.029036858  0.033184717            3 
  113000    1.2246603   -7.1655752    39.587297  0.029194171  0.033145875            1 
  114000    1.2340685   -7.1514004    40.111213  0.029321062  0.033114897            4 
  115000    1.2478018   -7.1279073    40.476295  0.029330648  0.033081909            2 
  116000    1.2421786   -7.1810859    40.767027  0.029286657  0.033050186            1 
  117000    1.2237637   -7.1480189    41.179644  0.029330231  0.033016856            1 
  118000    1.2163857    -7.183901    41.290473  0.029159938  0.032985071            2 
  119000     1.225512   -7.1923403    41.723841  0.029218376  0.032949578            2 
  120000    1.2153849   -7.1936578     42.20219  0.029307076  0.032915598            1 
  121000    1.2501191   -7.1727698    42.552554  0.029306167  0.032887075            1 
  122000    1.2278951   -7.1897087    42.979167  0.029357355   0.03285648            1 
  123000    1.2402595   -7.2327765    43.020716  0.029146827  0.032820874            1 
  124000    1.2372628   -7.2683711    43.343946  0.029128996   0.03278726            2 
  125000     1.266848   -7.1551767    43.789709  0.029193139  0.032748767            2 
  126000    1.2232794   -7.1700319     44.07733  0.029151673  0.032712993            2 
  127000    1.2571509   -7.1387229    44.447777  0.029165208  0.032673872            2 
  128000    1.2004619   -7.2053914      44.9652  0.029274219  0.032640886            2 
  129000    1.2236186   -7.2010679    45.491091  0.029387009  0.032613498            3 
  130000    1.2089647   -7.1832732    45.618475  0.029242612  0.032586075            6 
  131000    1.2499655   -7.1843737    45.866427  0.029177117  0.032555733            1 
  132000    1.2190715   -7.1858016    46.474246  0.029339802  0.032526449            2 
  133000    1.2501649   -7.1533258    46.783495  0.029312967  0.032496753            3 
  134000    1.2220116   -7.1690676    47.258256  0.029389462  0.032469487            2 
  135000    1.2301252   -7.2042311    47.510885  0.029327707  0.032446258            1 
  136000    1.2119434   -7.1604331    48.106998  0.029477327   0.03242356            2 
  137000    1.2197798   -7.1829255    48.396459  0.029438235  0.032402323            1 
  138000     1.227011   -7.1685496     48.68733  0.029400561  0.032382694            3 
  139000    1.2421036   -7.2094563    49.167836   0.02947712  0.032362708            1 
  140000    1.2653961   -7.1891062       49.418  0.029415476  0.032348832            1 
  141000    1.2136296   -7.2366552    50.017445  0.029561137   0.03233366            2 
  142000    1.2347881   -7.2451017    50.570275  0.029677391  0.032319193            3 
  143000    1.2099009   -7.2016718    50.731278  0.029563682  0.032303303            3 
  144000    1.2562819    -7.229665    51.126722  0.029587223  0.032288148            1 
  145000    1.2421899   -7.2083154    51.311662  0.029489461   0.03227513            5 
  146000    1.2327857   -7.1808386    51.870741  0.029606587  0.032259933            2 
  147000    1.2418875   -7.1867222    52.161699  0.029570124  0.032243084            1 
  148000    1.2158381    -7.156726    52.563225   0.02959641  0.032227682            3 
  149000    1.2462059   -7.2187138    52.761576  0.029508711  0.032210731            1 
  150000     1.215623   -7.1671826    53.165039  0.029536133  0.032191673            3 
  151000    1.2216286   -7.1329324    53.748971  0.029662787  0.032175605            1 
  152000    1.2351613   -7.1331235    54.090989  0.029655147  0.032159302            1 
  153000    1.1915253   -7.1935269    54.609908  0.029743959  0.032143704            1 
  154000    1.2278306   -7.1864104    55.002985   0.02976352  0.032130707            1 
  155000    1.2393676   -7.2016265    55.321722  0.029742861  0.032118587            2 
  156000    1.2122185   -7.2348742    55.518988  0.029657579  0.032106764            2 
  157000    1.2363142   -7.2051252    55.986865   0.02971702  0.032095791            1 
  158000    1.2215721   -7.1921512     56.45125  0.029773866  0.032086923            5 
  159000    1.2423321   -7.1745118     56.84899  0.029795068  0.032077333            3 
  160000    1.2650875   -7.2128979    56.986422  0.029680428  0.032066555            4 
  161000    1.2303904   -7.1828851    57.128063  0.029569391  0.032051164            1 
  162000    1.2341187    -7.200452    57.648971   0.02965482  0.032036774            3 
  163000    1.2519267   -7.1991896    57.901584  0.029602037  0.032020813            3 
  164000    1.2311006    -7.182414     58.09122  0.029517897   0.03200064            3 
  165000    1.2352438   -7.2796877    58.137457  0.029362352  0.031979342            4 
  166000    1.2068718   -7.1561123    58.819116  0.029527668  0.031958201            1 
  167000    1.2092084   -7.1965841      59.2119  0.029546856  0.031939124            1 
  168000    1.2098909   -7.1997277    59.702122  0.029614148  0.031921782            2 
  169000    1.2074581   -7.2219996     59.75963  0.029467273  0.031900264            1 
  170000    1.2461401   -7.1688746    60.262705  0.029540542  0.031879768            2 
  171000    1.2291752   -7.1719239    60.704085  0.029582887  0.031860492            2 
  172000    1.2352089   -7.2351208    60.883277  0.029497712  0.031843339            1 
  173000    1.2241452   -7.2256486    61.525997    0.0296368  0.031824982            1 
  174000    1.2376119   -7.2210067    61.748152   0.02957287  0.031809345            2 
  175000    1.2153404   -7.2364712    61.739965  0.029399983    0.0317903            2 
  176000    1.2044092   -7.2144506    62.254377  0.029476504  0.031768975            1 
  177000    1.2226418   -7.2418202    62.479103  0.029415773  0.031747001            1 
  178000    1.1998024   -7.1733617     62.83156  0.029415524  0.031725538            2 
  179000    1.1985218   -7.2279561    63.328944  0.029482748  0.031705102            1 
  180000    1.2071434   -7.2117675    63.438949  0.029369884  0.031682488            1 
  181000    1.2249406   -7.2059764    63.772637  0.029361251  0.031659401            1 
  182000    1.2408228   -7.2217931    64.013764  0.029310331   0.03163684            2 
  183000    1.2249087   -7.1950932    64.534207  0.029387162  0.031612838            3 
  184000    1.2037438    -7.177832    65.146281  0.029504656  0.031592223            1 
  185000    1.2128383   -7.2248936    65.217618  0.029377306  0.031574747            3 
  186000    1.2526426    -7.222659    65.399827  0.029300998  0.031552083            1 
  187000    1.2340394   -7.2288883    65.920254  0.029376227  0.031530587            1 
  188000    1.2231592   -7.1940486    66.333289  0.029403054  0.031511145            2 
  189000    1.2241122   -7.1960929    66.811481  0.029458325  0.031494812            3 
  190000    1.2271052   -7.2430235    67.190502  0.029469518  0.031480405            2 
  191000     1.202305   -7.1821767    67.803831  0.029582823   0.03146519            2 
  192000    1.2409693   -7.2168522    68.079897  0.029548566  0.031450727            1 
  193000     1.233101   -7.1959504    68.552082  0.029599344  0.031437621            7 
  194000    1.2347263   -7.2547195    68.617644  0.029474933  0.031424667            2 
  195000     1.202088   -7.2368297    69.023173  0.029497082  0.031410026            1 
  196000    1.2368601    -7.206522    69.359381  0.029489533   0.03139283            5 
  197000    1.2290032   -7.2371843    69.445752  0.029376375  0.031376979            2 
  198000     1.247101   -7.1930556    70.303024  0.029588815  0.031363567            2 
  199000    1.2248453   -7.2113845    70.565035  0.029549847   0.03135193            2 
  200000    1.2059615   -7.2499195    70.868045  0.029528352  0.031339259            3 
  201000    1.2001435   -7.1998249    71.204791  0.029521058  0.031326157            1 
  202000    1.2098796   -7.2561754    71.334842  0.029428565  0.031312538            4 
  203000    1.2443548   -7.2319311    71.832874  0.029488043  0.031298777            1 
  204000    1.1901758   -7.2144161     72.17111  0.029481662   0.03128535            4 
  205000    1.2349252   -7.2135414    72.357856  0.029413763  0.031270871            1 
  206000    1.2431242   -7.2282177    72.907766  0.029493433  0.031256643            2 
  207000    1.2050646   -7.2192094    73.422323  0.029558101  0.031244018            1 
  208000    1.2334064   -7.2188957      73.6409  0.029503566  0.031231373            1 
  209000    1.2225647   -7.1650658    73.951249  0.029486144   0.03121837            4 
  210000    1.2337651   -7.2463666    73.961632  0.029349854  0.031205532            1 
  211000    1.2287854    -7.226564    74.663611  0.029487998   0.03118993            2 
  212000    1.2366795   -7.2414759     74.86376  0.029427579  0.031175096            1 
  213000    1.2605714   -7.2161006    75.302731  0.029461162  0.031160402            3 
  214000     1.230503   -7.1725717    76.188251  0.029668322  0.031147108            3 
  215000    1.2249725   -7.2431992    75.905823  0.029420862  0.031132561            1 
  216000    1.2427334   -7.2223754    76.399597  0.029475153  0.031119192            1 
  217000    1.2197498   -7.2417702    76.574279  0.029406405  0.031107366            1 
  218000     1.226084   -7.1603749    77.214955   0.02951642  0.031093888            3 
  219000    1.2082118   -7.1864413    77.547658  0.029508241  0.031081277            2 
  220000    1.2088998   -7.1934475    78.099886   0.02958329  0.031070296            2 
  221000    1.2259226   -7.2141075    78.271539  0.029514155   0.03105838            3 
  222000    1.1845852   -7.2178177    78.407869  0.029432383  0.031045859            2 
  223000    1.1951566   -7.2210362    78.830121  0.029458192  0.031032879            3 
  224000    1.2261367   -7.2478453    78.709105  0.029281661  0.031018077            3 
  225000    1.2080048   -7.2472742    79.581205   0.02947452  0.031002783            3 
  226000    1.2162944    -7.174779     79.81555  0.029430513  0.030988919            1 
  227000    1.2378769   -7.2343295    79.881587  0.029325105  0.030975718            2 
  228000    1.2289101    -7.227668    80.441356   0.02940108  0.030962259            3 
  229000    1.2274363   -7.1815083    80.783628  0.029397244  0.030947755            1 
  230000    1.2375226   -7.2494236    81.082313  0.029377649  0.030934363            2 
  231000    1.2211715   -7.2442129     81.53241  0.029412846   0.03092199            3 
  232000    1.1947499   -7.2171383    82.232086  0.029537387  0.030910353            1 
  233000    1.2167482   -7.2706124    82.686414  0.029573109  0.030900133            3 
  234000    1.2284462   -7.1897056    82.813849  0.029492112  0.030890127            3 
  235000    1.2122449   -7.2335984    83.382664   0.02956832  0.030882142            3 
  236000    1.2112379   -7.1999614    83.577602  0.029511865  0.030872898            1 
  237000    1.2420094   -7.2416569    83.846105  0.029481753  0.030862664            1 
  238000    1.2096573   -7.2191919    84.145878  0.029462842  0.030849387            2 
  239000    1.2118129   -7.1892763    84.282397  0.029387168  0.030836975            4 
  240000    1.2313271   -7.2781527    84.966364   0.02950221  0.030826074            4 
  241000    1.2116463   -7.2410208    84.921139  0.029364156  0.030814954            1 
  242000    1.2275153    -7.204922    85.670752  0.029500948  0.030804433            2 
  243000     1.205748   -7.2179257    85.698962  0.029389219  0.030793309            1 
  244000      1.20667   -7.2375089    86.373107  0.029499012  0.030783434            1 
  245000    1.2099677   -7.2931725    86.324096  0.029361937  0.030772785            1 
  246000     1.193199    -7.223086    86.897577  0.029436849   0.03076421            3 
  247000    1.2013342   -7.2386265    87.197966  0.029419017  0.030755449            2 
  248000    1.2086507   -7.2469115    87.578908  0.029428397  0.030744255            2 
  249000    1.2145354   -7.2811398    87.561232  0.029304295  0.030732448            2 
  250000    1.2120972   -7.2257043    88.173407  0.029391136  0.030720114            2 
  251000    1.2373527   -7.2212496    88.249399  0.029299269  0.030708581            3 
  252000    1.2249814   -7.2903061    88.443489  0.029247186  0.030695778            2 
  253000     1.221758   -7.2608367    88.991355  0.029312041  0.030682916            1 
  254000    1.2445029   -7.2526217    89.455405  0.029348886  0.030670087            1 
  255000    1.2070876   -7.2051023    90.239893  0.029490161  0.030659222            1 
  256000    1.1930506   -7.1904527    90.563693  0.029480369  0.030650984            1 
  257000    1.1995864   -7.2257222     90.78283  0.029436715  0.030642914            2 
  258000    1.2147705   -7.2669135     90.88984  0.029357184  0.030634162            2 
  259000    1.2218047   -7.2404826    91.515118  0.029445019  0.030625911            2 
  260000    1.2168002   -7.2514904    92.001888  0.029487784  0.030619552            1 
  261000    1.2178533   -7.2344197    92.947828  0.029676829  0.030613324            4 
  262000    1.1784688   -7.2353912    93.013818  0.029584548  0.030607736            1 
  263000    1.1814634   -7.2266489    93.495774   0.02962477  0.030603177            2 
  264000    1.2199014   -7.2536657    93.740199  0.029589709   0.03059847            2 
  265000    1.1965436   -7.2055533     94.53058  0.029726597  0.030594845            2 
  266000    1.2028365   -7.2581089    94.460912  0.029593018   0.03059055            2 
  267000    1.2234079   -7.2345037    95.022983   0.02965761  0.030586784            2 
  268000    1.2029497   -7.2500598    95.270601  0.029623943  0.030583634            6 
  269000    1.2109912   -7.2366635    95.501709  0.029585412   0.03058054            2 
  270000    1.2101089   -7.2269264    95.766378  0.029557524   0.03057633            3 
  271000    1.2108277   -7.2025741    96.433657  0.029653646  0.030572009            3 
  272000       1.2068   -7.2400017    96.347113  0.029518111  0.030566152            2 
  273000    1.1746238   -7.2165903    96.945266  0.029592572  0.030560785            2 
  274000    1.2060642   -7.2325101    97.202403  0.029562775  0.030555174            1 
  275000    1.2299792   -7.2244455    97.522875  0.029552386  0.030551254            1 
  276000    1.1950398   -7.2186432     97.88707  0.029555275  0.030547367            1 
  277000    1.1941829   -7.3073576     97.40713  0.029304191  0.030539992            2 
  278000     1.195628   -7.2385704    98.297513  0.029465681  0.030532299            1 
  279000    1.2069368   -7.2617468    98.693082   0.02947822  0.030526177            1 
  280000    1.2140821    -7.243013    98.850013  0.029419647   0.03051929            1 
  281000    1.2063736   -7.2607398    99.484396  0.029503083  0.030512827            2 
  282000    1.1982173   -7.2623297    99.607872   0.02943495  0.030505762            2 
  283000    1.2061774   -7.2183768    100.08284  0.029470802  0.030498246            1 
  284000    1.1925457   -7.2785601    100.29128  0.029428193  0.030491703            2 
  285000    1.2033996   -7.2365835    101.28724  0.029616152  0.030487294            1 
  286000    1.2300432   -7.2861739     101.3832  0.029540561   0.03048401            5 
  287000    1.2145131   -7.2280905    102.21063  0.029677883  0.030481965            1 
  288000    1.1760179   -7.2632651    102.51358  0.029662494  0.030480233            3 
  289000    1.2177906   -7.2520924    102.86137  0.029660141  0.030478111            1 
  290000    1.1905805   -7.2336679     103.1695  0.029646409  0.030476006            1 
  291000    1.2114523   -7.2020236    104.00263  0.029783114  0.030474232            1 
  292000    1.2064249   -7.2016226    104.18306  0.029732609  0.030472004            3 
  293000    1.2164472   -7.3163024    104.09225  0.029605303  0.030469839            2 
  294000    1.1770381   -7.1934788    105.23783  0.029829316  0.030468273       -1e+20 
  295000    1.1835912   -7.2576481    105.24986  0.029731598  0.030467797            2 
  296000    1.2008042   -7.2805441    106.08988  0.029867646  0.030468166            1 
  297000    1.2122216   -7.2747818    105.90154  0.029714236  0.030468012            1 
  298000    1.2101804   -7.3174248    106.04264  0.029653983  0.030466447            3 
  299000    1.1972921   -7.2776397    106.63178  0.029719002  0.030464681            1 
  300000    1.2112346   -7.2263051    106.92183  0.029700507  0.030462865            5 
  301000    1.1877876   -7.2280748    107.27972   0.02970092  0.030461563            2 
  302000     1.191132    -7.245367    108.18271   0.02985174  0.030460779            2 
  303000    1.2157062   -7.3005465    108.03708  0.029713169  0.030460644            3 
  304000    1.1606589   -7.2236098    108.95528  0.029867128  0.030462131            1 
  305000    1.1853579   -7.2441787    109.13735  0.029818949  0.030462661            1 
  306000    1.2005284   -7.2391539    108.95774  0.029672586  0.030461936            2 
  307000    1.2128039   -7.2733262    109.21687  0.029646273  0.030459446            3 
  308000    1.2382696   -7.2036008    110.04413  0.029773844  0.030458295            3 
  309000    1.1991233   -7.2153822    110.07751  0.029686492  0.030456024            2 
  310000    1.2098384   -7.2516567    110.21231  0.029626966  0.030451895            2 
  311000    1.1890914   -7.2301124    110.65466  0.029650231  0.030448932            2 
  312000     1.228486   -7.2250457    111.56435   0.02979817  0.030446532            2 
  313000    1.1726413   -7.2725762    111.01044  0.029555494   0.03044505            1 
  314000    1.1951005   -7.2594051    111.73558  0.029653817  0.030442359            2 
  315000    1.2006876   -7.2220879    112.43105  0.029743664  0.030440716            1 
  316000    1.1915222   -7.2748359    112.56744  0.029685506  0.030438876            1 
  317000     1.204535   -7.2656323    112.87918  0.029673811  0.030437001            1 
  318000    1.2122745   -7.2765443     113.3679  0.029708569  0.030435237            2 
  319000    1.2005722   -7.2530066    114.20052  0.029832946  0.030434159            1 
  320000    1.2046534    -7.239131    114.14843  0.029726152   0.03043343            3 
  321000    1.2126701   -7.2662827    114.67114  0.029769248  0.030431864            3 
  322000    1.1996844   -7.2718299    114.64293  0.029669495  0.030429738            1 
  323000    1.1871035   -7.2219715    115.53501  0.029807795  0.030427911            1 
  324000    1.2114703   -7.2776239    115.44558  0.029692793  0.030427576            3 
  325000    1.1897486   -7.2977785    115.49572  0.029614287   0.03042576            3 
  326000    1.2196488    -7.278489    115.90131  0.029627125  0.030423118            5 
  327000    1.2067762   -7.2537766    116.70504  0.029741345  0.030420518            1 
  328000    1.1991775   -7.2588557    117.20476  0.029777632  0.030417981            3 
  329000    1.2007706   -7.2469539    117.03309  0.029643641  0.030415913            1 
  330000     1.183599   -7.2381869    117.28842  0.029618289  0.030412391            2 
  331000    1.1884161   -7.2578149    117.41674  0.029561112  0.030407799            4 
  332000    1.1892007   -7.2361671    117.70518  0.029544473  0.030402213            3 
  333000    1.2037134   -7.2671582     118.1089  0.029556782  0.030397111            5 
  334000     1.207084   -7.2470805    118.16311  0.029481813  0.030391101            1 
  335000    1.1881413   -7.2676105    117.91334  0.029331676   0.03038547            3 
  336000    1.1939271   -7.2668803    119.06015  0.029528807  0.030379468            2 
  337000    1.1977649   -7.2791439    119.24579  0.029487089  0.030373895            1 
  338000     1.204203    -7.274956    119.71896  0.029516509  0.030368128            1 
  339000    1.1921857   -7.2927828    119.71726  0.029429021  0.030362833            2 
  340000    1.1583998   -7.2867056     120.2658  0.029476912  0.030356165            2 
  341000    1.1712445   -7.2924667    119.96022  0.029315793  0.030348906            2 
  342000    1.1905256   -7.2830676    120.62954  0.029393162  0.030342375            2 
  343000     1.173262   -7.2679315    121.40914  0.029496875  0.030336442            3 
  344000    1.1839234     -7.24974    121.43371  0.029417081  0.030330666            5 
  345000    1.1990653   -7.2613839    121.94833  0.029456118  0.030324912            3 
  346000    1.2062513   -7.2480574    122.46046   0.02949433  0.030318676            4 
  347000    1.1892644   -7.2854007    122.65945  0.029457121  0.030312661            1 
  348000    1.2030518    -7.267684    122.77929  0.029401171  0.030306884            1 
  349000    1.2010483   -7.2528362    123.23668  0.029426141  0.030300337            1 
  350000    1.1958571   -7.3139417    123.41239  0.029383902   0.03029371            1 
  351000    1.2103213   -7.2591165    123.47714  0.029315561  0.030287146            4 
  352000     1.207374   -7.2590183    123.95981  0.029346546  0.030279202            2 
  353000    1.2068071    -7.232414     124.2172  0.029324173  0.030271346            1 
  354000     1.216568   -7.2625483    124.33895  0.029269997  0.030263426            1 
  355000    1.1946736   -7.2572384    125.50998  0.029462437  0.030256411            3 
  356000    1.1924814   -7.3161685    125.39937  0.029353786  0.030250453            1 
  357000    1.1757196   -7.2898948    125.49921  0.029294867  0.030243074            1 
  358000    1.1884138   -7.2497752    125.82966  0.029289957  0.030235157            2 
  359000    1.1896099   -7.3346535     125.7383  0.029187163  0.030225944            1 
  360000    1.1760435    -7.305944    126.39988  0.029259232  0.030217568            2 
  361000    1.2046802   -7.2419962    126.76528   0.02926253  0.030208791            1 
  362000     1.187856    -7.295864    127.04637  0.029246402  0.030200776            5 
  363000    1.2197029    -7.257902     128.0757  0.029402135  0.030193567            1 
  364000     1.209556   -7.3033464    127.72191  0.029240363  0.030185417            4 
  365000     1.215009   -7.2650147    127.85612  0.029190895  0.030176454            2 
  366000    1.1878625   -7.2803405    128.12284  0.029171867  0.030167278            3 
  367000    1.1688852    -7.288254    128.44935  0.029166519  0.030158188            6 
  368000    1.1994805    -7.258295    128.85267  0.029178594    0.0301497            2 
  369000    1.1904102   -7.2812639    129.16879   0.02917091  0.030139975            5 
  370000    1.1719857   -7.2476642    129.89904  0.029256541   0.03013026            1 
  371000    1.1878681   -7.2436165    129.96397  0.029192266  0.030121316            2 
  372000    1.1706126   -7.2697064    129.90757  0.029101157  0.030111937            1 
  373000    1.1527367    -7.277022    130.26708  0.029103458  0.030102095            2 
  374000    1.1835489    -7.273924    130.61333  0.029102792  0.030092107            1 
  375000    1.2125921   -7.2584541    131.35803  0.029190673  0.030082921            3 
  376000    1.1489926   -7.2904622    131.18946  0.029075678  0.030072669            2 
  377000    1.1963958     -7.26951    131.46175  0.029058741  0.030063004            2 
  378000    1.1669428    -7.286285    131.63933  0.029021016  0.030052753            2 
  379000    1.1853045   -7.2916901    132.04477  0.029033591  0.030042639            3 
  380000     1.172718   -7.3378766    132.40373  0.029035905  0.030034052            2 
  381000    1.1909284   -7.3217831    133.13997  0.029120727  0.030025627            2 
  382000    1.2073896   -7.3167008    133.27438  0.029073819  0.030016708            3 
  383000    1.2126207   -7.3400258    133.65562  0.029080857  0.030008841            2 
  384000    1.2068906   -7.2937295    134.02588  0.029085478  0.030000901            1 
  385000    1.2001624   -7.2281915    135.14282  0.029251692  0.029993808            2 
  386000    1.1745085   -7.3138526    135.00935  0.029147097  0.029986232            2 
  387000    1.2163368   -7.2573814    135.23065  0.029119435  0.029978326            4 
  388000    1.2005743   -7.2932252    135.78863  0.029164224  0.029971117            1 
  389000     1.190893   -7.3237508    135.54566  0.029037202  0.029963991            3 
  390000    1.1839591   -7.2876812    136.03732  0.029067803  0.029956542            1 
  391000    1.1925158   -7.2751161    136.91095  0.029179658  0.029950011            1 
  392000    1.2123189   -7.2883571    137.38456  0.029205901  0.029943832            2 
  393000    1.1791089   -7.3439554    137.76051  0.029211304  0.029938036            2 
  394000    1.1756693   -7.3208782    138.56224  0.029306734  0.029933041            1 
  395000    1.1693882   -7.3392689     138.3765  0.029193354  0.029927924            3 
  396000    1.1778619   -7.2764406    138.95121  0.029240574  0.029923264            2 
  397000    1.2091022   -7.2867703    139.71739  0.029327748  0.029919293            2 
  398000    1.2135137   -7.2693366    140.20321   0.02935578  0.029915276            6 
  399000    1.1840174   -7.3120918    140.00925  0.029241698  0.029910445            5 
  400000    1.1740126    -7.293797     139.9702  0.029160458   0.02990498            4 
  401000    1.2016486   -7.3140578    140.59983  0.029218584  0.029899262            1 
  402000    1.1523606    -7.323144    141.08998  0.029247507   0.02989356            2 
  403000    1.1944871   -7.2336998    141.48848  0.029257337  0.029888621            2 
  404000    1.2074708   -7.2885707    142.04286  0.029299269  0.029884231            5 
  405000    1.1733437    -7.380698    141.31727  0.029077628  0.029877973            2 
  406000    1.1881975   -7.3110454    141.89415  0.029124416  0.029871135            4 
  407000    1.1965038   -7.2995055    142.22618   0.02912084  0.029863751            1 
  408000    1.1688711   -7.3314987    142.09045  0.029021743  0.029856515            2 
  409000    1.2143312   -7.2838765    143.49974  0.029237926  0.029849449            1 
  410000    1.1919461    -7.270364    143.14788  0.029095098  0.029842873            2 
  411000    1.1815786   -7.2946626    143.56456  0.029108791  0.029837041            2 
  412000    1.1922021   -7.3215258    143.72744  0.029071083  0.029830754            3 
  413000    1.1928521   -7.2847721    144.25416  0.029106974  0.029824478            1 
  414000    1.1832896   -7.3075212    144.71907  0.029130248  0.029819131            2 
  415000    1.1663636   -7.2958831    145.23154   0.02916296  0.029813735            1 
  416000    1.2014108   -7.3006196    145.39125   0.02912485  0.029807613            1 
  417000     1.180469   -7.3162223    145.84811  0.029146305  0.029802117            2 
  418000    1.1593436   -7.2545008    146.73863  0.029254114  0.029796901            2 
  419000    1.1935024    -7.365716    146.09653  0.029056589  0.029790571            2 
  420000    1.1868611    -7.298163    146.78642   0.02912429  0.029784263            2 
  421000    1.1761318   -7.3051253    146.96557  0.029090572  0.029778205            1 
  422000    1.1868946   -7.2929153     147.3026  0.029088191  0.029772449            2 
  423000    1.1873001   -7.2691977    147.77149  0.029111799   0.02976622            2 
  424000    1.1692596   -7.2639276    148.00805  0.029089632  0.029760402            3 
  425000    1.2069683   -7.2579154    148.27606  0.029073737    0.0297535            2 
  426000    1.1626094   -7.2456336    148.55747  0.029060538  0.029746516            2 
  427000     1.211217   -7.3059898    148.63293  0.029007208  0.029739484            1 
  428000     1.193861    -7.319535    148.53485  0.028920336  0.029731519            2 
  429000    1.2046762   -7.2896694    149.67775  0.029074932  0.029724033            1 
  430000    1.1923604   -7.3288615    149.50493  0.028973823  0.029716742            2 
  431000    1.1669706   -7.3455749    150.21593  0.029044071  0.029709799            1 
  432000    1.1832659   -7.2858823    150.59126   0.02904924  0.029703873            2 
  433000    1.1891504   -7.3168652    150.56504  0.028977106  0.029697808            3 
  434000    1.1617903   -7.2463049    151.41724   0.02907397  0.029690466            2 
  435000    1.1679649   -7.2895481    151.88141  0.029096056  0.029683911            1 
  436000     1.178499   -7.2838862    151.43197  0.028943419  0.029677161            7 
  437000    1.1841736   -7.2562886    151.95999  0.028977878  0.029670952            2 
  438000    1.1711459   -7.2542581    152.95001  0.029100078  0.029664129            3 
  439000    1.1606127   -7.3050236    153.05272  0.029053288  0.029658924            2 
  440000     1.173917   -7.3627178    152.99357  0.028976056  0.029653202            1 
  441000    1.1801612   -7.2903397    153.72121  0.029047848  0.029647645            1 
  442000     1.166673   -7.2927434     154.3587  0.029102318  0.029642635            3 
  443000    1.1771033   -7.3345235    154.64501  0.029090483  0.029637818            3 
  444000    1.1889831   -7.3815094    154.28735  0.028957836  0.029632064            4 
  445000    1.2279006   -7.2879639    154.91133  0.029009613  0.029626439            2 
  446000    1.1694577   -7.2686189    155.56638  0.029066962  0.029621729            1 
  447000    1.1789462   -7.2900859    156.40696  0.029158642  0.029616021            2 
  448000    1.1846597   -7.2994283    155.62233  0.028947605  0.029610775            2 
  449000    1.1665549   -7.3225944    156.39149   0.02902589  0.029605371            2 
  450000    1.1537503   -7.2884631    156.84159  0.029044739  0.029600561            1 
  451000    1.1581716   -7.2995505    157.26178  0.029057979  0.029595337            2 
  452000    1.1822468   -7.2776933    157.50089  0.029037775  0.029590369            1 
  453000    1.1635943   -7.3357168     157.9291  0.029052447  0.029585504            1 
  454000    1.1755452   -7.2879616    158.02218  0.029005541   0.02958046            3 
  455000    1.1902335   -7.2935447    158.37089  0.029005657  0.029574917            3 
  456000    1.1723832   -7.3031058    159.46395  0.029141804  0.029570114            3 
  457000    1.1516663    -7.350791    158.62413  0.028924896  0.029565231            4 
  458000     1.193947   -7.3448587    159.60142   0.02903956  0.029560855            1 
  459000    1.1726271   -7.3441364    160.16602  0.029078799  0.029556451            2 
  460000    1.1975635    -7.266897    160.82208  0.029134435  0.029552318            1 
  461000    1.1802832   -7.3636717    160.60051  0.029031185  0.029548609            2 
  462000    1.1826403   -7.3120856    161.61669   0.02915164  0.029545434            2 
  463000    1.2034356   -7.3039104    161.91313  0.029142031   0.02954247            2 
  464000    1.1962244   -7.2921284    162.35352  0.029158319  0.029538886            2 
  465000    1.1908998   -7.3085422     162.1807  0.029064642  0.029535883            2 
  466000    1.1849724   -7.3244019    163.08812  0.029164542  0.029532333            1 
  467000    1.1891317   -7.3173573    163.02846  0.029091445  0.029529006            2 
  468000    1.1892552   -7.3315299     163.5525  0.029122595   0.02952577            4 
  469000    1.1546638   -7.3493591    163.64198    0.0290764  0.029522288            3 
  470000    1.1621042   -7.3194264    163.74024  0.029031957  0.029519126            1 
  471000    1.1920923   -7.3285917    163.92572  0.029003135  0.029515581            2 
  472000    1.1737624   -7.3564424     164.7873  0.029093803  0.029511969            2 
  473000    1.1742158   -7.2610246    165.63122  0.029180975  0.029508214            1 
  474000    1.1753619   -7.3234068    166.15106  0.029210804   0.02950494            1 
  475000    1.1937829   -7.3988091     165.0134   0.02894972  0.029501975            1 
  476000    1.1898217   -7.3017454    166.51749  0.029152222  0.029498525            1 
  477000    1.1551121   -7.2792813    167.12195  0.029196707  0.029495636       -1e+20 
  478000    1.1863593   -7.2715399    167.37539  0.029179811  0.029492852            2 
  479000    1.1571403   -7.3083656    167.11937  0.029074351  0.029490337            3 
  480000    1.1699252   -7.3403602    167.67007  0.029109386  0.029486992            2 
  481000    1.1692772   -7.3112182    168.11656  0.029126222   0.02948375            2 
  482000    1.1959839   -7.3418152    168.07344   0.02905834  0.029480648            3 
  483000    1.1688819   -7.3074381    168.81268  0.029125721  0.029477667            1 
  484000    1.2201218    -7.314476    168.26895  0.028971927  0.029473901            3 
  485000    1.1967675   -7.3176015    169.10483  0.029055813  0.029469594            1 
  486000    1.1763986   -7.3145758    169.90581  0.029133369  0.029465707            3 
  487000    1.1553088   -7.3200329    169.32968  0.028974962   0.02946156            2 
  488000    1.1826688    -7.300909    170.26451  0.029075224  0.029457586            2 
  489000    1.1989679   -7.3366219    169.63688  0.028908807  0.029453509            2 
  490000    1.1798674   -7.3117046    170.34283  0.028969868  0.029449303            1 
  491000    1.1945373   -7.2923027    171.54044  0.029114128  0.029444875            2 
  492000    1.1688223     -7.34207    171.13125  0.028985645  0.029440694            1 
  493000    1.1938871   -7.3206901    170.94413  0.028895221  0.029436271            1 
  494000    1.1858779   -7.3469683    171.88161  0.028994873  0.029431928            6 
  495000    1.1941291   -7.2732516    172.67112  0.029069213  0.029428691            6 
  496000    1.1902177   -7.2575869    172.94167   0.02905606  0.029425726            2 
  497000    1.1473533   -7.3964323    172.10142   0.02885671  0.029421954            2 
  498000    1.1950937   -7.3596634    172.90055  0.028932489  0.029417792            2 
  499000    1.1801177    -7.285498    173.72701  0.029012527  0.029414066            2 
  500000    1.1676469   -7.3332533    173.75874  0.028959791  0.029410172            3 
  501000    1.1780837   -7.3526013    173.76646   0.02890327  0.029406093            1 
  502000    1.1722246   -7.3401131    174.48514  0.028964996  0.029401774            1 
  503000     1.189507   -7.3219457    174.95863  0.028985856  0.029397646            1 
  504000     1.159119   -7.3650909    175.69644  0.029050337   0.02939359            2 
  505000    1.1757188   -7.3187504    175.79661  0.029009342  0.029389301            1 
  506000    1.1742181   -7.3418432    175.94266  0.028976064  0.029384881            4 
  507000    1.1571623   -7.3421926    176.06906  0.028939688  0.029380201            3 
  508000    1.1537098   -7.3412824    176.19332  0.028903103  0.029375869            4 
  509000    1.1583125   -7.3420934    176.43754  0.028886303  0.029371924            4 
  510000     1.179599   -7.2946084    176.92822  0.028909839  0.029367355            3 
  511000    1.1887634   -7.3759053    176.81567   0.02883491  0.029362476            4 
  512000    1.1674448   -7.3061102    177.90294  0.028955557  0.029358097            1 
  513000    1.1750943   -7.3892811    177.06231  0.028762559  0.029353324            4 
  514000    1.1622035   -7.3473575    178.19346   0.02888999   0.02934845            1 
  515000    1.1643884     -7.36165    178.66629  0.028910402  0.029343785            7 
  516000    1.1803553   -7.3626835    178.93881  0.028898387   0.02933865            4 
  517000    1.1675322   -7.3221898    179.52374  0.028936773  0.029333684            1 
  518000    1.1535713   -7.3404199    179.02598  0.028800833  0.029328895            1 
  519000    1.1739227   -7.3322301    179.46581  0.028815962  0.029323945            2 
  520000    1.1661551   -7.3742594    179.52672  0.028770308  0.029318938            2 
  521000    1.1771321   -7.3400741    179.78277  0.028756041  0.029313501            2 
  522000     1.167035   -7.3154734    180.63464  0.028836947  0.029308143            2 
  523000    1.1930437   -7.4026084    179.90053  0.028664839  0.029302809            2 
  524000    1.1877743   -7.3131369    180.55285  0.028713875  0.029296989            2 
  525000    1.1865057   -7.3526409    180.75603  0.028691433  0.029291273            1 
  526000    1.1890304   -7.3268505    181.38154  0.028735986  0.029285753            2 
  527000    1.1625232   -7.3507596     181.4564  0.028693296  0.029280249            3 
  528000    1.1615727   -7.2901494    182.45802  0.028797037   0.02927385            3 
  529000    1.1532672    -7.376232    181.98796  0.028668551  0.029267963            2 
  530000    1.1605065    -7.335575    182.31107  0.028665263  0.029261648            2 
  531000    1.1806502   -7.3271911    183.16426  0.028745175  0.029255619            3 
  532000    1.1625687   -7.3232615     183.0482  0.028672963  0.029249674            4 
  533000    1.1652393   -7.3309056    183.37081  0.028669608  0.029243281            2 
  534000    1.1784808   -7.3891165     183.1979  0.028588936  0.029237547            1 
  535000    1.1732567    -7.360924    184.26261  0.028701341  0.029232121            2 
  536000    1.1731244   -7.3413198    184.95596  0.028755591  0.029226268            2 
  537000    1.1520787   -7.3140464    185.07926  0.028721176  0.029220617            2 
  538000    1.1985395   -7.3097864     185.5457  0.028740039  0.029214985            3 
  539000    1.1811833   -7.3334069    185.08254  0.028615112  0.029208991            2 
  540000    1.1525601   -7.3538832    185.87628  0.028684611  0.029202947            4 
  541000    1.1618364   -7.3523091    185.36885  0.028553427  0.029196028            2 
  542000    1.1967042   -7.3166971    186.33152  0.028648757  0.029189552            1 
  543000    1.1773967   -7.3587284     186.4098  0.028608012  0.029183753            3 
  544000    1.1594085   -7.3256647    186.75341   0.02860806  0.029177641            4 
  545000    1.1625039    -7.407394    186.54397  0.028523543   0.02917181            1 
  546000    1.1595332   -7.3274107    188.09035  0.028707318  0.029165757            1 
  547000    1.1758956   -7.3843966    187.57092  0.028575703  0.029160056            2 
  548000    1.1557309   -7.3107058    188.32264  0.028637872  0.029154737            5 
  549000    1.1682682    -7.354472    188.65639  0.028636368   0.02914942            3 
  550000    1.1895609   -7.3345553    188.99756  0.028635994  0.029143473           10 
  551000    1.1385912   -7.3883103    188.86986  0.028564709  0.029136893            6 
  552000    1.1902973   -7.3543179    188.70407  0.028487934  0.029130552            3 
  553000    1.1504074    -7.349997    189.56991  0.028566894  0.029124626            1 
  554000     1.181642   -7.3525914    190.03176  0.028584801  0.029118664            3 
  555000    1.1637868   -7.3442396    190.31291  0.028575512  0.029112466            2 
  556000    1.1485933   -7.3486764      190.695  0.028581385  0.029106214            3 
  557000    1.1472755   -7.3182716    190.85072  0.028553369  0.029099999            1 
  558000    1.1521487   -7.3830782    190.76349  0.028489171  0.029093831            2 
  559000    1.1597595   -7.3612485    190.94973  0.028465971  0.029087026            3 
  560000    1.1940928   -7.3432235    191.96732  0.028566566  0.029080398            2 
  561000    1.1657956    -7.367734    191.84754  0.028497852  0.029073886            3 
  562000    1.1349921   -7.3199396    192.57237  0.028554622  0.029067596            3 
  563000    1.1780022   -7.3689231    192.14758  0.028441028  0.029061719            2 
  564000    1.1674671   -7.3840758    192.22925  0.028402667  0.029055321            3 
  565000    1.1571705   -7.3786979    193.51562  0.028542126  0.029049091            2 
  566000    1.1362592   -7.3641858    193.87943  0.028545264  0.029042823            5 
  567000     1.170393   -7.3825402    193.96298  0.028507198  0.029036269            3 
  568000    1.1731587   -7.3449302    193.97151  0.028458261  0.029029397            2 
  569000    1.1477066   -7.3732506      194.911  0.028545841  0.029022688            2 
  570000    1.1417251   -7.3678956    194.25944  0.028400502  0.029016108            2 
  571000    1.1445093    -7.327845    195.23286  0.028492829  0.029009716            2 
  572000    1.1544444   -7.3960889    195.20885  0.028439517  0.029002996            2 
  573000     1.171522   -7.3622128    195.34985  0.028410391  0.028996429            2 
  574000    1.1468548   -7.3597653    196.32816  0.028502926  0.028990312            2 
  575000    1.1731255   -7.3888957    196.14726   0.02842714  0.028984111            2 
  576000     1.150746    -7.368122    196.08457  0.028368717  0.028978048            1 
  577000    1.1499338   -7.3402908     197.8657  0.028576791  0.028972255            1 
  578000    1.1482441   -7.3314426    198.31074  0.028591514  0.028966791            2 
  579000    1.1613102    -7.335707    198.41122  0.028556595  0.028961787            2 
  580000    1.1643975   -7.3970434     198.4891  0.028518549  0.028956629            1 
  581000    1.1668324   -7.3918636     198.2763  0.028438941   0.02895099            2 
  582000    1.1329856    -7.361613    200.00712  0.028637903  0.028945785            1 
  583000    1.1937862   -7.3974631    199.26246  0.028482341  0.028940119            4 
  584000    1.1748105   -7.3488529    199.50861  0.028468694   0.02893421            2 
  585000    1.1867248   -7.3612229    198.90441  0.028333962   0.02892807            1 
  586000    1.1444671   -7.3754997    199.67038  0.028394536  0.028921892            2 
  587000     1.128662   -7.3403598    200.02477  0.028396475  0.028915382            2 
  588000    1.1291568   -7.3414117     200.7462  0.028450424   0.02890889            3 
  589000    1.1760116   -7.3499904    200.85162  0.028417037  0.028902542            2 
  590000     1.157132   -7.3267368    201.82015  0.028505672  0.028896428            1 
  591000    1.1505285   -7.3864256    201.35935  0.028392463  0.028890195            3 
  592000    1.1534287   -7.4037089    201.56207   0.02837304  0.028883978            1 
  593000     1.135383   -7.3651352    201.45957  0.028310788  0.028877739            3 
  594000    1.1666703   -7.3726996    202.23747   0.02837226   0.02887168            3 
  595000    1.1582495   -7.4230444    201.68326  0.028246955  0.028864882           10 
  596000     1.173385   -7.3492476    203.16661  0.028406964  0.028858556            3 
  597000     1.164313   -7.3274332    203.26996  0.028373809  0.028852603            2 
  598000    1.1628802   -7.3675495    203.92528  0.028417682  0.028847112            1 
  599000    1.1763052   -7.3731339    203.45365  0.028304626  0.028841594            1 
  600000    1.1509927   -7.3583946    204.34143  0.028380754  0.028836494            2 
  601000    1.1827182   -7.3884073    204.69385  0.028382398  0.028831185            3 
  602000    1.1656766   -7.3870346    205.13425  0.028396214   0.02882618            2 
  603000    1.1354119   -7.3837592    206.10627  0.028483454  0.028820944            2 
  604000    1.1357572   -7.3568305    206.80046  0.028532072  0.028816449            3 
  605000     1.178435   -7.3766301    207.15507  0.028533756  0.028812136            2 
  606000    1.1299406   -7.3604976    206.48522  0.028394557  0.028807704            1 
  607000    1.1533368   -7.3507687    207.09617  0.028431655  0.028802694            3 
  608000     1.156714   -7.3919166    206.91299  0.028359785  0.028797326            1 
  609000    1.1506037    -7.391373    207.87886  0.028445383  0.028791984            3 
  610000    1.1647253   -7.3784408    207.92442  0.028404976  0.028786631            3 
  611000    1.1603772   -7.3886539    207.72317  0.028331038  0.028781403            3 
  612000    1.1694564   -7.4109768    207.83972  0.028300616  0.028776638            1 
  613000    1.1442198   -7.3451101     208.5396  0.028349593  0.028771591            2 
  614000    1.1517824   -7.3656562    208.36969  0.028280359  0.028766329            5 
  615000    1.1474786   -7.3552244    208.89849  0.028306028  0.028760942            2 
  616000    1.1647896   -7.3673283    209.32194  0.028317362  0.028755541            1 
  617000    1.1585408   -7.3689762    209.64359  0.028314909   0.02875017            2 
  618000    1.1437762   -7.4277442    210.38006  0.028368401  0.028745103            3 
  619000    1.1184996   -7.4054737    210.67752  0.028362618  0.028739782            1 
  620000     1.157755   -7.3699713    210.95445  0.028354092  0.028734572            2 
  621000    1.1467698   -7.3824415    211.62426  0.028398318   0.02872982            2 
  622000    1.1567424   -7.3783444    211.57449  0.028345992  0.028724738            2 
  623000    1.1291122   -7.3518785    211.63152  0.028308121  0.028719729            2 
  624000    1.1480194   -7.3648075    212.39717  0.028365006  0.028714492            2 
  625000    1.1507326    -7.422616    211.86878  0.028249171  0.028709621            3 
  626000    1.1602468   -7.4068275    213.40802  0.028408948   0.02870503            1 
  627000    1.1845117    -7.404106    214.01909  0.028444855  0.028700583            5 
  628000    1.1764179   -7.4080499    214.40208  0.028450382  0.028696006            2 
  629000     1.166812   -7.3957782     213.9258   0.02834205  0.028691535            2 
  630000    1.1558952   -7.3951804    214.38613  0.028357953  0.028686657            4 
  631000     1.155313   -7.3997105    215.52086  0.028462872  0.028682187            2 
  632000    1.1779767    -7.402548    215.24739  0.028381776  0.028677769            2 
  633000    1.1178976   -7.3442248    215.20037  0.028330749  0.028673087            3 
  634000    1.1440747   -7.3993429    215.52554  0.028328804  0.028668745            3 
  635000    1.1577173   -7.4198509    215.39291  0.028266786  0.028663967            1 
  636000    1.1440481   -7.3970066    215.78271  0.028273416  0.028659235            2 
  637000    1.1302349   -7.4216786    216.11565  0.028272587  0.028654477            1 
  638000    1.1804443   -7.4243794    216.01363  0.028214947  0.028648992            1 
  639000    1.1619811   -7.3910142    216.21026  0.028196435  0.028644049            2 
  640000    1.1415738   -7.3869347    216.85104  0.028235812  0.028639093            1 
  641000     1.162224   -7.3577635    217.47745  0.028273199  0.028633992            3 
  642000    1.1360116   -7.3527593     217.9827  0.028294743  0.028629094            3 
  643000    1.1389458   -7.3834138    218.78094  0.028354192  0.028624585            4 
  644000    1.1399812   -7.3942606    217.72492  0.028173515  0.028619775            1 
  645000    1.1440475   -7.4108753    218.37526  0.028213858   0.02861477            2 
  646000    1.1390692   -7.3786442    218.78246  0.028222711  0.028609748            4 
  647000    1.1419257   -7.3781764    220.50533  0.028400995  0.028605052            2 
  648000    1.1658746   -7.4525913    218.90645   0.02815155  0.028600007            2 
  649000    1.1439045   -7.3867704    220.01462  0.028250465   0.02859475            1 
  650000    1.1476474   -7.4015819     220.5494  0.028275565  0.028589282            2 
  651000     1.155616   -7.3846376    221.01389  0.028291589  0.028583698            2 
  652000    1.1497389   -7.3806345     220.7141   0.02820988  0.028578393            2 
  653000    1.1346016   -7.3768666    221.14052  0.028221097  0.028572785            1 
  654000    1.1477267   -7.3803012    221.22231  0.028188368  0.028567284            2 
  655000    1.1369875   -7.4074214    221.19725  0.028142144  0.028561986            2 
  656000     1.154532    -7.386401    221.58988   0.02814912  0.028556356            1 
  657000    1.1533548   -7.3898614    222.05475   0.02816524  0.028550656            2 
  658000    1.1818761   -7.3856259    222.65723  0.028198737  0.028545419            5 
  659000    1.1505975   -7.3884946    223.23828  0.028229423  0.028540211            4 
  660000    1.1409206   -7.4094276    223.00694  0.028157442  0.028535023            1 
  661000    1.1325586   -7.3801274    223.95818  0.028234768   0.02852992            2 
  662000    1.1392706   -7.3911781    223.83278  0.028176332  0.028525034            3 
  663000    1.1691861   -7.3707959    224.24126  0.028185176  0.028520186            1 
  664000    1.1333254   -7.4115905    224.31386   0.02815184  0.028515166            1 
  665000    1.1470322   -7.4160593    225.51858  0.028260474  0.028510564            3 
  666000    1.1316047   -7.3820801    226.18404  0.028301307  0.028506599            4 
  667000    1.1450126   -7.3765667    226.27912  0.028270754  0.028502555            2 
  668000    1.1375142   -7.4012316    225.80332  0.028169077  0.028498174            1 
  669000    1.1470821   -7.3983162    225.67757  0.028111307  0.028493379            3 
  670000    1.1386376   -7.4090399    227.02868  0.028237398  0.028488651            2 
  671000    1.1232362   -7.3895175    226.99894  0.028191623  0.028484143            5 
  672000    1.1222484   -7.3564417    228.15197  0.028292655  0.028479669            3 
  673000    1.1749619    -7.386296    227.39194  0.028156505   0.02847503            1 
  674000    1.1497672   -7.4376379    227.14072   0.02808367  0.028470463            2 
  675000    1.1496926   -7.3755184    227.49667  0.028086009  0.028465247            1 
  676000    1.1773647   -7.4010223    228.57905   0.02817789  0.028460098            1 
  677000    1.1300835   -7.3920826     228.5473  0.028132361  0.028455252            2 
  678000    1.1299322   -7.3854551    229.24999  0.028177235  0.028450085            3 
  679000    1.1518516   -7.4222573    228.45131  0.028037716  0.028444711            4 
  680000    1.1271788   -7.4557885    228.86529  0.028047217  0.028439446            3 
  681000    1.1411002   -7.3579659    230.13863  0.028161849  0.028434276            1 
  682000    1.1385657   -7.3850964    229.47522  0.028039494  0.028428859            1 
  683000    1.1342312   -7.3985236    229.80165  0.028038269  0.028423243            2 
  684000    1.1325938   -7.3907119    230.04541  0.028026975  0.028417435            2 
  685000    1.1306352   -7.3953466    229.88709  0.027966799   0.02841194            3 
  686000    1.1346255    -7.405472    229.94673  0.027933277  0.028405824            2 
  687000    1.1417937   -7.4211489    229.53246  0.027842366  0.028399653            3 
  688000    1.1103875   -7.3957636    230.48087  0.027916772  0.028393375            4 
  689000    1.1123241   -7.4264526    230.65658  0.027897506  0.028386915            2 
  690000    1.1484896   -7.4168765    230.55098  0.027844322  0.028380833            3 
  691000    1.1362406   -7.4378284    231.98951   0.02797751  0.028374696            2 
  692000    1.1551898   -7.3802799    232.44937  0.027992458  0.028368567            1 
  693000     1.128019   -7.3862323       232.25   0.02792809  0.028362886            2 
  694000    1.1189767   -7.4219595    232.38459   0.02790401  0.028356855            2 
  695000    1.1432482   -7.3702223    233.22285  0.027964371  0.028350741            2 
  696000    1.1509354   -7.3746571    233.91329  0.028006859  0.028345214            1 
  697000    1.1404602   -7.4443879    234.18291  0.027998914  0.028339951            4 
  698000    1.1187591   -7.4180072    233.76198  0.027908545  0.028334477            1 
  699000    1.1285724   -7.3884937     234.9943  0.028015534  0.028329139            2 
  700000    1.1428072   -7.4232224    234.66339  0.027936117  0.028323911            4 
  701000    1.1546696   -7.4024855    234.68819  0.027899215  0.028318453            1 
  702000    1.1305288   -7.4357531    235.59567  0.027967197  0.028313432            2 
  703000    1.1317048   -7.4600952      235.168  0.027876718  0.028307995            2 
  704000    1.1198804   -7.4216561    235.78966  0.027910708  0.028302443            5 
  705000    1.1288631   -7.4060157    236.27242  0.027928182  0.028296789            3 
  706000      1.14683   -7.4617334    236.51999  0.027917846  0.028291135            1 
  707000    1.1459577   -7.4189148    236.60605  0.027888502  0.028285752            4 
  708000    1.1475938   -7.4277144    237.09107  0.027906199  0.028280108            1 
  709000    1.1424597   -7.4362015    236.97011  0.027852623   0.02827472            2 
  710000    1.1338567   -7.3874438    238.04961  0.027940095  0.028269491            6 
  711000    1.1370032   -7.3719139     238.1029  0.027907044  0.028264717            2 
  712000    1.1398676   -7.4162237    238.65439  0.027932395  0.028259784            2 
  713000    1.1544913   -7.3924073    238.97798   0.02793104  0.028254802            2 
  714000    1.1533418   -7.4053095    239.46435  0.027948686  0.028249569            3 
  715000    1.1377163   -7.4558771    239.94259  0.027965337  0.028244501            2 
  716000    1.1366642    -7.383668    239.99217  0.027932049  0.028239271            2 
  717000    1.1465525   -7.4459306    240.04035  0.027898692  0.028233796            3 
  718000    1.1253892   -7.4057899    239.21227  0.027763727  0.028227944            4 
  719000    1.1568452   -7.4598803    239.10089  0.027712204  0.028221888            2 
  720000    1.1349931   -7.4329126    239.74254  0.027747979  0.028215893            3 
  721000    1.1315042   -7.4284493    240.16275  0.027758062   0.02821004            2 
  722000    1.1396418    -7.389593    241.35424  0.027857138  0.028204146            2 
  723000     1.144745   -7.4313099    240.73264  0.027746961  0.028198185            1 
  724000    1.1286735   -7.4075933    241.32487  0.027776803  0.028191962            2 
  725000    1.1704153   -7.4127047    241.58308  0.027768171  0.028185864            2 
  726000    1.1260705   -7.4459266    241.47964  0.027718049  0.028179813            3 
  727000     1.136551   -7.4453233    242.28923  0.027772723  0.028173936            2 
  728000     1.130878   -7.4148977    242.51275  0.027760159  0.028167904            2 
  729000    1.1555098   -7.4198808    243.33086  0.027815599  0.028161973            1 
  730000    1.1672823   -7.4430493    242.51539  0.027684406   0.02815604            3 
  731000    1.1303952   -7.3637716    243.31768  0.027737994  0.028149999            3 
  732000    1.1324792   -7.4100388    243.80259  0.027755304  0.028144363            2 
  733000    1.1200161   -7.4405948    244.57981  0.027805799  0.028138947            1 
  734000     1.157002   -7.4657437    244.37379  0.027744526   0.02813326            4 
  735000    1.1175648   -7.4129892    245.96429  0.027887108  0.028127792            6 
  736000       1.1449   -7.4415694    245.47748  0.027794099  0.028122518            2 
  737000    1.1021193   -7.4427363    245.48014  0.027756687  0.028116702            1 
  738000    1.1373826   -7.4240351    245.42706  0.027713083  0.028111354            2 
  739000    1.1013764   -7.4022769    246.45036  0.027790975  0.028105782            2 
  740000    1.1231571   -7.4014793    246.45389  0.027753816  0.028100264            2 
  741000    1.1616042   -7.4223029    247.03031  0.027781186   0.02809475            5 
  742000    1.1411429   -7.4837965    246.24328  0.027655355  0.028089099            3 
  743000    1.1409229   -7.4541133    245.99074  0.027589809  0.028083075            2 
  744000    1.1641196   -7.4335806    246.74457   0.02763716  0.028076848            2 
  745000    1.1179014   -7.4762858    246.51706  0.027574615  0.028070929            2 
  746000    1.1157523   -7.4306215    247.95975  0.027698811  0.028064611            2 
  747000    1.1117295   -7.4787154    247.19046   0.02757591   0.02805858            1 
  748000    1.1141035   -7.4235525    248.50483  0.027685475  0.028052185            1 
  749000    1.1356064   -7.4424082    247.99423  0.027591703  0.028045799            2 
  750000    1.1219411   -7.4440295    248.33252  0.027592503  0.028039348            2 
  751000     1.132637   -7.4513626    248.42919  0.027566488  0.028032881            4 
  752000    1.1378867   -7.4323895      249.077  0.027601617  0.028026689            1 
  753000     1.146054   -7.3971323    250.02729   0.02767013  0.028020381            2 
  754000    1.1256306   -7.4551267    248.11708  0.027422312  0.028014003            5 
  755000    1.1497558   -7.3849227    249.49909  0.027538531  0.028007274            2 
  756000    1.1374388   -7.3993433    250.23694  0.027583437  0.028000955            2 
  757000    1.1202235   -7.4342784    250.65248  0.027592743    0.0279944            3 
  758000    1.1199135    -7.403675    251.05933   0.02760107  0.027988345            1 
  759000    1.1275758   -7.4116475    251.19641  0.027579755  0.027982043            2 
  760000    1.1602497   -7.4334427      250.997  0.027521601   0.02797568            2 
  761000    1.1572631   -7.4340747    251.71438  0.027563992  0.027969399            1 
  762000    1.1081371   -7.4562818    250.95894  0.027445203  0.027963108            2 
  763000    1.1122141   -7.4244544    251.05541   0.02741977   0.02795647            1 
  764000    1.1217601   -7.4366652    251.28808  0.027409259  0.027949594            1 
  765000    1.1422754   -7.4547553    252.45795  0.027500866  0.027942733            2 
  766000    1.1080605   -7.4438548     252.5125  0.027470898   0.02793582            4 
  767000    1.0895394   -7.4190826    253.20821  0.027510671  0.027928918            1 
  768000    1.1481185   -7.4066485    252.70298  0.027420028  0.027922118            2 
  769000    1.1284479   -7.4446296    252.63796  0.027377326  0.027915315            7 
  770000    1.1203374   -7.4752183    251.32475  0.027199649  0.027908005            1 
  771000    1.1190519   -7.4156443     253.8095  0.027432934  0.027900846            1 
  772000    1.1520272   -7.4053945     254.7601  0.027500011  0.027893864            1 
  773000    1.1388538   -7.4714689    253.24146  0.027300718  0.027886904            1 
  774000    1.1181187   -7.4216358    254.19928   0.02736857  0.027879931            1 
  775000    1.1413622   -7.4204187     254.4495  0.027360161  0.027872954            2 
  776000    1.1223413   -7.4383646    253.91165  0.027267145  0.027866025            2 
  777000    1.1348366    -7.465962     254.6952  0.027316088  0.027858852            3 
  778000    1.1277198   -7.4083101    255.94306  0.027414638  0.027851851            1 
  779000    1.1307974   -7.4375484    255.43569   0.02732517  0.027844907            1 
  780000    1.1137838   -7.4657612    255.69992  0.027318367  0.027837913            2 
  781000    1.1290329   -7.4613028     255.4778  0.027259689  0.027830656            2 
  782000    1.1132467   -7.4554564    255.91264  0.027271168  0.027823343            2 
  783000    1.1260244   -7.4474829    257.26715  0.027380497  0.027815966            3 
  784000      1.12504    -7.469912     256.7167  0.027287064  0.027808843            2 
  785000    1.1334575    -7.462421    256.87154  0.027268741  0.027801555            1 
  786000    1.1268276   -7.4796384    256.81671  0.027228235  0.027794409            3 
  787000    1.1117875   -7.4240336    257.83355  0.027301308  0.027787463            3 
  788000    1.1139419   -7.4671176    257.33946  0.027214409  0.027780659            2 
  789000     1.115302   -7.4696313     257.9568   0.02724512  0.027773476            3 
  790000    1.1302644   -7.3545983    259.30667  0.027353024  0.027766967            1 
  791000    1.1420638   -7.4254467    259.33421  0.027321346  0.027760375            3 
  792000     1.128842   -7.4253163    259.28561  0.027281735  0.027753467            3 
  793000    1.1184932   -7.4406502    259.27314  0.027246022   0.02774669            2 
  794000    1.1140602   -7.4400491    259.40527  0.027225574  0.027739698            1 
  795000    1.1163097   -7.4620487    259.82984  0.027235833  0.027732545            2 
  796000    1.1199819   -7.4682371     259.9595   0.02721519   0.02772527            2 
  797000    1.1180228   -7.4865653    260.30392  0.027217055  0.027718299            2 
  798000     1.138997   -7.4107862    261.38993  0.027296359  0.027711534            1 
  799000    1.1216181   -7.4714545    261.27685  0.027250402   0.02770499            2 
  800000    1.1437533   -7.4279976    261.44153  0.027233493  0.027698666            1 
  801000    1.1667264   -7.4474806    262.84327  0.027345325  0.027692179            2 
  802000    1.1084696   -7.4794181    261.82625  0.027205554  0.027685682            3 
  803000    1.1079433   -7.4926328    262.71325  0.027263724  0.027679074            1 
  804000    1.1410141   -7.4433984    263.37445  0.027298347  0.027672491            2 
  805000     1.135794   -7.4692842    263.10405  0.027236444    0.0276664            2 
  806000    1.1247668   -7.4718987    264.09928   0.02730555  0.027660365            1 
  807000    1.1286158   -7.4728188    263.58845  0.027218965   0.02765421            3 
  808000    1.1283694   -7.4516363    264.75281  0.027305365  0.027648051            3 
[...]
 4800000   0.48145206   -9.1040902    499.61004 0.0086737854 0.0069880883          437 
 4801000   0.47797403   -9.1082647    498.44074 0.0086516826 0.0069856239          457 
 4802000   0.48621649   -9.1254624    498.94374 0.0086586099 0.0069831607          450 
 4803000   0.48564483   -9.1263849    499.29362 0.0086628777 0.0069806959          452 
 4804000   0.47983282   -9.1172624    499.29051 0.0086610205  0.006978234          434 
 4805000   0.47639163   -9.0937041    499.55053 0.0086637275 0.0069757733          440 
 4806000   0.48202815   -9.1322693    499.32204  0.008657963 0.0069733112          460 
 4807000   0.48493267   -9.1221491    498.98826 0.0086503755 0.0069708537          450 
 4808000   0.48326297   -9.1159641    499.41267 0.0086559323 0.0069683946          444 
 4809000   0.48450063   -9.1253727    499.04518 0.0086477642 0.0069659377          425 
 4810000   0.48569516   -9.1146701    499.53026 0.0086543705  0.006963483          430 
 4811000   0.48291111   -9.1154305    498.96274 0.0086427413 0.0069610288          423 
 4812000   0.48138435    -9.109766    498.57872 0.0086342948 0.0069585766          404 
 4813000    0.4805688   -9.1307661    498.87244 0.0086375864 0.0069561254          438 
 4814000   0.49210485   -9.1137152    499.55615 0.0086476277  0.006953676          432 
 4815000   0.48194647   -9.1229615    499.56767  0.008646031 0.0069512236          437 
 4816000   0.47574987   -9.1089122    498.11054 0.0086190224 0.0069487733          423 
 4817000   0.48139346   -9.1438785    498.94655  0.008631696 0.0069463256          432 
 4818000   0.47150362   -9.1248279    499.48516 0.0086392203 0.0069438788          431 
 4819000   0.48381749   -9.1114889    499.06849 0.0086302222 0.0069414325          440 
 4820000   0.47926789   -9.1126823    499.76684 0.0086405055 0.0069389871          442 
 4821000   0.48110544   -9.1179628    499.29317 0.0086305257 0.0069365443          421 
 4822000   0.48687801   -9.1186596     500.3677 0.0086473057 0.0069341035          425 
 4823000   0.47544551   -9.1129146    498.71889 0.0086170242 0.0069316621          444 
 4824000    0.4643546   -9.1208938    499.06412 0.0086212016 0.0069292215          451 
 4825000   0.47797004   -9.1185365    499.25108 0.0086226438 0.0069267829          420 
 4826000   0.48411518   -9.1363781    499.00122 0.0086165427 0.0069243458          432 
 4827000   0.47926009   -9.1137554    499.15952 0.0086174904 0.0069219111          437 
 4828000   0.48179773    -9.142329    499.16682 0.0086158316 0.0069194776          437 
 4829000   0.47398416   -9.1179078     500.2237 0.0086322858 0.0069170439          433 
 4830000   0.47718749   -9.1242495    499.17379 0.0086123842 0.0069146109          443 
 4831000   0.47811045   -9.1216362    499.25543 0.0086120097 0.0069121778          453 
 4832000   0.48058837   -9.1110357    499.49646 0.0086143844 0.0069097454          432 
 4833000   0.47685931   -9.1199729    498.82038 0.0086009446 0.0069073156          424 
 4834000   0.47709248   -9.1153909    499.21107 0.0086059004 0.0069048858          457 
 4835000   0.47966131   -9.1205284    498.60174 0.0085936184 0.0069024587          444 
 4836000   0.48820521   -9.1103232    498.61047 0.0085919918 0.0069000316          437 
 4837000   0.47586438   -9.1218056    499.77639 0.0086103023 0.0068976057          449 
 4838000   0.46688866   -9.1242679    499.33132 0.0086008564 0.0068951806          447 
 4839000   0.47465684   -9.1247242    499.08407 0.0085948211 0.0068927576          457 
 4840000    0.4741937   -9.1143858    499.18601 0.0085948005 0.0068903347          442 
 4841000   0.47518677   -9.1183655    498.68848 0.0085844606 0.0068879144          452 
 4842000   0.47980909   -9.1222088    498.55542 0.0085803976 0.0068854938          425 
 4843000   0.47159734   -9.1470078    498.10775 0.0085709228 0.0068830774          442 
 4844000   0.47409899   -9.1252092    498.82965 0.0085815726  0.006880658          438 
 4845000   0.47246394   -9.1208071    498.91081 0.0085811973 0.0068782424          452 
 4846000    0.4733917   -9.1170735    498.73046 0.0085763252 0.0068758255          451 
 4847000   0.47796228   -9.1246933    498.32909 0.0085676551 0.0068734111          460 
 4848000   0.47578045   -9.1166395    499.01108 0.0085776108 0.0068709975          449 
 4849000   0.48258713   -9.1183695    499.27061  0.008580302 0.0068685844          442 
 4850000    0.4690139   -9.1274107    499.14056 0.0085762983 0.0068661734          448 
 4851000   0.48549663   -9.1280432    499.41835 0.0085793023 0.0068637629          458 
 4852000     0.487206   -9.1286201    498.49775 0.0085617229 0.0068613532          444 
 4853000   0.47123523   -9.1281977    498.85242 0.0085660488 0.0068589451          458 
 4854000   0.47315899   -9.1262668    498.53732 0.0085588744 0.0068565388          435 
 4855000   0.46859523   -9.1376315     498.7193 0.0085602351  0.006854132          445 
 4856000    0.4791414    -9.121428    499.16423 0.0085661077 0.0068517258          422 
 4857000   0.47625476   -9.1281601    498.39429 0.0085511339 0.0068493224          450 
 4858000   0.46673195   -9.1438058    498.87071 0.0085575462 0.0068469213          445 
 4859000   0.47626158   -9.1408445    498.71984 0.0085531975 0.0068445191          449 
 4860000   0.47372456   -9.1371133    499.04521 0.0085570167 0.0068421187          429 
 4861000   0.46641954   -9.1242417    498.60955 0.0085477876 0.0068397174          426 
 4862000   0.46260204   -9.1262707    498.91315 0.0085512332 0.0068373193          430 
 4863000   0.46991285   -9.1244234    499.11515 0.0085529362 0.0068349215          439 
 4864000   0.47009279   -9.1235461    498.50904 0.0085407935 0.0068325249          418 
 4865000   0.47236218   -9.1400007    498.83721 0.0085446594 0.0068301305          440 
 4866000    0.4778247   -9.1341773    499.56633 0.0085553899 0.0068277352          456 
 4867000   0.46546319    -9.146846    498.91374 0.0085424583 0.0068253413          426 
 4868000   0.46564176   -9.1409011    498.77001 0.0085382431 0.0068229493          439 
 4869000   0.46835686   -9.1260103    499.20942   0.00854401  0.006820558          456 
 4870000   0.47248109   -9.1321419    498.24517 0.0085257558 0.0068181684          431 
 4871000   0.47080141   -9.1310968    499.57556 0.0085467659 0.0068157801          426 
 4872000   0.45910808   -9.1377129     499.5498 0.0085445709 0.0068133946          439 
 4873000   0.46203587   -9.1367571    498.39871 0.0085231327 0.0068110084          449 
 4874000   0.48028403   -9.1300573    498.63139 0.0085253623  0.006808624          420 
 4875000   0.46247581   -9.1299441    498.88746 0.0085279908 0.0068062411          430 
 4876000   0.47331759   -9.1440944    499.12065 0.0085302271 0.0068038592          436 
 4877000   0.47109854   -9.1191492    498.50434 0.0085179471 0.0068014774          449 
 4878000   0.46582538   -9.1337322    498.54745 0.0085169375 0.0067990966          433 
 4879000   0.46989161   -9.1275529    498.59563 0.0085160148 0.0067967151          443 
 4880000   0.47441118   -9.1288992    498.64534 0.0085151185 0.0067943356          441 
 4881000   0.46600654   -9.1420705    499.10381 0.0085212014 0.0067919555          434 
 4882000   0.46916125    -9.116278    498.97666 0.0085172856 0.0067895792          431 
 4883000   0.47286652   -9.1440329    498.38578 0.0085054573 0.0067872056          466 
 4884000   0.46949759   -9.1209724    498.32231 0.0085026329 0.0067848337          430 
 4885000   0.47191116   -9.1410682    499.25091 0.0085167334 0.0067824616          440 
 4886000    0.4646696   -9.1287893    498.98605 0.0085104729 0.0067800894          455 
 4887000   0.45825604   -9.1341455    498.84204 0.0085062759 0.0067777189          444 
 4888000   0.46518893   -9.1371098     498.6287 0.0085008984 0.0067753503          449 
 4889000   0.47282434   -9.1499111    498.56711 0.0084981099 0.0067729822          453 
 4890000   0.46646962   -9.1336328    498.70981 0.0084988038 0.0067706163          442 
 4891000   0.47579696   -9.1445892    498.37615 0.0084913813 0.0067682511          439 
 4892000   0.47301923   -9.1341204    499.26197 0.0085047351 0.0067658853          447 
 4893000   0.47743496   -9.1479946    498.75271 0.0084943237 0.0067635207          444 
 4894000   0.46932436   -9.1341141    498.36662 0.0084860138 0.0067611585          451 
 4895000   0.46651765   -9.1325232    498.32822 0.0084836264 0.0067587975          441 
 4896000   0.46698598   -9.1453314    498.04376 0.0084770519 0.0067564346          436 
 4897000   0.46650305   -9.1339366     498.7675  0.008487637  0.006754074          435 
 4898000   0.46317231   -9.1461437    498.39271 0.0084795276 0.0067517155          434 
 4899000   0.47141678    -9.136218     499.0027 0.0084881728 0.0067493586          459 
 4900000   0.45912839   -9.1570847     498.5543 0.0084788147 0.0067470015          455 
 4901000   0.46043204   -9.1330152     497.8651 0.0084653659 0.0067446458          446 
 4902000   0.47040097   -9.1529145    499.00573 0.0084830296 0.0067422904          470 
 4903000   0.46714762   -9.1499186    498.62801 0.0084748795 0.0067399372          442 
 4904000   0.47145905   -9.1433733    498.92298 0.0084781637 0.0067375836          455 
 4905000   0.47438946   -9.1137169    499.16539 0.0084805537 0.0067352342          440 
 4906000   0.46269404   -9.1433774     498.5805 0.0084688901 0.0067328841          438 
 4907000   0.47719838    -9.138546    499.10103 0.0084760042 0.0067305361          432 
 4908000   0.46379625   -9.1235661    498.41448 0.0084626203 0.0067281881          446 
 4909000   0.46994607   -9.1480732    498.08367 0.0084552807 0.0067258398          465 
 4910000   0.45623415   -9.1396249    498.85699 0.0084666835 0.0067234922          433 
 4911000   0.46701533   -9.1482992    498.05685  0.008451382 0.0067211457          445 
 4912000    0.4682554   -9.1430405     498.7602  0.008461594 0.0067188023          449 
 4913000   0.47122338   -9.1433936    498.10928  0.008448831 0.0067164592          440 
 4914000   0.47514401   -9.1447497    498.53463 0.0084543249 0.0067141184          441 
 4915000   0.46048023   -9.1460568    499.01908 0.0084608186 0.0067117773          436 
 4916000   0.45856578   -9.1287524    498.71517 0.0084539459 0.0067094379          464 
 4917000   0.46511673   -9.1218222    499.06411 0.0084581403  0.006707101          444 
 4918000   0.45984362   -9.1591743    498.73614 0.0084508632 0.0067047647          448 
 4919000   0.46344593    -9.138189    499.22373 0.0084574055 0.0067024299          429 
 4920000   0.46923305   -9.1493315     498.2289 0.0084388365 0.0067000947          456 
 4921000   0.46506117   -9.1542644    498.81309 0.0084470143 0.0066977619          470 
 4922000   0.46299761   -9.1486557     498.0626 0.0084325917 0.0066954297          480 
 4923000   0.45739592   -9.1485306    498.42112 0.0084369477  0.006693098          452 
 4924000   0.45412738   -9.1549351     498.5319 0.0084371091 0.0066907655          470 
 4925000   0.45994869    -9.130917    498.49225 0.0084347251 0.0066884359          457 
 4926000   0.46769144    -9.146308    498.83739 0.0084388515 0.0066861087          452 
 4927000   0.46065177   -9.1284013     498.2618 0.0084274034  0.006683783          474 
 4928000   0.45601045    -9.159819    498.19057 0.0084244888 0.0066814557          441 
 4929000   0.47218171   -9.1381446    498.75681 0.0084323529 0.0066791299          437 
 4930000    0.4583013   -9.1430734    498.65317 0.0084288906 0.0066768057          444 
 4931000   0.46696664   -9.1464686    498.57391 0.0084258418 0.0066744838          438 
 4932000   0.46395161   -9.1342644    498.58858 0.0084243812 0.0066721615          448 
 4933000   0.46573536   -9.1339937    498.43331 0.0084200504 0.0066698412          448 
 4934000    0.4623947   -9.1336006     498.8367 0.0084251571 0.0066675206          444 
 4935000   0.48058074   -9.1433909    498.25336 0.0084135994 0.0066652022          443 
 4936000   0.46155596   -9.1518203    498.00919 0.0084077726 0.0066628838          448 
 4937000   0.46775862   -9.1459883    498.93821 0.0084217509 0.0066605672          462 
 4938000   0.46853779   -9.1502803     498.5581 0.0084136307 0.0066582499          464 
 4939000   0.45953492   -9.1412166    497.98299 0.0084022237 0.0066559341          458 
 4940000   0.45979463   -9.1565061    498.52213 0.0084096176 0.0066536208          446 
 4941000   0.46087373   -9.1430153    498.68679 0.0084106926 0.0066513092          461 
 4942000   0.46846899   -9.1439556    499.06404  0.008415352 0.0066489977          445 
 4943000   0.46297378   -9.1549374    498.69409 0.0084074127 0.0066466887          445 
 4944000   0.46131859   -9.1326911    498.71771 0.0084061103 0.0066443791          462 
 4945000   0.45738113   -9.1566181     498.5646 0.0084018301 0.0066420704          438 
 4946000   0.46127858   -9.1618713    498.82586 0.0084045332 0.0066397625          455 
 4947000   0.45627279   -9.1549751    498.28507 0.0083937246  0.006637455          440 
 4948000   0.46011473   -9.1587925    497.92719 0.0083860008   0.00663515          463 
 4949000   0.46099284   -9.1447346    499.19279 0.0084056172 0.0066328454          438 
 4950000   0.45198874   -9.1452983    498.73937 0.0083962856 0.0066305419          442 
 4951000   0.45468447   -9.1607934    497.69488 0.0083770094 0.0066282375          424 
 4952000   0.45830297   -9.1736255    498.67588 0.0083918263 0.0066259357          440 
 4953000   0.46474288   -9.1634476    498.39077  0.008385335 0.0066236357          442 
 4954000   0.47021625    -9.148275    498.36553 0.0083832177  0.006621336          456 
 4955000   0.46560507   -9.1344889    498.27417 0.0083799894 0.0066190385          441 
 4956000   0.46198164   -9.1454577    498.69472 0.0083853699  0.006616741          440 
 4957000   0.45948639   -9.1604851    499.38428 0.0083952706 0.0066144468          439 
 4958000   0.45561162   -9.1528708    498.16048 0.0083730079 0.0066121514          449 
 4959000   0.45286038   -9.1547785    498.33456 0.0083742448 0.0066098572          437 
 4960000   0.45694679   -9.1526926    497.41087 0.0083570375 0.0066075624          476 
 4961000   0.48094796   -9.1525384    498.55265 0.0083745322 0.0066052704          440 
 4962000   0.47179225   -9.1498215    498.28416 0.0083683354 0.0066029791          458 
 4963000   0.46061646   -9.1450082    498.42493 0.0083690128  0.006600688          452 
 4964000   0.46153742   -9.1517964     498.0429 0.0083609135 0.0065983986          454 
 4965000   0.45551233   -9.1425179    498.25931 0.0083628618 0.0065961085          445 
 4966000   0.45815468   -9.1568172    498.25077 0.0083610346 0.0065938197          446 
 4967000   0.45636364   -9.1564199    498.38756 0.0083616462 0.0065915326          448 
 4968000   0.45429554   -9.1520753    498.12753 0.0083556013 0.0065892472          445 
 4969000   0.46074867   -9.1524764    498.38778 0.0083582843  0.006586962          448 
 4970000   0.45775877   -9.1681134    498.80643 0.0083636222 0.0065846798          437 
 4971000   0.45176379   -9.1673948     497.6748 0.0083429693 0.0065823965          463 
 4972000   0.45595425   -9.1464552    497.78639 0.0083431615 0.0065801133          439 
 4973000   0.45912509   -9.1614119    497.78772 0.0083415061 0.0065778326          452 
 4974000     0.448037   -9.1592514    497.80556  0.008340128 0.0065755532          442 
 4975000   0.45328726   -9.1757976    497.74191 0.0083373854 0.0065732747          467 
 4976000   0.45845056    -9.164956    498.86073 0.0083544469 0.0065709971          429 
 4977000   0.45696628   -9.1532431    497.65923 0.0083326506 0.0065687199          445 
 4978000   0.45677285   -9.1688644     498.0925   0.00833823 0.0065664443          435 
 4979000   0.44634899   -9.1624666    498.15983  0.008337682 0.0065641717          432 
 4980000   0.46693365    -9.151621     498.3333 0.0083389106  0.006561898          481 
 4981000   0.45119992   -9.1499426    498.25725 0.0083359642 0.0065596271          452 
 4982000   0.45746863   -9.1500457    497.93923 0.0083289715 0.0065573563          442 
 4983000   0.45578872   -9.1623974    498.48882  0.008336491 0.0065550865          428 
 4984000    0.4589068   -9.1780822     497.5096 0.0083184457 0.0065528176          460 
 4985000   0.44593796   -9.1625086    497.66701 0.0083194084 0.0065505481          433 
 4986000   0.45848003   -9.1544597    497.33862 0.0083122513 0.0065482815          458 
 4987000    0.4561494   -9.1451932    498.51692  0.008330274 0.0065460156          451 
 4988000   0.45214644   -9.1574036     498.8851 0.0083347551 0.0065437502          454 
 4989000   0.45617219   -9.1520154     498.8989  0.008333315  0.006541486          445 
 4990000   0.45899039    -9.160033    498.04216 0.0083173373 0.0065392249          454 
 4991000   0.45906887   -9.1829705    498.23187 0.0083188385 0.0065369641          452 
 4992000   0.46147809   -9.1604591    498.08615 0.0083147395 0.0065347032          430 
 4993000   0.43932641   -9.1645912    498.67405 0.0083228862  0.006532442          431 
 4994000   0.45455502   -9.1690789    498.47532 0.0083179035 0.0065301827          444 
 4995000   0.46350116   -9.1619683    498.08158 0.0083096693 0.0065279217          440 
 4996000   0.44591738   -9.1634335     498.1572 0.0083092674 0.0065256635          446 
 4997000   0.45497093   -9.1676003    498.12927 0.0083071387 0.0065234056          440 
 4998000   0.45152889   -9.1558113    498.28203 0.0083080237 0.0065211486          446 
 4999000   0.45655013   -9.1715158    498.66434 0.0083127348  0.006518896          453 
 5000000   0.44758912   -9.1567718    497.72693 0.0082954488 0.0065166425          451 
 5001000   0.44681122   -9.1600546    497.35168 0.0082875372 0.0065143906          445 
 5002000    0.4500326   -9.1648433    498.05773 0.0082976431 0.0065121408          458 
 5003000   0.45857043   -9.1664178    498.41417 0.0083019217 0.0065098913          446 
 5004000   0.45113128   -9.1531051    497.94209 0.0082924009 0.0065076444          446 
 5005000   0.45475816   -9.1734961    497.62712 0.0082854998 0.0065053982          450 
 5006000   0.44229455   -9.1574459    498.06091 0.0082910659 0.0065031512          447 
 5007000   0.45449328   -9.1734643    498.38993  0.008294886 0.0065009058          475 
 5008000    0.4508794   -9.1696371    497.83772 0.0082840408 0.0064986607          447 
 5009000    0.4502688   -9.1412212    497.45004 0.0082759373 0.0064964173          451 
 5010000   0.45678329    -9.173031    497.93998 0.0082824348  0.006494173          432 
 5011000   0.43756618   -9.1797569    497.97829  0.008281419 0.0064919311          439 
 5012000   0.44523806   -9.1564847    497.15073 0.0082660071 0.0064896894          471 
Loop time of 12771.2 on 48 procs for 5000000 steps with 4000 atoms

Performance: 67652.009 tau/day, 391.505 timesteps/s
99.4% CPU use with 48 MPI tasks x no OpenMP threads

MPI task timing breakdown:
Section |  min time  |  avg time  |  max time  |%varavg| %total
---------------------------------------------------------------
Pair    | 842.22     | 971.2      | 1052.2     | 133.9 |  7.60
Neigh   | 83.406     | 88.096     | 92.833     |  26.2 |  0.69
Comm    | 792.54     | 879.64     | 1010.6     | 150.7 |  6.89
Output  | 14.971     | 14.976     | 15.08      |   0.4 |  0.12
Modify  | 10676      | 10702      | 10738      |  13.6 | 83.80
Other   |            | 115.6      |            |       |  0.91

Nlocal:        83.3333 ave          90 max          76 min
Histogram: 2 1 3 9 2 14 6 9 1 1
Nghost:        2286.96 ave        2312 max        2259 min
Histogram: 1 3 7 5 3 8 10 5 3 3
Neighs:        15466.4 ave       17348 max       14002 min
Histogram: 3 6 9 4 6 7 6 4 2 1
FullNghs:      30933.0 ave       33481 max       28235 min
Histogram: 2 1 6 7 5 11 6 5 2 3

Total # of neighbors = 1484786
Ave neighs/atom = 371.19650
Neighbor list builds = 266380
Dangerous builds = 0

#clear
#
#next RN
#
#jump SELF
Total wall time: 3:32:54
