
units lj                  # Use reduced LJ style units
atom_style atomic         # Uncharged point particles
atom_modify map hash      # Needed for indexing of clusters etc
                          # Used to be able to find where atoms are in relation to each other.

# Define a lattice with which to populate the simulation cell. With units
# set to 'lj' the second argument to the lattice command is the reduced
# density rho* and the spacings are multiples of that required to acheive
# that density. Also define a simulation cell called 'box' in lattice units
# and fill it with atoms. Here we're creating a box which is ten lattice
# constants in each direction.
lattice fcc 1.0 spacing 1 1 1                 # All equal sizes - gives the right reduced density.
Lattice spacing in x,y,z = 1.5874011 1.5874011 1.5874011

region box block 0 10 0 10 0 10 units lattice # Defines a region, "box", in lattice units
create_box 1 box                              # Creates a simulation box as specified above,
Created orthogonal box = (0.0000000 0.0000000 0.0000000) to (15.874011 15.874011 15.874011)
  2 by 3 by 3 MPI processor grid
                                              # with one type of atom
create_atoms 1 box                            # Creates particles on lattice points
Created 4000 atoms
  using lattice units in orthogonal box = (0.0000000 0.0000000 0.0000000) to (15.874011 15.874011 15.874011)
  create_atoms CPU = 0.001 seconds


# Set the mass of the first (and only) atom type.
mass 1 1.0

# Lennard-Jones interactions between particles, 3.5 sigma cut-off. Apply
# long range tail corrections to energy and pressure and set all coefficients
# to unity since we work in reduced units here. Note that this doesn't shift
# the potential such that it goes to zero at the cutoff. That would require
# pair_modify('shift', 'yes').
pair_style lj/cut  3.5      # non-GPU version
pair_modify tail  yes
pair_coeff 1  1  1.0  1.0   # Intearaction between 1 and 1 set with epsilon = 1 and sigma = 1

write_data data.*
System init for write_data ...
Neighbor list info ...
  update every 1 steps, delay 10 steps, check yes
  max neighbors/atom: 2000, page size: 100000
  master list distance cutoff = 3.8
  ghost atom cutoff = 3.8
  binsize = 1.9, bins = 9 9 9
  1 neighbor lists, perpetual/occasional/extra = 1 0 0
  (1) pair lj/cut, perpetual
      attributes: half, newton on
      pair build: half/bin/atomonly/newton
      stencil: half/bin/3d
      bin: standard

#############################
#   M E L T   S Y S T E M   #
#############################

velocity all create 2.4 8172548 mom yes dist gaussian # Assign velocities
                                                    # Temperature 2.4, random number seed, zero linear momentum
						                                                        # Gaussian distribution

timestep 0.002   # simulation timestep
thermo 100       # output thermodynamic data every 100 steps

# Define a fix  in this case with index 1 applied to all
# particles in the simulation. This fix is for simulations
# in the anisotropic NPT ensemble. Note that we use the MTK
# correction.
fix 1 all npt temp 2.4 2.4 0.1 iso 5.68 5.68 0.5 mtk yes tchain 5 pchain 5 # Use NPT ensemble
                                                                         # Set temperature and pressure and damping
                                                                         # Numbers of thermostats in chain and in barostat
run 1000         # run for 10000 steps
Per MPI rank memory allocation (min/avg/max) = 3.680 | 3.683 | 3.691 Mbytes
Step Temp E_pair E_mol TotEng Press Volume 
       0          2.4   -8.3859253            0   -4.7868253   -2.2405722         4000 
     100    1.2521358   -6.5115055            0   -4.6337712    5.4508644    4089.6042 
     200    1.4689284   -6.2983762            0   -4.0955344    6.0837578    4137.2801 
     300    1.5740251   -6.0110759            0   -3.6506285    5.8428293    4272.3887 
     400    1.7007621   -5.7248177            0   -3.1743123    5.9311621    4395.3486 
     500    1.8066394   -5.4467078            0   -2.7374262    5.7861894     4545.589 
     600    1.8844107   -5.1406616            0   -2.3147521    5.8323888    4700.1474 
     700    2.0254849   -4.9242047            0    -1.886737    5.8268404    4833.6959 
     800    2.1385093   -4.7031284            0   -1.4961664    5.8326966    4964.1584 
     900    2.2562357   -4.5439597            0   -1.1604522    5.8538779    5071.7859 
    1000    2.3669211   -4.4724005            0  -0.92290647    5.7399528    5154.5285 
Loop time of 0.556193 on 18 procs for 1000 steps with 4000 atoms

Performance: 310683.557 tau/day, 1797.937 timesteps/s
99.5% CPU use with 18 MPI tasks x no OpenMP threads

MPI task timing breakdown:
Section |  min time  |  avg time  |  max time  |%varavg| %total
---------------------------------------------------------------
Pair    | 0.31918    | 0.34293    | 0.36343    |   2.4 | 61.66
Neigh   | 0.061829   | 0.064681   | 0.067485   |   0.7 | 11.63
Comm    | 0.10006    | 0.1204     | 0.14321    |   3.9 | 21.65
Output  | 0.00021584 | 0.0002245  | 0.00029938 |   0.0 |  0.04
Modify  | 0.02213    | 0.025042   | 0.028994   |   1.4 |  4.50
Other   |            | 0.002912   |            |       |  0.52

Nlocal:        222.222 ave         234 max         214 min
Histogram: 2 3 0 3 1 4 2 2 0 1
Nghost:        2030.39 ave        2051 max        2008 min
Histogram: 1 1 1 2 3 4 3 1 1 1
Neighs:        19703.8 ave       21135 max       18594 min
Histogram: 1 3 3 1 1 4 2 2 0 1

Total # of neighbors = 354669
Ave neighs/atom = 88.667250
Neighbor list builds = 86
Dangerous builds = 10

# Equilibrate just above the melting temperature to avoid step fn in T

fix 1 all npt temp 1.25 1.25 0.1 iso 5.68 5.68 0.5 mtk yes tchain 5 pchain 5
run 1000
Per MPI rank memory allocation (min/avg/max) = 3.680 | 3.684 | 3.691 Mbytes
Step Temp E_pair E_mol TotEng Press Volume 
    1000    2.3669211   -4.4724005            0  -0.92290647    5.7399528    5154.5285 
    1100    1.9578949   -4.6918684            0   -1.7557603    5.6487477    4991.6913 
    1200    1.7396677   -4.9813711            0   -2.3725219    5.5906411    4811.1244 
    1300    1.5731527   -5.2038437            0   -2.8447047    5.7283734     4660.157 
    1400    1.4617969   -5.4064956            0   -3.2143485    5.7429155    4548.2287 
    1500    1.3856267   -5.5768053            0   -3.4988849    5.5616911    4480.7352 
    1600    1.2965183   -5.6686791            0   -3.7243878    5.5183337    4437.4897 
    1700    1.2706454   -5.7482266            0   -3.8427351     5.587581    4391.7293 
    1800    1.2485176   -5.8146125            0   -3.9423043    5.4355018     4375.335 
    1900    1.2452702    -5.820016            0   -3.9525776    5.6724499    4352.6927 
    2000     1.271515   -5.8429821            0   -3.9361864    5.6243904    4346.3347 
Loop time of 0.540526 on 18 procs for 1000 steps with 4000 atoms

Performance: 319688.517 tau/day, 1850.049 timesteps/s
99.7% CPU use with 18 MPI tasks x no OpenMP threads

MPI task timing breakdown:
Section |  min time  |  avg time  |  max time  |%varavg| %total
---------------------------------------------------------------
Pair    | 0.32811    | 0.3426     | 0.36254    |   1.4 | 63.38
Neigh   | 0.055219   | 0.056827   | 0.058177   |   0.4 | 10.51
Comm    | 0.094159   | 0.11167    | 0.12454    |   2.3 | 20.66
Output  | 0.00021929 | 0.00022758 | 0.00029452 |   0.0 |  0.04
Modify  | 0.022624   | 0.025935   | 0.03139    |   1.7 |  4.80
Other   |            | 0.003272   |            |       |  0.61

Nlocal:        222.222 ave         228 max         215 min
Histogram: 1 0 1 3 2 3 5 0 0 3
Nghost:        2236.78 ave        2249 max        2225 min
Histogram: 2 1 1 2 2 5 1 1 2 1
Neighs:        23340.2 ave       24347 max       22415 min
Histogram: 1 1 3 2 3 2 3 1 0 2

Total # of neighbors = 420123
Ave neighs/atom = 105.03075
Neighbor list builds = 75
Dangerous builds = 7


# Small amount of linear quench

fix 1 all npt temp 1.25 ${temp} 0.1 iso 5.68 5.68 0.5 mtk yes tchain 5 pchain 5
fix 1 all npt temp 1.25 2.16 0.1 iso 5.68 5.68 0.5 mtk yes tchain 5 pchain 5
run 2000
Per MPI rank memory allocation (min/avg/max) = 3.680 | 3.684 | 3.691 Mbytes
Step Temp E_pair E_mol TotEng Press Volume 
    2000     1.271515   -5.8429821            0   -3.9361864    5.6243904    4346.3347 
    2100    1.2468445   -5.8335056            0   -3.9637065    5.6308652    4352.3027 
    2200     1.315272   -5.7892733            0   -3.8168585    5.6744719    4371.0296 
    2300    1.3289981   -5.7234822            0   -3.7304834    5.4968559    4415.0274 
    2400     1.377321   -5.6886021            0   -3.6231372    5.3569451    4446.9097 
    2500    1.4259764   -5.6126066            0   -3.4741767    5.6373325    4459.2447 
    2600    1.4611246   -5.5227188            0   -3.3315798    5.8530469    4483.9768 
    2700    1.5200574   -5.4724122            0   -3.1928961    5.8377353    4513.8982 
    2800    1.5647903   -5.4210936            0    -3.074495      5.71812    4549.2998 
    2900    1.6055624   -5.3565442            0   -2.9488028    5.7519175      4586.07 
    3000    1.6778982   -5.3111201            0   -2.7949021    5.8257984    4603.6907 
    3100    1.6705322   -5.2241071            0   -2.7189352    5.5079159    4681.2666 
    3200    1.7419589   -5.1818011            0    -2.569516    5.5541776    4702.5724 
    3300    1.8026631   -5.1081918            0   -2.4048731    5.7995126    4718.5999 
    3400     1.847245    -5.038397            0   -2.2682223    5.8794362    4755.7967 
    3500    1.8662931   -4.9681614            0   -2.1694217    5.6190248    4823.7795 
    3600    1.9407345   -4.9261295            0   -2.0157556    5.6812868    4844.0422 
    3700    1.9865468   -4.8614842            0   -1.8824089    5.8507642    4866.6605 
    3800    2.0523495   -4.8205598            0   -1.7428052     5.681299    4913.5092 
    3900    2.0584178   -4.7525403            0   -1.6656855    5.5180555    4976.1078 
    4000    2.1373798   -4.7137593            0   -1.5084911    5.5895302     4995.531 
Loop time of 1.07702 on 18 procs for 2000 steps with 4000 atoms

Performance: 320884.106 tau/day, 1856.968 timesteps/s
99.7% CPU use with 18 MPI tasks x no OpenMP threads

MPI task timing breakdown:
Section |  min time  |  avg time  |  max time  |%varavg| %total
---------------------------------------------------------------
Pair    | 0.64436    | 0.67603    | 0.73295    |   2.4 | 62.77
Neigh   | 0.11452    | 0.11711    | 0.11974    |   0.4 | 10.87
Comm    | 0.17507    | 0.22598    | 0.24845    |   3.4 | 20.98
Output  | 0.00042921 | 0.00044466 | 0.00056091 |   0.0 |  0.04
Modify  | 0.042419   | 0.051066   | 0.062905   |   2.8 |  4.74
Other   |            | 0.006398   |            |       |  0.59

Nlocal:        222.222 ave         231 max         212 min
Histogram: 2 1 0 2 1 6 2 1 0 3
Nghost:        2064.78 ave        2080 max        2046 min
Histogram: 2 0 1 2 3 2 2 3 0 3
Neighs:        20316.9 ave       22075 max       18497 min
Histogram: 1 1 3 2 3 2 1 2 1 2

Total # of neighbors = 365704
Ave neighs/atom = 91.426000
Neighbor list builds = 153
Dangerous builds = 10

#############################
# F R E E Z E  S Y S T E M  #
#############################

# Define solid atoms. This closely follows ten Wolde  Ruiz-Montero and Frenkel  Faraday Discuss  1996  104  93-110
# Compute components of the per-atom q6 vector
compute q6 all orientorder/atom degrees 1 6 components 6 nnn NULL cutoff 1.3 # compute the Q6 parameter.
                                                                             # Use all neighbours within 1.3 unit cell.

# get number of connections
compute coord_number all coord/atom orientorder q6 0.5

# An atom is solid if it has 8 or more connections (of a possible 14)
variable is_solid atom c_coord_number>=8
group solid dynamic all var is_solid    # Must be dynamic to update
dynamic group solid defined

# do clustering
compute cluster solid cluster/atom 1.3 # Create a cluster where all atoms within are solid and max 1.3 units from another member

# define chunks one chunk per cluster
compute clus_chunks solid chunk/atom c_cluster nchunk every compress yes  # Says which atoms are in which chunk

# count the size of each chunk
compute size_chunks solid property/chunk clus_chunks count


# Find the maximum entry in the vector of chunk sizes
variable max_n equal max(c_size_chunks)


# Thermo style which includes this variable
thermo_style custom step temp pe vol v_max_n

thermo ${N}  # Print the thermo information every 100 steps
thermo 100  

# Reset the npt fix at a lower temperature (below freezing)
fix 1  all npt temp  ${temp} ${temp}  0.1  iso  5.68  5.68  0.5  mtk yes tchain  5  pchain  5
fix 1  all npt temp  2.16 ${temp}  0.1  iso  5.68  5.68  0.5  mtk yes tchain  5  pchain  5
fix 1  all npt temp  2.16 2.16  0.1  iso  5.68  5.68  0.5  mtk yes tchain  5  pchain  5

dump dmp2 all dcd ${N} traj_${rand}.dcd
dump dmp2 all dcd 100 traj_${rand}.dcd
dump dmp2 all dcd 100 traj_462431.dcd


# fix rnuntil all halt ${N} v_max_n >= 3980 error soft message no   # Stop when solidified


run 100000 # 5000000  # Run for this many steps
Neighbor list info ...
  update every 1 steps, delay 10 steps, check yes
  max neighbors/atom: 2000, page size: 100000
  master list distance cutoff = 3.8
  ghost atom cutoff = 3.8
  binsize = 1.9, bins = 9 9 9
  4 neighbor lists, perpetual/occasional/extra = 1 3 0
  (1) pair lj/cut, perpetual
      attributes: half, newton on
      pair build: half/bin/atomonly/newton
      stencil: half/bin/3d
      bin: standard
  (2) compute orientorder/atom, occasional
      attributes: full, newton on
      pair build: full/bin/atomonly
      stencil: full/bin/3d
      bin: standard
  (3) compute coord/atom, occasional
      attributes: full, newton on
      pair build: full/bin/atomonly
      stencil: full/bin/3d
      bin: standard
  (4) compute cluster/atom, occasional
      attributes: full, newton on
      pair build: full/bin/atomonly
      stencil: full/bin/3d
      bin: standard
Per MPI rank memory allocation (min/avg/max) = 9.445 | 9.449 | 9.453 Mbytes
Step Temp PotEng Volume v_max_n 
    4000    2.1373798   -4.7137593     4995.531            1 
    4100    2.1026923   -4.5847546    5041.4616       -1e+20 
    4200    2.1945082   -4.6098992    5057.7623       -1e+20 
    4300    2.1309443   -4.5996426    5064.4503            1 
    4400    2.1993056   -4.6185321    5053.0144       -1e+20 
    4500    2.1431689   -4.6277035    5071.6014            1 
    4600    2.1517337   -4.6720484    5036.6399            1 
    4700    2.1917572    -4.609855    5031.0397       -1e+20 
    4800    2.1302897   -4.6107097    5072.2193            1 
    4900    2.2246646   -4.5932422    5066.5446            2 
    5000    2.1632358   -4.5755512    5061.1935       -1e+20 
    5100    2.1437903   -4.5909155    5054.0821            1 
    5200    2.1401756   -4.5833063    5028.9269            1 
    5300    2.2004053   -4.6314737    5041.7671       -1e+20 
    5400    2.1131202   -4.6203948    5099.0751            1 
    5500    2.2181166   -4.5346536    4999.2773            1 
    5600    2.1361368   -4.6020626    5078.7245            1 
    5700    2.1746928   -4.6338111    5055.5414       -1e+20 
    5800    2.1797641   -4.6389065    5022.7363       -1e+20 
    5900    2.1359041   -4.6128653    5058.7858            2 
    6000    2.2046596   -4.5914138    5049.5444            1 
    6100     2.147324    -4.640438    5051.5756       -1e+20 
    6200    2.1481593   -4.6444614    5043.0956            1 
    6300    2.2047214   -4.6202019    5036.1482       -1e+20 
    6400    2.1265842   -4.6245443    5056.5318            1 
    6500    2.1616812   -4.6206326    5013.3853            1 
    6600      2.18562   -4.6304873    5022.6664            1 
    6700    2.1506418    -4.590172    5080.1673            1 
    6800    2.1202591   -4.6349365     5025.743            1 
    6900    2.1497496   -4.6176795    5007.6092       -1e+20 
    7000    2.1659867   -4.5912867    5067.4286       -1e+20 
    7100    2.1272053   -4.6038073    5053.2758       -1e+20 
    7200    2.2114739   -4.6226681    5039.6895            1 
    7300    2.1113376   -4.6058592    5063.0852            1 
    7400    2.1716075    -4.579031    5038.3194            1 
    7500    2.1290615   -4.6083266    5053.6291            1 
    7600    2.1965899   -4.6055191    5058.9815       -1e+20 
    7700    2.1664107   -4.5980922    5072.9507            1 
    7800     2.165347   -4.6475519    5039.2274            1 
    7900    2.1551812   -4.6300363    5023.4148       -1e+20 
    8000    2.2069988    -4.626225    5052.8289       -1e+20 
    8100    2.1305739   -4.5972353    5075.6804       -1e+20 
    8200     2.202978   -4.5941441    5037.6496            1 
    8300    2.1247315   -4.5780738    5066.0311       -1e+20 
    8400    2.1146417   -4.6098386    5010.7246            1 
    8500    2.1420493   -4.5875284    5041.7191            1 
    8600    2.1600358   -4.6209297    5060.0614            1 
    8700    2.1198482   -4.6311133    5014.1771       -1e+20 
    8800    2.1795565    -4.635725    5038.3756            1 
    8900    2.1670649   -4.6167606    5053.2117       -1e+20 
    9000    2.1605708   -4.6557015     5010.224            1 
    9100    2.1251978   -4.6491159    5010.6718       -1e+20 
    9200    2.1766227    -4.648843    5048.8175            1 
    9300     2.141738   -4.5930103    5039.0737            1 
    9400    2.1685591   -4.5805647    5060.2095            1 
    9500    2.1624973   -4.6090694    5078.2561            1 
    9600    2.1446535   -4.5834426    5032.4621       -1e+20 
    9700    2.1670971   -4.6792383     5062.166       -1e+20 
    9800    2.1470416   -4.6513704    4990.6164            1 
    9900    2.1279474   -4.5996234    5021.7221            1 
   10000    2.1311507   -4.5746538    5074.5084            1 
   10100    2.1889913   -4.5814022    5047.6002            1 
   10200    2.1380595   -4.5818259    5054.5592            1 
   10300    2.1594973     -4.65109    5024.5532            1 
   10400    2.1471208   -4.6481194    5013.0968            1 
   10500    2.1449207   -4.6121445    5077.6912            1 
   10600    2.1835105   -4.5832373    5046.5781       -1e+20 
   10700    2.1591717    -4.628556    5060.8188       -1e+20 
   10800    2.1544214   -4.6329631    5040.2462            1 
   10900    2.1533243   -4.5981176    5008.8876            1 
   11000    2.1514248   -4.5987199    5054.3374            1 
   11100    2.1691126   -4.6268422    5066.6881            1 
   11200    2.1720492   -4.5811401    5035.9393            1 
   11300     2.119715   -4.6056007     5065.758       -1e+20 
   11400    2.1608707    -4.653265    5002.3834            1 
   11500    2.1836006   -4.6701883    5013.9433       -1e+20 
   11600    2.1380664   -4.6598439    5053.9036            2 
   11700    2.1552246   -4.5948222    5007.6137            1 
   11800    2.1278863    -4.661523    5019.7825       -1e+20 
   11900    2.1645822   -4.6678634    5007.9308            2 
   12000    2.1497747     -4.61054    5067.5445            1 
   12100    2.1613125   -4.5768072    5039.1458            1 
   12200     2.127192   -4.5974017    5044.9038       -1e+20 
   12300    2.1958496    -4.608857     5045.596            1 
   12400     2.144325    -4.614402    5048.0073            1 
   12500    2.1248599   -4.6274898    5027.6444       -1e+20 
   12600    2.1372815   -4.5607707     5007.305       -1e+20 
   12700    2.0995557   -4.6180703    5079.0496       -1e+20 
   12800    2.1807283   -4.5687397    5042.1138       -1e+20 
   12900    2.1426608   -4.5942024    5041.8147            1 
   13000    2.0969586    -4.635681    5061.2118            1 
   13100    2.1991215   -4.6014069    4992.0489            1 
   13200    2.1408698   -4.5958397    5072.0562            2 
   13300    2.1633431   -4.6247618    5063.2976            1 
   13400    2.1685842   -4.5690466    5037.7536            1 
   13500    2.1781663    -4.603749    5104.9679            1 
   13600     2.152267    -4.608017    5030.3779       -1e+20 
   13700    2.1458988   -4.6099664    5041.3242            1 
   13800    2.1665003   -4.6226737    5025.5278            1 
   13900    2.1425697   -4.5959891    5027.2854            1 
   14000    2.1658142   -4.5840269    5086.5461            1 
   14100    2.1537144   -4.5987293    5032.3954            1 
   14200    2.1497739   -4.6180359    5029.6265       -1e+20 
   14300    2.1797809   -4.6443382    5057.6182            1 
   14400    2.2109735   -4.5972291    5077.3608            1 
   14500    2.1394858   -4.5974037    5053.0364            1 
   14600     2.184014   -4.6651089     5088.808       -1e+20 
   14700    2.1875714   -4.6085952    5041.5721            1 
   14800    2.1337387   -4.5971831     5037.412            1 
   14900    2.1848811   -4.6055229    5071.5947       -1e+20 
   15000    2.1521688   -4.6342266    5022.3679       -1e+20 
   15100    2.1438198   -4.6564586    5030.3194            1 
   15200    2.1774429   -4.6177456    5042.1379            1 
   15300    2.1910301   -4.5520582     5077.099       -1e+20 
   15400    2.1537936   -4.5530857    5087.0161            1 
   15500    2.1643668   -4.5851387    5051.9625            1 
   15600    2.1433393      -4.6199    5043.8663            1 
   15700    2.2113256   -4.5944643    5057.6992            1 
   15800    2.1423696   -4.6290957     5062.918       -1e+20 
   15900    2.1431484   -4.6446576    5041.0814            1 
   16000    2.1721477   -4.6341799    5007.5405            1 
   16100    2.1357488   -4.6211381    5051.3312            1 
   16200    2.1959068   -4.6439274    5035.3125            1 
   16300    2.1260674   -4.6380768    5039.1391            1 
   16400    2.1809339   -4.5732573    5057.4503       -1e+20 
   16500    2.1782612   -4.5615518    5068.0543            1 
   16600    2.1644458   -4.6107184    5075.5399            1 
   16700    2.1752464   -4.6312533    5029.1239            1 
   16800    2.1220249   -4.6138162    5020.8945            1 
   16900    2.1763868   -4.6627955    5021.8223            1 
   17000    2.0911465   -4.6511861     5012.098       -1e+20 
   17100    2.1510976   -4.6329981    5022.9029            1 
   17200    2.1703373   -4.5885244    5060.9829            1 
   17300    2.1657699   -4.5908492    5083.8257            1 
   17400    2.1566471   -4.6255857     5038.381            1 
   17500    2.1468843    -4.594612     5035.122            1 
   17600    2.1685241    -4.589071    5078.4992            1 
   17700    2.1569384   -4.6345184    5040.5417            1 
   17800     2.150126   -4.6085574    5041.6606            1 
   17900    2.1856406   -4.6142177    5058.2848            2 
   18000    2.1331999   -4.6259485    5023.4529       -1e+20 
   18100    2.1398791   -4.6061206    5038.0387            1 
   18200    2.1614592   -4.5536075    5044.3141            1 
   18300    2.1195892   -4.6185945    5040.1495       -1e+20 
   18400    2.1345887   -4.6437596    5014.8526            2 
   18500    2.1351052   -4.5909491    5043.0506            1 
   18600    2.1558421   -4.5672445    5066.3564       -1e+20 
   18700    2.2175121   -4.5723898     5076.783            1 
   18800    2.1410375   -4.5665239     5038.478            1 
   18900    2.1514313   -4.6261948    5061.3465       -1e+20 
   19000    2.1958265   -4.5898486    5060.0652       -1e+20 
   19100    2.1711862    -4.605276    5049.2306            2 
   19200      2.14598   -4.6240009     5030.302            2 
   19300    2.1627488   -4.6003033    5004.9439       -1e+20 
   19400    2.1283605   -4.6443933    5066.1733            1 
   19500    2.1844974   -4.6166811    5050.3104            1 
   19600    2.1572866   -4.5958132    5039.7787            1 
   19700    2.1328409   -4.6019982     5051.243            1 
   19800    2.1728962   -4.6497668     5017.338            1 
   19900    2.1191096   -4.6516113    5028.0958            1 
   20000    2.1461814   -4.5753449    5043.6299            1 
   20100    2.1499278   -4.5518407     5059.222            1 
   20200    2.1747905   -4.5989686     5075.662            3 
   20300    2.1643078   -4.6013918    5039.0884            1 
   20400    2.1518481   -4.6470797    5057.4928            3 
   20500    2.1235664   -4.6410229    4996.0392       -1e+20 
   20600     2.159317   -4.6112762    5041.2567            1 
   20700    2.1569225   -4.6263069    5035.1581            1 
   20800    2.1216008   -4.6079165      5021.01            1 
   20900    2.1749432   -4.6149864    5053.7986            1 
   21000    2.1178524   -4.6208368    5020.1793            1 
   21100    2.1869539   -4.6681295    5042.9369            1 
   21200    2.1438544   -4.6323005    5024.4012            1 
   21300    2.1831809   -4.6242629    5040.6406            1 
   21400    2.1569336   -4.6279515    5061.0506            2 
   21500    2.1597686   -4.6095057    5048.0576            2 
   21600    2.1986298   -4.5879147    5063.0124       -1e+20 
   21700    2.1115032   -4.5974535    5051.7946            1 
   21800     2.184261   -4.6259317    5053.4218            1 
   21900     2.159697   -4.6115767    5052.9564            1 
   22000    2.1724933    -4.622566    5039.9204            1 
   22100    2.1402445   -4.5810825    5055.2081            1 
   22200    2.1532183   -4.5636583    5087.2955            1 
   22300    2.1314002   -4.6020062    5028.5099            1 
   22400    2.1527498   -4.6363654    5045.0636            1 
   22500    2.1675896   -4.6873034    5010.8543            1 
   22600    2.1390179   -4.5851041     5073.356            1 
   22700    2.1832505   -4.5676597    5050.4339            1 
   22800    2.1267601     -4.59149    5083.6293            2 
   22900    2.1991031   -4.5999292      5045.57            1 
   23000    2.1648989   -4.6026943    5032.1638            1 
   23100    2.0950402   -4.6408737    5062.1904            1 
   23200    2.1911409   -4.6192785    5010.5326            1 
   23300    2.1332762   -4.6272435     5028.455            1 
   23400     2.180607   -4.6250443    5062.9755       -1e+20 
   23500    2.2069918   -4.5454184    5074.8572       -1e+20 
   23600    2.1720626   -4.6134822    5061.9839            1 
   23700    2.1725141   -4.6580529    5028.1427            1 
   23800     2.151267   -4.6540292    5045.3745            1 
   23900    2.1704042   -4.6250197    5016.0442            1 
   24000    2.1650008   -4.6551581    5064.3688            2 
   24100    2.1620003   -4.6046535    5053.1306            1 
   24200    2.1750483   -4.6046584    5027.8502       -1e+20 
   24300    2.1098702   -4.6553692    5043.0853       -1e+20 
   24400    2.1943162   -4.6379897    5002.1874            2 
   24500    2.1635107   -4.6476683    5059.3324            1 
   24600    2.1406328   -4.6424315     5046.814            1 
   24700    2.1617592   -4.5734361    5031.5009            1 
   24800    2.1703746   -4.6125073    5065.5889            1 
   24900    2.1186215   -4.6113608    5015.2365       -1e+20 
   25000    2.1584255   -4.5947469    5055.7067            1 
   25100    2.1496296   -4.6327242    5038.1573       -1e+20 
   25200    2.1158799   -4.5726321    5036.9661            1 
   25300    2.1634158   -4.6320028    5045.6462            1 
   25400    2.1442885   -4.6016095     5043.095            1 
   25500    2.1814717   -4.6211928    5049.9797            2 
   25600    2.1380908   -4.6045868    5038.3655            1 
   25700     2.161666   -4.6313089    5012.4342            1 
   25800    2.2056511    -4.651437    5055.8159            1 
   25900    2.1043148   -4.6018092    5054.7978            1 
   26000    2.1831309    -4.599594    5057.7177            1 
   26100    2.1697475   -4.5468245    5072.8765            1 
   26200    2.1067266   -4.5820983    5079.4078            1 
   26300    2.1619264   -4.5922115    5034.9799            1 
   26400    2.1526723   -4.6714368    5026.1113       -1e+20 
   26500    2.1631752   -4.7080547    5013.7383            1 
   26600    2.1597813    -4.611207    5045.1071            1 
   26700    2.1804345   -4.6394711    5043.7344            1 
   26800     2.205572   -4.6220686    5064.0464       -1e+20 
   26900    2.1496901   -4.6320643    5042.2714            1 
   27000    2.1500513   -4.6434009    5000.8047            2 
   27100    2.1378301   -4.6537476    5033.5432       -1e+20 
   27200    2.1655226    -4.622489    5027.7404            1 
   27300    2.1161442    -4.588541    5051.4163            1 
   27400    2.1842298   -4.6171239    5078.7604       -1e+20 
   27500    2.2276761   -4.6026269    5057.1445       -1e+20 
   27600    2.1352013   -4.6146589    5050.4402       -1e+20 
   27700    2.1734697   -4.6619191    5021.9905            1 
   27800     2.117702   -4.6008334    5050.5228            1 
   27900    2.1748262   -4.5916852    5052.2569            1 
   28000    2.2080056   -4.5936497    5082.7596            1 
   28100     2.187424   -4.6402939    5077.1711            1 
   28200    2.1918303   -4.6421884    5032.0884            1 
   28300    2.1284419   -4.6422175    5021.4739            1 
   28400    2.1623395   -4.6426095    5039.2471       -1e+20 
   28500    2.1701244   -4.6872177    5032.4705       -1e+20 
   28600    2.1670076    -4.670871    5000.1649       -1e+20 
   28700    2.1540942   -4.6526759    5050.3638            1 
   28800    2.1747482   -4.6123418    5047.7275       -1e+20 
   28900    2.2071567   -4.5495814    5081.8778       -1e+20 
   29000    2.1577975   -4.5757037    5079.5257            1 
   29100      2.19153   -4.6354331    5067.2588            1 
   29200    2.1256388   -4.6123069    5020.0241            1 
   29300    2.1660887   -4.6227846    5042.7874            1 
   29400    2.1666017   -4.5519832    5079.9202            1 
   29500    2.1462256   -4.6078666    5036.0048            1 
   29600    2.1394434   -4.6638312    5038.0617            1 
   29700     2.168663   -4.6038353     5010.219            1 
   29800    2.1524693   -4.6098851    5083.1067            2 
   29900    2.1576965   -4.5721428    5063.1144       -1e+20 
   30000    2.1615519    -4.593267    5047.3665            1 
   30100    2.1626093   -4.6369682    5042.6668            1 
   30200    2.1530135   -4.6469385    5022.9793            1 
   30300    2.1851885    -4.620406    5039.7635            1 
   30400    2.1363885   -4.6299385    5036.7841            1 
   30500    2.1358709   -4.6708024    5016.9209       -1e+20 
   30600    2.1998952   -4.6456737    5033.3849            2 
   30700    2.1221369   -4.6386131    5055.4032            1 
   30800     2.191779   -4.5794477    5038.0677            1 
   30900     2.144248    -4.587752    5030.9202       -1e+20 
   31000     2.109266   -4.6225758    5037.4841       -1e+20 
   31100    2.1919145     -4.61638     5048.899       -1e+20 
   31200    2.1563569   -4.6257308    5050.8447       -1e+20 
   31300    2.1457194   -4.6978606    4995.8317            1 
   31400    2.1366651   -4.6439814    5021.9264            1 
   31500    2.1679346   -4.6391385    5029.5071            1 
   31600    2.1430536   -4.5951417    5040.3448       -1e+20 
   31700    2.2013349   -4.5815635    5059.2633            1 
   31800    2.1134637   -4.5704703    5070.6124       -1e+20 
   31900    2.1978811   -4.5901466    5039.8376            1 
   32000    2.1364794   -4.6346242    5056.1572            1 
   32100    2.2035637   -4.6278155    5039.2081            1 
   32200     2.150374   -4.6177947    5032.1478       -1e+20 
   32300    2.1824165   -4.6156529    5044.4336            1 
   32400     2.148414   -4.5939489    5087.9988       -1e+20 
   32500    2.1601178   -4.5629343    5030.9636            1 
   32600    2.1581653   -4.6325152    5044.2646            2 
   32700    2.1833587   -4.6313202    5064.3213            1 
   32800    2.1840994    -4.598696    5049.8678       -1e+20 
   32900    2.1676813   -4.6369313    5066.5903            1 
   33000    2.1650065   -4.6492422    5032.8649       -1e+20 
   33100    2.1755814   -4.6124739    5031.7755            1 
   33200    2.1982715   -4.6453957    5074.6547            1 
   33300    2.1410026   -4.5921742    5070.5926            1 
   33400    2.1995394    -4.622102    5039.9266            1 
   33500     2.142975   -4.6384328    5031.0887            1 
   33600    2.1187057   -4.6604741    5019.5301            3 
   33700     2.184794   -4.6422168    4996.5938       -1e+20 
   33800    2.1311606   -4.6192285    5067.8257       -1e+20 
   33900     2.211989   -4.6359438    5045.6153            1 
   34000    2.1522625   -4.6455033    5030.1238            1 
   34100    2.1554511   -4.6023588    5037.3859            1 
   34200    2.1776113   -4.6238726    5081.6659            1 
   34300    2.1418186   -4.6144699    5027.0613            1 
   34400     2.117576   -4.5945359     5031.253            1 
   34500    2.1411367   -4.5686331    5055.3912            1 
   34600    2.1711303   -4.6177911    5061.2597            1 
   34700      2.14902    -4.618101    5030.2883            2 
   34800     2.163802   -4.5969876    5046.6322            1 
   34900    2.1946319   -4.6090232    5075.6373            1 
   35000    2.1375696   -4.6004465    5027.0548            1 
   35100    2.1908983   -4.6205735    5065.1628            2 
   35200    2.1716939   -4.6186625    5048.7414            2 
   35300    2.1402161   -4.5979472    5037.9204       -1e+20 
   35400    2.1987602   -4.6157186    5055.5213            2 
   35500    2.1966757   -4.6709642    5031.5323            1 
   35600    2.1107163   -4.6352119    5030.9001       -1e+20 
   35700    2.1785305   -4.6183735    5044.9285            1 
   35800    2.1831186   -4.6607956    5038.6196            1 
   35900    2.1288535   -4.6142581    5032.2593            1 
   36000     2.139545   -4.5652779    5077.0421            1 
   36100    2.2003375   -4.5521308    5060.4777            1 
   36200    2.1367278   -4.6011859      5069.16            1 
   36300    2.1901328   -4.6175922    5041.2584            1 
   36400    2.1394485    -4.622235    5038.7487            1 
   36500    2.1626271   -4.6518162    5045.3081       -1e+20 
   36600    2.1737535    -4.638053    4980.5098            1 
   36700     2.163314   -4.6060167    5078.7508            1 
   36800    2.1766673   -4.5799245    5052.3048       -1e+20 
   36900    2.1443624   -4.6039244    5058.9527            1 
   37000    2.1568194   -4.5785209    5063.5014       -1e+20 
   37100    2.1701851   -4.6042615    5059.0296            1 
   37200    2.1577922   -4.6566515    5042.6007            2 
   37300    2.2077236   -4.5892528    5051.2772            1 
   37400    2.1766029    -4.646712    5060.4288            1 
   37500    2.1462845   -4.6183188    5050.8792            1 
   37600    2.1968182   -4.5838196    5057.0305            1 
   37700    2.1759142   -4.6632015    5043.2679            1 
   37800    2.1121633   -4.6392125    5019.6614       -1e+20 
   37900    2.1713213   -4.6000374    5026.5478            1 
   38000    2.1529294   -4.6514578    5057.7661            1 
   38100    2.2180137   -4.5952095    5052.9787            1 
   38200    2.1641886   -4.6009324    5051.6052       -1e+20 
   38300    2.1453278   -4.6846451     5032.953            1 
   38400    2.1545009   -4.6253801    5029.0764            1 
   38500    2.1629554   -4.6078126    5045.3629            1 
   38600    2.1415265   -4.5987446    5048.5156            1 
   38700    2.1696931   -4.5570697    5082.8304            1 
   38800    2.1658656   -4.5998221    5037.0852            1 
   38900    2.1663717   -4.6845227    5032.2231            1 
   39000    2.1920687   -4.5693791    5031.4706            1 
   39100    2.1373818   -4.5742211    5071.8677            1 
   39200    2.1530104   -4.6051197    5027.6885            1 
   39300    2.1421523   -4.6202645     5021.182            1 
   39400    2.1572675   -4.5686551    5056.0107       -1e+20 
   39500    2.1874492   -4.5877732    5077.6517            1 
   39600    2.1570363   -4.6152859    5050.6536            2 
   39700    2.1163507   -4.6356157    5016.2262            1 
   39800    2.1656913   -4.6432717    5015.8869            1 
   39900    2.1360261   -4.6152095    5043.9812       -1e+20 
   40000    2.1563398   -4.5700114    5074.5116            1 
   40100    2.1948402   -4.5781685    5040.0042            1 
   40200    2.1592874   -4.6751923     5047.648            1 
   40300    2.1311419   -4.5925893    5051.1543       -1e+20 
   40400    2.1858234   -4.5420747    5045.5239       -1e+20 
   40500     2.139008   -4.5982735    5071.2201       -1e+20 
   40600    2.1682492   -4.6341489    5038.5333       -1e+20 
   40700    2.1956298   -4.6616021     5036.934       -1e+20 
   40800    2.1191178   -4.6257961    5057.9077       -1e+20 
   40900     2.199245   -4.5957703    4996.3159            1 
   41000     2.066571    -4.619428    5067.6706            1 
   41100    2.2107206   -4.6644418    5032.9976            1 
   41200    2.1738901    -4.594041    5047.3265            1 
   41300    2.1593321   -4.5761043     5100.434            1 
   41400    2.1532144   -4.5969316    5007.2879            1 
   41500    2.1056939   -4.6093787    5038.4948            1 
   41600    2.1814767   -4.6148246     5051.581            1 
   41700     2.165675   -4.6051649      5069.88            1 
   41800    2.1664365   -4.6018074    5058.6776            1 
   41900     2.147362   -4.6160212    5040.8089            1 
   42000    2.1824716   -4.6317249    5056.9519            1 
   42100    2.2008601   -4.5860988    5077.3857            1 
   42200    2.1483916    -4.596345    5077.6038            1 
   42300    2.1499714   -4.5984744    5001.9876       -1e+20 
   42400    2.1280456   -4.6229288     5041.651            2 
   42500    2.1657146   -4.6379612    5044.7496       -1e+20 
   42600    2.1825461   -4.5766055    5049.4781            1 
   42700    2.1690742   -4.5930977    5062.3854            1 
   42800     2.132053   -4.6095793    5044.4269            1 
   42900    2.1948604   -4.5825368    5028.9545            1 
   43000    2.1532499   -4.6468803    5094.4432            2 
   43100    2.2074958   -4.6061268    5037.5154            1 
   43200    2.1646248   -4.6116098    5039.0796            1 
   43300    2.1514087   -4.6089071    5072.2031            1 
   43400    2.1457755   -4.6319302    5018.4602            1 
   43500    2.1685538    -4.657067    5030.9506            1 
   43600    2.1497164   -4.6316825    5038.4992            1 
   43700    2.1987727   -4.6146574    5017.3788            3 
   43800    2.1435139   -4.6479694    5063.6391            1 
   43900    2.2185955   -4.6099912    5034.6487            2 
   44000    2.1601601   -4.5983275    5092.8833       -1e+20 
   44100    2.1702982    -4.593454    5060.9688       -1e+20 
   44200     2.159375   -4.5902409    5047.9302       -1e+20 
   44300    2.1408505   -4.5818823    5074.1518            1 
   44400    2.1781254   -4.6037723    5027.1508            1 
   44500    2.1283837   -4.6204155      5038.85            1 
   44600    2.1283712   -4.6484498    5010.7424       -1e+20 
   44700    2.1589908   -4.6109315     5008.995            2 
   44800    2.1689111   -4.6513964    5059.8824            2 
   44900    2.1767735   -4.6458494    5030.8916            2 
   45000    2.1655697   -4.6405063    5023.5168       -1e+20 
   45100    2.1646787   -4.6368027    5034.9022       -1e+20 
   45200    2.1591123   -4.6413811    5052.6179       -1e+20 
   45300    2.1858219   -4.5896419    5037.3558            2 
   45400    2.1678617   -4.5397894    5081.0633            1 
   45500    2.1514612   -4.6214501    5041.5751            1 
   45600    2.1612659    -4.632266    5022.8094       -1e+20 
   45700    2.1478133   -4.6524181    5045.2526            1 
   45800    2.1648058   -4.5823156    5032.4274            1 
   45900    2.1461812   -4.6235443    5044.9084            1 
   46000    2.1701907   -4.6430988    5067.6015       -1e+20 
   46100    2.2098392    -4.590664    5023.4835       -1e+20 
   46200     2.105112   -4.5974568    5086.8271       -1e+20 
   46300    2.1870868   -4.5918707    5062.6309            1 
   46400    2.1737677   -4.6157978     5055.838            1 
   46500    2.1463685   -4.6353736    5012.4634            1 
   46600    2.1559481   -4.6137775    5044.7732            1 
   46700    2.1720749   -4.5982661    5063.4206            1 
   46800    2.1673248   -4.6372513    5044.1573            2 
   46900    2.1367067   -4.6356971    5010.3377            1 
   47000    2.1676153   -4.6046915     5046.618            1 
   47100     2.155945   -4.5782712    5046.2503            1 
   47200    2.1099416   -4.5846272    5053.2065       -1e+20 
   47300     2.176517   -4.5841788    5061.6143            1 
   47400    2.1946074   -4.6335836    5063.1912            1 
   47500    2.1428938   -4.6500519    5028.9344            1 
   47600    2.1606671   -4.6184498    5026.0879            1 
   47700    2.1717918   -4.5789529    5048.9991            1 
   47800    2.1693571   -4.5594785    5103.5239            1 
   47900    2.1527767   -4.5864033    5058.0531            1 
   48000    2.1392757    -4.573933    5036.1251       -1e+20 
   48100    2.1711156   -4.5978179    5074.5826            1 
   48200    2.1732921    -4.544664    5073.7222            1 
   48300    2.1663993   -4.6393996    5055.7312            1 
   48400    2.1399838   -4.6394566    5041.9925       -1e+20 
   48500    2.1677949   -4.6145365     5019.219            1 
   48600    2.1451392   -4.6368759    5037.9388            2 
   48700    2.1275599   -4.6754075    5000.7523       -1e+20 
   48800    2.1439602   -4.6193414    5055.9218            1 
   48900    2.1598438   -4.5927285    5037.8685       -1e+20 
   49000    2.1102312    -4.625283    5029.1055            1 
   49100    2.1290638   -4.6262891    5059.4063            1 
   49200    2.2370205     -4.62035    5041.3648            2 
   49300    2.1409809   -4.6192239    5056.4075            1 
   49400    2.1522467    -4.571346    5045.9757            1 
   49500    2.1670795   -4.5203179    5073.9906            2 
   49600    2.1216424   -4.5753658      5097.54            1 
   49700    2.2333257   -4.5689407    5040.9434            1 
   49800    2.1628379   -4.6109462    5028.5146       -1e+20 
   49900    2.1144754   -4.6384933    5051.0478            2 
   50000    2.1802143    -4.593915    5034.7491            2 
   50100    2.1716924    -4.654375    5021.5116            1 
   50200    2.1492546   -4.6869937    5042.3084            1 
   50300    2.1784177   -4.5962559    5022.7122       -1e+20 
   50400    2.1562172   -4.6888303    5028.4935            1 
   50500    2.1317731   -4.6277101    5033.3191       -1e+20 
   50600    2.2028329   -4.6183819    5051.1419            1 
   50700      2.13515     -4.61693    5047.2049       -1e+20 
   50800    2.1840875   -4.6447271    5026.8947            1 
   50900    2.1389343   -4.6280977    5041.0588            1 
   51000    2.2099893      -4.6279    5053.2815            1 
   51100    2.1158208   -4.5715773    5038.1909            1 
   51200    2.1326318   -4.6203908    5042.0633            1 
   51300    2.1976306    -4.602657    5033.6309            1 
   51400    2.1327202   -4.5864249    5081.7356            1 
   51500    2.1841153   -4.6160054    5054.3583            1 
   51600     2.195296   -4.6395165    5036.7653       -1e+20 
   51700    2.0945764   -4.6651698    5055.0095            1 
   51800    2.1824917   -4.6517764    5003.0249            2 
   51900      2.16328   -4.5821611    5059.7476       -1e+20 
   52000    2.1774835   -4.6093595    5037.6082       -1e+20 
   52100    2.1552224   -4.6531558    5034.5997            1 
   52200    2.2016106   -4.5835451    5026.1169            1 
   52300    2.1353037   -4.5959879    5048.9391            1 
   52400    2.1564376   -4.6253991    5045.7653            1 
   52500    2.2228466   -4.6024105    5045.5742            1 
   52600    2.1542798   -4.6302478    5064.0603            1 
   52700    2.1728744   -4.6546122    5045.8018            1 
   52800    2.1455762   -4.6566245    5009.0186            1 
   52900    2.1702251   -4.6375818     5062.797       -1e+20 
   53000    2.1904931   -4.6113667    5054.2792            1 
   53100    2.1676119   -4.6693953    5021.8243            1 
   53200    2.1314231   -4.5933187     5038.825            1 
   53300     2.158779   -4.5806643    5065.6315       -1e+20 
   53400    2.1499491   -4.5983028    5039.7409       -1e+20 
   53500    2.1235738   -4.6179137    5032.8032            2 
   53600    2.1554062   -4.5884859    5044.2133            1 
   53700    2.1679692   -4.6569996    5035.1649            2 
   53800    2.1350448   -4.6915202    4995.1016            1 
   53900    2.1745445   -4.6736014    5017.9513            1 
   54000    2.1647606   -4.6542635    5060.5142       -1e+20 
   54100    2.2208122   -4.5893061    5047.9374       -1e+20 
   54200    2.1344863   -4.5773583    5040.0038            1 
   54300    2.1479567    -4.639434    5062.5926       -1e+20 
   54400    2.2291381   -4.5825396    5023.3409            1 
   54500    2.1203056   -4.5849147    5065.2053            1 
   54600    2.1664222   -4.6108694    5035.4091            1 
   54700     2.164314   -4.5947416    5041.4873       -1e+20 
   54800    2.2065484   -4.5637831      5090.04       -1e+20 
   54900    2.1768326   -4.5966999    5094.8096            1 
   55000     2.176645   -4.6330251    5043.3494            1 
   55100    2.1496495   -4.5882198     5030.114            1 
   55200    2.1146074   -4.5410513    5053.4655            1 
   55300    2.1692382    -4.634397    5017.5836            1 
   55400    2.1148695   -4.6450917    5010.4678            1 
   55500    2.2088117   -4.6601377    5017.6575            1 
   55600     2.181564    -4.583637    5084.9221            1 
   55700    2.1687374    -4.633573    5029.6109       -1e+20 
   55800    2.1495274   -4.5920044    5068.2501            1 
   55900    2.1363174    -4.551874    5045.4107       -1e+20 
   56000    2.2048206   -4.6200303    5051.6345            3 
   56100    2.1508232   -4.6166997    5092.5793            1 
   56200    2.1856108   -4.6241134    5028.4916            1 
   56300     2.118996   -4.6228918    5048.5596            1 
   56400    2.1765019   -4.6116614    5065.8146            1 
   56500    2.1377751   -4.5982203    5022.3404            1 
   56600    2.1395577   -4.6334749    5025.9759            1 
   56700    2.1424865   -4.5722254    5055.3598            1 
   56800    2.1987301   -4.6366036    5073.6403       -1e+20 
   56900    2.1298799   -4.6117591    5043.9633            1 
   57000    2.1755701   -4.5751912    5028.1959            2 
   57100    2.2044598   -4.5993418    5089.4628       -1e+20 
   57200     2.138452   -4.5879152    5050.1661            1 
   57300    2.1618391   -4.6429801    5023.5377       -1e+20 
   57400    2.1288197   -4.6979278    5002.5257       -1e+20 
   57500    2.1453263    -4.645239    5023.5905            1 
   57600    2.1639145   -4.6238742    5026.8341            1 
   57700    2.1341586   -4.6325644    5048.4893       -1e+20 
   57800    2.1984128   -4.6058351    5048.1947       -1e+20 
   57900      2.18064   -4.6395243    5043.3866            1 
   58000    2.1318267   -4.6603605    5033.4009            1 
   58100    2.1603328   -4.6418853    5003.4154       -1e+20 
   58200    2.1685374   -4.6540706    5057.6166            1 
   58300     2.143665   -4.5853111    5051.1335            1 
   58400    2.1401655   -4.6554302    5011.5143            1 
   58500    2.1350462   -4.6983402    5012.7296       -1e+20 
   58600    2.1701424   -4.6364464    5023.6716            1 
   58700     2.162347   -4.6128812    5031.9066            1 
   58800    2.1728443   -4.5862969    5071.8805            1 
   58900    2.1598562   -4.6201985    5043.6325            1 
   59000    2.1344878   -4.6546689    5006.6031            1 
   59100    2.1758616   -4.6308301    5009.9591            1 
   59200    2.1533855   -4.5962084    5071.9007            2 
   59300    2.1618326   -4.6403629    5051.0795       -1e+20 
   59400    2.1539893     -4.63739    4997.2165       -1e+20 
   59500    2.1537616   -4.5990161     5047.786       -1e+20 
   59600    2.1746213   -4.5981111    5083.6623            1 
   59700     2.154802   -4.6226652    5044.3456            1 
   59800    2.1769292   -4.6617657    5032.0973            1 
   59900    2.1114878   -4.6618909    5008.0074            1 
   60000    2.1867808    -4.666126    5005.9219            1 
   60100    2.1385867    -4.602679    5065.4774            1 
   60200    2.1913864   -4.6141939    5025.9615       -1e+20 
   60300    2.1632575   -4.6674703    5034.5326            1 
   60400    2.1802443     -4.66667    5048.7263            1 
   60500    2.1734473   -4.5766411    5032.5116            1 
   60600    2.0998387   -4.6088644    5063.2864            1 
   60700    2.1616742   -4.6056744    4988.9045            1 
   60800    2.1290826   -4.6135247    5048.9855       -1e+20 
   60900    2.1409443   -4.5983731    5040.4173            1 
   61000    2.1427775   -4.5630332    5036.8576            1 
   61100    2.1690402   -4.6061524    5090.0518       -1e+20 
   61200    2.1347574    -4.572651    5062.9135            1 
   61300    2.1812714   -4.6239891    5027.7124       -1e+20 
   61400    2.1575404   -4.6325698    5045.9584       -1e+20 
   61500    2.1439415   -4.6091387    5031.0836            1 
   61600    2.1532934   -4.6492991    5017.9424       -1e+20 
   61700    2.1467969   -4.6189513    5048.1064            1 
   61800    2.1877928   -4.5795537    5046.2769            3 
   61900    2.1572795   -4.6080461    5043.8749            2 
   62000    2.1816095   -4.6869279    5024.7684            1 
   62100    2.1400491   -4.6641603     5010.152            1 
   62200    2.1947358   -4.6517057    5032.0646            2 
   62300    2.1474241   -4.6895003    5031.5442            1 
   62400    2.1563374   -4.6364981    5009.4394            2 
   62500    2.1678691     -4.64743    5036.0828            1 
   62600    2.1210529   -4.6149069    5045.7259       -1e+20 
   62700    2.1762228   -4.6012112    5010.3399            1 
   62800    2.1614463    -4.603398    5084.6713            1 
   62900    2.1362036   -4.6022664    5061.3531            1 
   63000    2.1801139   -4.5865431    5016.7554       -1e+20 
   63100     2.142485   -4.6685151    5044.2774            2 
   63200    2.1625418   -4.6433049    5016.1568            1 
   63300     2.166844   -4.5786734    5054.1786            1 
   63400    2.1208066   -4.5937404     5034.279       -1e+20 
   63500    2.1988219   -4.6396585    5059.7317            1 
   63600    2.1608643   -4.6131341    5037.5809            1 
   63700     2.137119   -4.6139834    5049.3125            1 
   63800    2.1774118   -4.5948693    5037.0394            1 
   63900    2.1393656   -4.6350708    5014.1208            1 
   64000    2.1643007   -4.6518601    5041.7977            2 
   64100    2.1785471   -4.5761868    5044.9555       -1e+20 
   64200    2.1412898   -4.6357385    5025.7654            1 
   64300    2.1422839   -4.6386085     5067.686            1 
   64400    2.1960811   -4.5902915    5038.3182       -1e+20 
   64500    2.1678134   -4.6493724    5023.0464            1 
   64600     2.136328   -4.6455054    5044.7824            1 
   64700    2.1785227   -4.5662362    5039.6863            1 
   64800    2.1991973   -4.6291651    5068.6644       -1e+20 
   64900    2.1330062   -4.6352218    5046.5626            1 
   65000    2.1810739   -4.6395084    5013.1415            1 
   65100    2.1674574   -4.5837353    5058.9074            1 
   65200    2.1599402   -4.6193636    5064.8994       -1e+20 
   65300    2.1448375   -4.6281267    5023.8496            1 
   65400    2.1656934   -4.5810876    5084.0493       -1e+20 
   65500    2.1628014   -4.5552978     5056.618       -1e+20 
   65600    2.1038095   -4.5524106    5016.8069       -1e+20 
   65700    2.1801025   -4.6249606    5039.4351            2 
   65800    2.1296905   -4.6015455    5060.4437       -1e+20 
   65900    2.1757672   -4.5949663    5011.4953       -1e+20 
   66000    2.1577154   -4.6513443    5061.9425            1 
   66100    2.1643793   -4.6178376    5030.5325            1 
   66200    2.1701047   -4.6158875    5041.1148            1 
   66300    2.1394963   -4.6335584    5050.5475       -1e+20 
   66400    2.1676667   -4.6203443    5009.2627       -1e+20 
   66500    2.1513643   -4.6386755    5051.2116            1 
   66600    2.1392549   -4.5748896    5047.5191            1 
   66700    2.1753174   -4.5605774    5036.8127            1 
   66800    2.1604305   -4.6322431    5094.0661            1 
   66900    2.1467377   -4.5987008    5008.7832            1 
   67000    2.1099767   -4.6345339    5009.8899            1 
   67100      2.14532   -4.6019402    5052.1943            1 
   67200    2.2001086   -4.6043856    5058.7845       -1e+20 
   67300    2.1832827   -4.6460245     5050.346            1 
   67400     2.144542    -4.603256    5053.7091            1 
   67500    2.1744387   -4.5752822    5066.1484            1 
   67600    2.1721497   -4.6119158    5081.0841       -1e+20 
   67700    2.1315663   -4.5822112    5041.6996       -1e+20 
   67800     2.191588   -4.6111931    5008.0676            1 
   67900     2.105756   -4.6474455    5084.8574            1 
   68000    2.1857446    -4.602998    5034.0287            1 
   68100    2.1614159   -4.6098908     5033.446       -1e+20 
   68200    2.1642869   -4.6814078    5045.6253            1 
   68300    2.1930536   -4.6097775     5060.879            1 
   68400    2.1771229   -4.6156656    5053.5952       -1e+20 
   68500    2.1016411   -4.6425048    5041.4883            1 
   68600    2.1510983   -4.6125371    5014.8736            1 
   68700    2.2199578   -4.6116865     5044.529       -1e+20 
   68800    2.1338565   -4.6076005    5067.1267       -1e+20 
   68900    2.1334417    -4.634334    5017.8498            1 
   69000    2.1650632   -4.6682508    4992.0144       -1e+20 
   69100    2.1491339   -4.6361923    5048.5686       -1e+20 
   69200    2.1984433   -4.6360332    5050.5404       -1e+20 
   69300    2.1279753   -4.5928485    5061.6606            1 
   69400    2.1968237    -4.589211    5081.7807            1 
   69500    2.1627246   -4.5938618    5051.6425            1 
   69600    2.1719515   -4.6085085    5070.5102            1 
   69700    2.1508828   -4.6074396    5059.5891            1 
   69800     2.141638   -4.6000212    4980.4391            1 
   69900    2.1219369   -4.5661527    5052.5139            1 
   70000    2.1611128   -4.6419814    5057.3865            2 
   70100    2.1434657   -4.5842491    5020.4159            1 
   70200    2.1560343   -4.6116857    5041.7175            1 
   70300    2.1896063   -4.5942397    5082.3902            1 
   70400    2.2094933   -4.5363886     5067.897            1 
   70500    2.1585373   -4.6044666    5061.6993            1 
   70600    2.1502188   -4.6382533    5023.3284            2 
   70700    2.1421346   -4.6220675    5025.5308            1 
   70800    2.1347052   -4.5942903    5046.0494            1 
   70900    2.1772115   -4.5504084    5072.3278       -1e+20 
   71000    2.1497883   -4.6007713    5075.8245       -1e+20 
   71100    2.1403019   -4.5979023    5032.9085            1 
   71200    2.1398446   -4.5975463    5045.0551       -1e+20 
   71300    2.1469925   -4.5905711    5055.4249            1 
   71400    2.1778345   -4.6236778    5050.1529            1 
   71500    2.1887352    -4.576448    5067.2752            1 
   71600    2.1279263   -4.5905768    5061.3785            1 
   71700    2.1911759   -4.6066359    5024.5437            1 
   71800    2.1476424   -4.6534552    5052.4045            1 
   71900    2.1850864   -4.6779784    4998.7895            1 
   72000    2.1431263   -4.6426429    5044.9146            1 
   72100    2.1647218   -4.6227919    5012.4288       -1e+20 
   72200    2.1310504   -4.6082967    5035.0492            1 
   72300    2.1684871   -4.6313149    5053.7881       -1e+20 
   72400    2.1299316   -4.6079264    5020.6823            1 
   72500    2.2129938   -4.6403168    5019.5037            1 
   72600    2.1258944   -4.6289159     5056.201            4 
   72700    2.1875946   -4.6080618    5033.1319            1 
   72800    2.1490436   -4.6061499    5064.2754            2 
   72900    2.1501615   -4.6195658    5010.6041            1 
   73000    2.1550936   -4.6405091     5028.473            1 
   73100    2.1607939    -4.615699    5064.2254            1 
   73200    2.1843801    -4.669127    5026.2496            1 
   73300    2.1587088   -4.6591469    5023.0597       -1e+20 
   73400    2.1865637   -4.6260735    5053.2481            1 
   73500    2.1689985   -4.5795462    5053.4603            1 
   73600    2.1332611   -4.6084464    5046.0333            1 
   73700    2.1740561   -4.5757838    5086.0671       -1e+20 
   73800    2.1820855    -4.605494    5024.3076            1 
   73900    2.1106766   -4.5976837    5061.1939       -1e+20 
   74000    2.1990025   -4.6227975    5057.5485       -1e+20 
   74100    2.1399518   -4.6199752    5039.7333            1 
   74200    2.1441737   -4.6399307    5035.6366            1 
   74300    2.1358481   -4.5809812    5045.0497            1 
   74400    2.1926497   -4.6322527    5016.0648            1 
   74500    2.0896165   -4.5915174    5074.7235            1 
   74600    2.2369655   -4.6286378    5017.4722       -1e+20 
   74700    2.1297439   -4.5787378    5079.3106       -1e+20 
   74800     2.132238   -4.6164525    5057.5062            2 
   74900    2.1850699   -4.6190369    5004.0364            1 
   75000     2.129944   -4.6387117    5039.8784            1 
   75100    2.1920033   -4.6658995    5041.1141            2 
   75200    2.1531028   -4.6373961    5037.8739            1 
   75300    2.2123658   -4.6230794    5027.3325       -1e+20 
   75400    2.1259861   -4.6457503    5074.6504            1 
   75500    2.1497759   -4.5758822    5049.2193       -1e+20 
   75600     2.177346   -4.5490839    5044.0841       -1e+20 
   75700    2.1562048   -4.5762796    5109.5774            3 
   75800    2.1581205   -4.6124049    5036.2393            1 
   75900    2.1733253   -4.6571892    5025.3993            1 
   76000    2.1169986   -4.6049113    5041.1037            1 
   76100    2.1937391   -4.5968012    5039.5252       -1e+20 
   76200    2.1485461   -4.6182508    5054.0496            1 
   76300    2.1805299   -4.6180929    5036.4124       -1e+20 
   76400    2.1324605   -4.6567484    5029.9304            1 
   76500    2.1749916   -4.6359167    5040.7494            1 
   76600    2.1619093   -4.6332059     5007.617            1 
   76700    2.1591092   -4.6670392     5032.723            1 
   76800    2.1265349   -4.5736807    5095.3935            1 
   76900    2.2200758   -4.5738919    5054.1087       -1e+20 
   77000    2.1256633   -4.5871891    5079.9277            1 
   77100    2.1701301   -4.5997995     5036.025            1 
   77200    2.1715501   -4.6221451    5049.4233            1 
   77300    2.1797781   -4.6038496    5050.9865            1 
   77400    2.1682699   -4.6466884    5052.6465       -1e+20 
   77500    2.1934923   -4.5735527    5102.6137            1 
   77600     2.179669   -4.5636306    5054.3212            1 
   77700    2.1885804   -4.6697209    5049.8107       -1e+20 
   77800    2.1332122   -4.6592461    5036.3433            1 
   77900    2.2119304   -4.6483355    5031.7826            1 
   78000     2.137397   -4.5884848    5060.3625            1 
   78100    2.1883404   -4.5911172    5082.7498       -1e+20 
   78200     2.161834   -4.5371086     5066.962            1 
   78300    2.1517551   -4.6271413    5044.9468            1 
   78400    2.1938501   -4.6341492    5065.2103       -1e+20 
   78500    2.1458027   -4.6263569    5069.2642       -1e+20 
   78600    2.1953299   -4.6615915    5005.5101            1 
   78700    2.1520504   -4.5819163     5089.881       -1e+20 
   78800    2.1766421   -4.5782486    5050.2595            1 
   78900    2.1484832   -4.5947653    5042.7781            1 
   79000    2.1555769   -4.6580494    5019.6424            1 
   79100    2.1444561   -4.6412602    5054.5284            1 
   79200    2.1699931   -4.5942713    5030.2231            1 
   79300    2.1312982   -4.6183839    5023.3762            1 
   79400    2.1584689   -4.6213278    5064.6546            1 
   79500     2.162915    -4.546825    5046.4322            1 
   79600    2.1371235   -4.5867798    5055.0753            2 
   79700    2.1852738   -4.6623476    5029.1332            1 
   79800    2.1670494   -4.6837712    5016.7719            1 
   79900    2.1561022   -4.6151508    5058.3036            1 
   80000    2.2257196   -4.6184859    5053.2289            2 
   80100    2.1252351   -4.6305849    5055.3699            1 
   80200    2.1881418   -4.6061451    5046.5652       -1e+20 
   80300    2.1545155   -4.5844694    5073.7508            1 
   80400    2.1440071   -4.6069149    5020.3883            1 
   80500    2.1381779   -4.6026662     5045.149            1 
   80600    2.1848231   -4.6074342    5067.9155       -1e+20 
   80700    2.1019444   -4.5712508    5026.3404       -1e+20 
   80800    2.1529722   -4.6226961    5030.7963            1 
   80900    2.1943908   -4.5730134    5088.0943            1 
   81000    2.1711952   -4.5307843     5089.139            1 
   81100    2.1480165   -4.5970831    5065.4055            1 
   81200    2.1462001   -4.5953239    5038.3897            1 
   81300    2.1339126   -4.6266496    5031.0414            1 
   81400    2.1506829    -4.632556     5013.908            1 
   81500    2.1542607   -4.6065663    5088.7706       -1e+20 
   81600      2.17776   -4.5684378     5041.438       -1e+20 
   81700    2.1599682   -4.6392315    5039.5738            1 
   81800    2.1253761   -4.6226215    5055.5173       -1e+20 
   81900     2.170196   -4.5664613    5029.7733       -1e+20 
   82000    2.1512592   -4.6376546    5057.5662            1 
   82100    2.2102246   -4.5819326    5062.1187            1 
   82200    2.1520202   -4.5581152    5059.1985            1 
   82300    2.1525863   -4.6138351    5040.9391            1 
   82400    2.1570308   -4.6433995    5026.1549            1 
   82500    2.1676723   -4.5786011    5038.1828            1 
   82600    2.1307381   -4.5324566    5087.4568       -1e+20 
   82700    2.1596316    -4.579456      5061.35       -1e+20 
   82800    2.1650766   -4.6316926    5025.3413            1 
   82900    2.1182138   -4.6718473     5027.326       -1e+20 
   83000    2.1552184   -4.5809649     4999.841            1 
   83100    2.1397863   -4.5934063    5075.5714       -1e+20 
   83200    2.1849437   -4.6368712    5036.5548            1 
   83300     2.140235   -4.6239209    5008.3089            1 
   83400    2.1813357   -4.6364909    5075.8021            1 
   83500    2.1531593   -4.6176145    5047.8625            1 
   83600    2.1661792   -4.6389342    5011.0181            1 
   83700    2.1652424    -4.617637    5061.2782            1 
   83800    2.1512596   -4.5654203    5081.9504            1 
   83900    2.1632811   -4.6034074    5001.7965            1 
   84000    2.1234876   -4.6133864    5056.2755            1 
   84100    2.1680845   -4.6044112    5078.8564       -1e+20 
   84200    2.1904495   -4.5271975    5077.8699            1 
   84300    2.1908337   -4.5771647    5075.9639       -1e+20 
   84400    2.1543242   -4.6389857    5054.3532            1 
   84500    2.1746498   -4.5825706    5036.5486       -1e+20 
   84600    2.1408776   -4.6455482    5076.4445            2 
   84700    2.1961844   -4.6651423    5018.8991            1 
   84800    2.1564054   -4.6387115    5040.2369            4 
   84900    2.1624163   -4.6046289     5041.432       -1e+20 
   85000    2.1493814   -4.6133906    5011.4232            1 
   85100    2.1350311   -4.6539712    5056.3954            1 
   85200    2.1961526   -4.6125861    5034.7616       -1e+20 
   85300     2.128904   -4.5916757    5043.0544            1 
   85400    2.1943709   -4.5957375     5042.172            1 
   85500    2.1200234   -4.5882541    5051.5106            1 
   85600    2.1365542   -4.6523262    5037.8412       -1e+20 
   85700     2.170749   -4.5919339    5070.9994       -1e+20 
   85800    2.1983944   -4.5903822    5058.3923            1 
   85900    2.0996656   -4.5777998    5040.6277       -1e+20 
   86000     2.146158   -4.5613138    5045.0114            1 
   86100    2.1630548   -4.5938175    5060.4835            1 
   86200    2.1443951   -4.5993113    5088.9741            1 
   86300    2.2094171   -4.5801873    5016.6738            1 
   86400    2.1283002   -4.6518685    5079.9832            2 
   86500    2.1684425   -4.6204125    5021.7015       -1e+20 
   86600    2.1356021   -4.6153834    5035.2364            1 
   86700    2.1559253   -4.6173605    5064.3294            1 
   86800    2.1852889   -4.5448331    5044.9638       -1e+20 
   86900    2.1673031   -4.5897147    5087.3935            1 
   87000    2.1634839   -4.6525975    5031.6631            1 
   87100    2.1664426   -4.6538409    5035.7216       -1e+20 
   87200    2.1556812     -4.61276    5039.8009            1 
   87300    2.1517612   -4.5839041     5047.864            1 
   87400    2.1873033    -4.626931    5036.0083       -1e+20 
   87500    2.1253912   -4.6689499    5039.4904            1 
   87600    2.1719246   -4.6126253     5036.555       -1e+20 
   87700    2.1311972   -4.5932277    5036.6589            1 
   87800    2.1546434   -4.6611409     5017.673       -1e+20 
   87900    2.1664921   -4.6073958    5054.2187            1 
   88000    2.1992011   -4.6558354    5041.0074            1 
   88100    2.1499662   -4.6474934    5055.4986            1 
   88200    2.1664995   -4.5778452    5069.6502            1 
   88300    2.1588544    -4.560554    5043.7539            2 
   88400    2.1240368   -4.6370131    5040.5455            1 
   88500    2.1403914   -4.6010788    5024.6341       -1e+20 
   88600    2.1743017    -4.616212    5008.1661            1 
   88700    2.1511441   -4.6434798    5067.9406            1 
   88800    2.1658455    -4.629666    5045.2086            2 
   88900    2.1651505   -4.5978125    5040.8749            1 
   89000    2.1866707   -4.6430559    5060.6418            1 
   89100     2.148548   -4.6461932    5019.5205            1 
   89200    2.1554543   -4.6155977    5031.8426            1 
   89300    2.1677952   -4.6224509    5076.9823       -1e+20 
   89400    2.1152621   -4.5911155    5028.5876            1 
   89500    2.1568935   -4.6092002    5030.0774       -1e+20 
   89600    2.1765014   -4.6318626    5055.7771       -1e+20 
   89700    2.0861976   -4.5914519    5036.2315            1 
   89800    2.2091827   -4.6170069    4997.9949       -1e+20 
   89900    2.1317926   -4.6330644    5080.5622       -1e+20 
   90000    2.1731732   -4.6014604    5038.9982            1 
   90100    2.1808607   -4.6204876    5064.6328       -1e+20 
   90200    2.1614082   -4.5755199    5073.7735            1 
   90300    2.1516242   -4.5962191    5049.3391       -1e+20 
   90400    2.1073915   -4.6020505    4994.8173       -1e+20 
   90500    2.1610488   -4.6520003    5072.5067            1 
   90600    2.2207781   -4.6433991    5030.3693       -1e+20 
   90700      2.10826   -4.5909277    5044.7875            1 
   90800    2.1730531   -4.5850015    5045.9036            1 
   90900    2.1584616    -4.591994    5080.8923            1 
   91000    2.1555827   -4.5550255    5087.9465            3 
   91100    2.1583949   -4.5928626    5025.0743       -1e+20 
   91200    2.1236025   -4.6208033    5062.0747            1 
   91300    2.1939552   -4.6193673    5060.8295            1 
   91400    2.1458452   -4.6039393    5009.9406            1 
   91500    2.1446881   -4.6580658     5051.001       -1e+20 
   91600    2.1948729    -4.646325    5058.2804            2 
   91700    2.1762581   -4.5969371    5078.4844            1 
   91800    2.1660888   -4.6339462    5073.4237            1 
   91900    2.1546859   -4.5893069    5039.8858            1 
   92000    2.1975647   -4.6046416    5063.6192            1 
   92100    2.1921537   -4.6292969    5095.7201       -1e+20 
   92200    2.1597668   -4.6233384    5025.2476            1 
   92300    2.1454007   -4.5975072    5042.9415            1 
   92400    2.1589552   -4.5558202    5095.4563       -1e+20 
   92500    2.2001272   -4.5720378    5089.8043            1 
   92600    2.1550373   -4.5885956    5073.8313            1 
   92700    2.2022576   -4.5848042    5066.4575            1 
   92800    2.1215915   -4.5913206     5052.715            1 
   92900    2.1640939   -4.6182887    5038.0349            1 
   93000    2.1553199   -4.5683473     5040.282            1 
   93100    2.1743836   -4.6366748    5079.5054            1 
   93200    2.1680337   -4.6481735    5006.0784            1 
   93300    2.1501854   -4.6529742    5015.3613            1 
   93400    2.1819386   -4.6601088    5069.1947            1 
   93500    2.1619884   -4.5977941    5033.2826            1 
   93600    2.1460234   -4.6393705    5007.7924            1 
   93700    2.1221025   -4.7051493    5027.9706       -1e+20 
   93800    2.1412667   -4.6086191    5030.0688            1 
   93900    2.1819401   -4.5803407    5060.6875            1 
   94000    2.1593906   -4.6038089    5064.8256            1 
   94100    2.1762512   -4.6644825    5022.0064       -1e+20 
   94200    2.1707671   -4.6639264    5039.7756            1 
   94300    2.1633275   -4.6132206    5053.8169            1 
   94400    2.1280666   -4.6078497    5028.5128            1 
   94500    2.1249524   -4.6047815    5040.7565            1 
   94600    2.1409931   -4.5594594    5030.8492            1 
   94700    2.1325681   -4.6339958    5038.0178            1 
   94800    2.1990759   -4.6340763    5033.7199       -1e+20 
   94900    2.1507538   -4.6079427    5053.7675            1 
   95000    2.1246419   -4.6143463    5043.7848            1 
   95100    2.2057376   -4.6026072     5029.565       -1e+20 
   95200    2.1341213   -4.6252587    5053.5435            1 
   95300    2.1459667   -4.5923047    5061.5642       -1e+20 
   95400     2.195801   -4.5918232    5074.6689            1 
   95500    2.0991415    -4.582058    5064.6931       -1e+20 
   95600    2.1827186     -4.63847    5016.4326            1 
   95700    2.1415979   -4.6642193    5032.9786            1 
   95800    2.1622781   -4.6228507    5027.3717            1 
   95900    2.1362432   -4.5910371    5042.8786            1 
   96000    2.1454689   -4.5961926    5049.3248            1 
   96100    2.2151953    -4.611486    5047.6522            1 
   96200    2.1197231   -4.6180568    5056.1587            1 
   96300    2.1468251   -4.6336879     5040.419            1 
   96400    2.2044766   -4.5860481    5045.6783       -1e+20 
   96500    2.1468473   -4.6224633    5059.1502            1 
   96600     2.140279   -4.5882655    5050.4903            1 
   96700    2.1769746   -4.5639872    5046.5961            1 
   96800     2.110705   -4.6269801    5067.2844       -1e+20 
   96900    2.1741464   -4.5977423    5041.2358       -1e+20 
   97000    2.1635586   -4.5552095    5046.9803            1 
   97100    2.1602512   -4.6517009    5091.5414       -1e+20 
   97200    2.1719353   -4.6095218    5009.1575            1 
   97300    2.1688902   -4.6325022    5036.2407            1 
   97400    2.1472341     -4.61726    5082.2659            1 
   97500    2.1596091   -4.6552794    4982.3192            2 
   97600    2.0925235   -4.6333073    5033.2005       -1e+20 
   97700    2.1663302   -4.6142979    5031.2657            1 
   97800    2.1549983   -4.5917044     5050.331            1 
   97900    2.1462598   -4.6031963     5058.566       -1e+20 
   98000    2.1511408   -4.6484544    4995.5384            1 
   98100    2.1793819   -4.6356941    5023.6813            1 
   98200    2.1431274   -4.6218849    5064.5543       -1e+20 
   98300    2.2182377   -4.5969816    5057.1915       -1e+20 
   98400    2.1415092   -4.5995345    5081.7212       -1e+20 
   98500    2.1540873   -4.6633979    5021.4197            2 
   98600    2.1732195   -4.6470429    5019.3033            1 
   98700    2.1286529   -4.6212233    5056.1925            1 
   98800    2.1800938   -4.5694757    5054.4573            1 
   98900     2.153909   -4.6001776    5053.7132            1 
   99000    2.1183217   -4.5784623    5039.8085       -1e+20 
   99100    2.1328391   -4.6541437    5010.1629            2 
   99200    2.1820802   -4.6381076    5064.2455            1 
   99300    2.1760504   -4.6229185     5061.321            1 
   99400    2.1503677   -4.6214065    5032.3758       -1e+20 
   99500    2.1501019   -4.5919278    5074.7671            1 
   99600    2.2033819   -4.5617884    5092.6108       -1e+20 
   99700    2.1517344   -4.5808622    5066.2848            1 
   99800    2.1619647    -4.638284     5040.131            1 
   99900    2.1827283   -4.5885601    5020.0085            1 
  100000     2.124996   -4.6234702    5048.5808       -1e+20 
  100100    2.1789641    -4.618666    5027.4838            1 
  100200    2.1511503   -4.6901915    5042.6795       -1e+20 
  100300    2.1483024   -4.6264817    5025.3781            1 
  100400    2.1819663   -4.6123307    5075.4637            1 
  100500    2.1506854   -4.6009666    5056.9936       -1e+20 
  100600    2.1816617   -4.6128337    5024.9801            1 
  100700    2.1180961   -4.6076301    5071.6125            1 
  100800    2.1794478   -4.5976153    5053.1051            2 
  100900    2.1622499   -4.6432041     5019.862            1 
  101000    2.1397444   -4.6276473    5048.0717            2 
  101100    2.1346033   -4.5739688     5040.802            2 
  101200    2.1653897   -4.6162258    5022.6376            1 
  101300    2.1374103   -4.6521826    5029.8936            1 
  101400    2.2168105   -4.6262291    5056.6892            1 
  101500    2.1600669   -4.5500773    5079.0483            1 
  101600     2.144175   -4.5721884    5072.4809            1 
  101700     2.193802   -4.5671411    5053.1043            1 
  101800     2.112036   -4.5922344    5062.8786            1 
  101900    2.1774331   -4.5972233    5038.5301            1 
  102000    2.1317681   -4.6011097     5059.381            2 
  102100    2.1871471    -4.627152    5046.1823            1 
  102200    2.1442809   -4.6234901    5030.3242            1 
  102300    2.1589114   -4.5854118    5061.9738            2 
  102400    2.1971548   -4.6007212    5058.5118            1 
  102500    2.1475726   -4.6215283    5025.8822            1 
  102600    2.1760112    -4.690698     5038.592            1 
  102700    2.1858761   -4.6148169    5039.4982       -1e+20 
  102800    2.1333019   -4.6469875    5030.0589       -1e+20 
  102900    2.1688068   -4.6598786    5016.9573            1 
  103000    2.1663876   -4.6233641    5022.9153            1 
  103100    2.1332622   -4.6224812    5043.7063            1 
  103200    2.1622798   -4.6195974    5008.8488            1 
  103300    2.1547625   -4.6219334    5057.0474            2 
  103400    2.1681236   -4.5914742     5071.712       -1e+20 
  103500    2.1609963   -4.5949812    5035.3714            1 
  103600    2.0747557    -4.589457    5038.8067            1 
  103700    2.1729653   -4.6205596    5049.6022            1 
  103800    2.2232778   -4.6219813    5042.6649            1 
  103900    2.1243508   -4.6544308    5070.6393       -1e+20 
  104000    2.1964539   -4.6306072    5015.4391            1 
Loop time of 256.797 on 18 procs for 100000 steps with 4000 atoms

Performance: 67290.612 tau/day, 389.413 timesteps/s
99.6% CPU use with 18 MPI tasks x no OpenMP threads

MPI task timing breakdown:
Section |  min time  |  avg time  |  max time  |%varavg| %total
---------------------------------------------------------------
Pair    | 31.142     | 31.501     | 32.463     |   5.5 | 12.27
Neigh   | 5.5959     | 5.638      | 5.6756     |   1.2 |  2.20
Comm    | 11.888     | 14.57      | 16.962     |  40.8 |  5.67
Output  | 5.3424     | 5.3436     | 5.3585     |   0.2 |  2.08
Modify  | 195.02     | 197.86     | 201.04     |  14.1 | 77.05
Other   |            | 1.885      |            |       |  0.73

Nlocal:        222.222 ave         231 max         214 min
Histogram: 1 1 3 1 5 2 2 0 2 1
Nghost:        2057.67 ave        2074 max        2035 min
Histogram: 1 0 2 4 0 1 1 5 2 2
Neighs:        20240.1 ave       21181 max       19106 min
Histogram: 1 0 1 3 2 4 3 1 1 2
FullNghs:      40479.5 ave       42427 max       38674 min
Histogram: 2 0 3 0 5 3 2 1 1 1

Total # of neighbors = 728631
Ave neighs/atom = 182.15775
Neighbor list builds = 8652
Dangerous builds = 758

#clear
#
#next RN
#
#jump SELF
Total wall time: 0:04:19
