
units lj                  # Use reduced LJ style units
atom_style atomic         # Uncharged point particles
atom_modify map hash      # Needed for indexing of clusters etc
                          # Used to be able to find where atoms are in relation to each other.

# Define a lattice with which to populate the simulation cell. With units
# set to 'lj' the second argument to the lattice command is the reduced
# density rho* and the spacings are multiples of that required to acheive
# that density. Also define a simulation cell called 'box' in lattice units
# and fill it with atoms. Here we're creating a box which is ten lattice
# constants in each direction.
lattice fcc 1.0 spacing 1 1 1                 # All equal sizes - gives the right reduced density.
Lattice spacing in x,y,z = 1.5874011 1.5874011 1.5874011

region box block 0 10 0 10 0 10 units lattice # Defines a region, "box", in lattice units
create_box 1 box                              # Creates a simulation box as specified above,
Created orthogonal box = (0.0000000 0.0000000 0.0000000) to (15.874011 15.874011 15.874011)
  2 by 3 by 3 MPI processor grid
                                              # with one type of atom
create_atoms 1 box                            # Creates particles on lattice points
Created 4000 atoms
  using lattice units in orthogonal box = (0.0000000 0.0000000 0.0000000) to (15.874011 15.874011 15.874011)
  create_atoms CPU = 0.001 seconds


# Set the mass of the first (and only) atom type.
mass 1 1.0

# Lennard-Jones interactions between particles, 3.5 sigma cut-off. Apply
# long range tail corrections to energy and pressure and set all coefficients
# to unity since we work in reduced units here. Note that this doesn't shift
# the potential such that it goes to zero at the cutoff. That would require
# pair_modify('shift', 'yes').
pair_style lj/cut  3.5      # non-GPU version
pair_modify tail  yes
pair_coeff 1  1  1.0  1.0   # Intearaction between 1 and 1 set with epsilon = 1 and sigma = 1

write_data data.*
System init for write_data ...
Neighbor list info ...
  update every 1 steps, delay 10 steps, check yes
  max neighbors/atom: 2000, page size: 100000
  master list distance cutoff = 3.8
  ghost atom cutoff = 3.8
  binsize = 1.9, bins = 9 9 9
  1 neighbor lists, perpetual/occasional/extra = 1 0 0
  (1) pair lj/cut, perpetual
      attributes: half, newton on
      pair build: half/bin/atomonly/newton
      stencil: half/bin/3d
      bin: standard

#############################
#   M E L T   S Y S T E M   #
#############################

velocity all create 2.4 9580093 mom yes dist gaussian # Assign velocities
                                                    # Temperature 2.4, random number seed, zero linear momentum
						                                                        # Gaussian distribution

timestep 0.002   # simulation timestep
thermo 100       # output thermodynamic data every 100 steps

# Define a fix  in this case with index 1 applied to all
# particles in the simulation. This fix is for simulations
# in the anisotropic NPT ensemble. Note that we use the MTK
# correction.
fix 1 all npt temp 2.4 2.4 0.1 iso 5.68 5.68 0.5 mtk yes tchain 5 pchain 5 # Use NPT ensemble
                                                                         # Set temperature and pressure and damping
                                                                         # Numbers of thermostats in chain and in barostat
run 1000         # run for 10000 steps
Per MPI rank memory allocation (min/avg/max) = 3.680 | 3.683 | 3.691 Mbytes
Step Temp E_pair E_mol TotEng Press Volume 
       0          2.4   -8.3859253            0   -4.7868253   -2.2405722         4000 
     100     1.259173   -6.5129234            0   -4.6246361    5.4934905    4087.7331 
     200    1.4428249   -6.2687115            0   -4.1050152    6.0785122    4146.9382 
     300    1.5891892   -6.0266188            0   -3.6434309    5.7981853    4270.6634 
     400    1.6864341   -5.7131876            0   -3.1841689    5.8606885    4403.8234 
     500    1.7726955   -5.3925361            0   -2.7341577    6.0308441    4545.5702 
     600    1.8621927   -5.1101682            0   -2.3175776     5.891941    4707.0977 
     700    2.0370972   -4.9322753            0   -1.8773933    5.7586815    4836.4856 
     800     2.148017   -4.7251145            0   -1.5038945     5.695937    4973.8339 
     900    2.2849312   -4.5953229            0    -1.168783    5.5901698    5080.7682 
    1000    2.3668384   -4.4671643            0  -0.91779423    5.6325458    5159.4021 
Loop time of 0.562191 on 18 procs for 1000 steps with 4000 atoms

Performance: 307368.591 tau/day, 1778.753 timesteps/s
99.7% CPU use with 18 MPI tasks x no OpenMP threads

MPI task timing breakdown:
Section |  min time  |  avg time  |  max time  |%varavg| %total
---------------------------------------------------------------
Pair    | 0.32092    | 0.34402    | 0.36876    |   2.1 | 61.19
Neigh   | 0.062405   | 0.064869   | 0.068345   |   0.6 | 11.54
Comm    | 0.10038    | 0.12537    | 0.14733    |   3.4 | 22.30
Output  | 0.00022042 | 0.00022892 | 0.00030228 |   0.0 |  0.04
Modify  | 0.021603   | 0.024769   | 0.028243   |   1.2 |  4.41
Other   |            | 0.002932   |            |       |  0.52

Nlocal:        222.222 ave         234 max         215 min
Histogram: 2 2 2 5 2 2 0 2 0 1
Nghost:        2027.72 ave        2047 max        2008 min
Histogram: 2 2 2 2 0 1 3 3 1 2
Neighs:        19701.2 ave       20972 max       19058 min
Histogram: 4 2 5 1 2 0 1 0 2 1

Total # of neighbors = 354621
Ave neighs/atom = 88.655250
Neighbor list builds = 86
Dangerous builds = 13

# Equilibrate just above the melting temperature to avoid step fn in T

fix 1 all npt temp 1.25 1.25 0.1 iso 5.68 5.68 0.5 mtk yes tchain 5 pchain 5
run 1000
Per MPI rank memory allocation (min/avg/max) = 3.680 | 3.684 | 3.691 Mbytes
Step Temp E_pair E_mol TotEng Press Volume 
    1000    2.3668384   -4.4671643            0  -0.91779423    5.6325458    5159.4021 
    1100    1.9574321   -4.6876242            0   -1.7522101     5.742239    4978.1866 
    1200    1.7073045   -4.9488657            0   -2.3885491    5.6650364    4816.0505 
    1300    1.5538685   -5.2008727            0   -2.8706526    5.5388719    4686.2818 
    1400    1.4591125   -5.3988943            0   -3.2107727    5.7038561    4562.2733 
    1500    1.3734001   -5.5325252            0     -3.47294    5.7668218    4485.3709 
    1600    1.3312993   -5.6768418            0    -3.680392    5.7740875    4414.4243 
    1700    1.2798366    -5.761926            0    -3.842651    5.6016442    4388.0724 
    1800    1.2633462   -5.8402242            0   -3.9456787    5.5372513    4356.6355 
    1900    1.2453639    -5.852051            0   -3.9844721    5.6853926     4338.989 
    2000     1.269018    -5.839491            0   -3.9364398    5.7926253    4334.2464 
Loop time of 0.538744 on 18 procs for 1000 steps with 4000 atoms

Performance: 320746.304 tau/day, 1856.171 timesteps/s
99.7% CPU use with 18 MPI tasks x no OpenMP threads

MPI task timing breakdown:
Section |  min time  |  avg time  |  max time  |%varavg| %total
---------------------------------------------------------------
Pair    | 0.32592    | 0.34324    | 0.35654    |   1.5 | 63.71
Neigh   | 0.055082   | 0.056871   | 0.058515   |   0.4 | 10.56
Comm    | 0.097736   | 0.11       | 0.12532    |   2.4 | 20.42
Output  | 0.00021906 | 0.0002274  | 0.00028871 |   0.0 |  0.04
Modify  | 0.022442   | 0.025089   | 0.029572   |   1.4 |  4.66
Other   |            | 0.003317   |            |       |  0.62

Nlocal:        222.222 ave         232 max         213 min
Histogram: 1 1 3 3 0 4 2 2 1 1
Nghost:        2247.39 ave        2263 max        2230 min
Histogram: 2 1 1 3 2 0 1 4 3 1
Neighs:        23426.6 ave       25065 max       21406 min
Histogram: 1 1 1 3 1 4 2 2 1 2

Total # of neighbors = 421679
Ave neighs/atom = 105.41975
Neighbor list builds = 75
Dangerous builds = 6


# Small amount of linear quench

fix 1 all npt temp 1.25 ${temp} 0.1 iso 5.68 5.68 0.5 mtk yes tchain 5 pchain 5
fix 1 all npt temp 1.25 0.4 0.1 iso 5.68 5.68 0.5 mtk yes tchain 5 pchain 5
run 2000
Per MPI rank memory allocation (min/avg/max) = 3.680 | 3.684 | 3.691 Mbytes
Step Temp E_pair E_mol TotEng Press Volume 
    2000     1.269018    -5.839491            0   -3.9364398    5.7926253    4334.2464 
    2100    1.2298897   -5.8596792            0   -4.0153058    5.6359653    4338.6672 
    2200    1.1865623   -5.8744999            0   -4.0951014     5.765465    4314.5083 
    2300     1.161634   -5.9375994            0   -4.1955839    5.6883164    4294.9094 
    2400    1.0967939   -5.9596824            0    -4.314903    5.7434846    4277.7572 
    2500    1.0915467   -6.0603742            0   -4.4234635    5.5898956    4248.0037 
    2600    1.0462906   -6.1073148            0   -4.5382712     5.706347    4217.7573 
    2700    1.0190378   -6.1785933            0   -4.6504187    5.7071904    4189.3029 
    2800   0.97237347   -6.2385463            0   -4.7803507    5.7249012    4161.0058 
    2900    0.9356224   -6.3027609            0   -4.8996782    5.8495994    4127.2903 
    3000   0.88855675   -6.3488622            0   -5.0163603    6.0061198    4093.7785 
    3100   0.83881367   -6.4144752            0   -5.1565692    5.9163131    4072.9958 
    3200   0.81105754   -6.4997777            0   -5.2834956     5.854515    4045.5398 
    3300   0.76984652   -6.5709489            0   -5.4164678    5.7751494    4023.5565 
    3400   0.72763008   -6.6321288            0   -5.5409565    5.8098457    3997.7819 
    3500    0.6918367   -6.7109216            0    -5.673426    5.7373315    3972.6309 
    3600   0.64713872   -6.7774651            0   -5.8069997    5.6936015    3952.4452 
    3700   0.60444532   -6.8444413            0       -5.938    5.6314258    3929.9018 
    3800   0.56436255   -6.9099513            0   -6.0636191    5.6627395    3905.0482 
    3900    0.5207374   -6.9723664            0   -6.1914556     5.615969    3885.7298 
    4000   0.48478145   -7.0347808            0   -6.3077904    5.6714484    3859.4934 
Loop time of 1.13458 on 18 procs for 2000 steps with 4000 atoms

Performance: 304606.622 tau/day, 1762.770 timesteps/s
99.8% CPU use with 18 MPI tasks x no OpenMP threads

MPI task timing breakdown:
Section |  min time  |  avg time  |  max time  |%varavg| %total
---------------------------------------------------------------
Pair    | 0.72151    | 0.76563    | 0.79908    |   2.4 | 67.48
Neigh   | 0.086801   | 0.089458   | 0.091808   |   0.5 |  7.88
Comm    | 0.19024    | 0.22131    | 0.25922    |   3.8 | 19.51
Output  | 0.00043558 | 0.00045168 | 0.00057012 |   0.0 |  0.04
Modify  | 0.044135   | 0.049955   | 0.059967   |   2.3 |  4.40
Other   |            | 0.007777   |            |       |  0.69

Nlocal:        222.222 ave         231 max         215 min
Histogram: 4 1 0 2 3 2 3 0 1 2
Nghost:        2419.89 ave        2432 max        2402 min
Histogram: 1 0 0 3 1 4 1 5 1 2
Neighs:        26534.8 ave       28688 max       25248 min
Histogram: 4 0 5 1 3 1 1 2 0 1

Total # of neighbors = 477627
Ave neighs/atom = 119.40675
Neighbor list builds = 113
Dangerous builds = 0

#############################
# F R E E Z E  S Y S T E M  #
#############################

# Define solid atoms. This closely follows ten Wolde  Ruiz-Montero and Frenkel  Faraday Discuss  1996  104  93-110
# Compute components of the per-atom q6 vector
compute q6 all orientorder/atom degrees 1 6 components 6 nnn NULL cutoff 1.3 # compute the Q6 parameter.
                                                                             # Use all neighbours within 1.3 unit cell.

# get number of connections
compute coord_number all coord/atom orientorder q6 0.5

# An atom is solid if it has 8 or more connections (of a possible 14)
variable is_solid atom c_coord_number>=8
group solid dynamic all var is_solid    # Must be dynamic to update
dynamic group solid defined

# do clustering
compute cluster solid cluster/atom 1.3 # Create a cluster where all atoms within are solid and max 1.3 units from another member

# define chunks one chunk per cluster
compute clus_chunks solid chunk/atom c_cluster nchunk every compress yes  # Says which atoms are in which chunk

# count the size of each chunk
compute size_chunks solid property/chunk clus_chunks count


# Find the maximum entry in the vector of chunk sizes
variable max_n equal max(c_size_chunks)


# Thermo style which includes this variable
thermo_style custom step temp pe vol v_max_n

thermo ${N}  # Print the thermo information every 100 steps
thermo 100  

# Reset the npt fix at a lower temperature (below freezing)
fix 1  all npt temp  ${temp} ${temp}  0.1  iso  5.68  5.68  0.5  mtk yes tchain  5  pchain  5
fix 1  all npt temp  0.4 ${temp}  0.1  iso  5.68  5.68  0.5  mtk yes tchain  5  pchain  5
fix 1  all npt temp  0.4 0.4  0.1  iso  5.68  5.68  0.5  mtk yes tchain  5  pchain  5

dump dmp2 all dcd ${N} traj_${rand}.dcd
dump dmp2 all dcd 100 traj_${rand}.dcd
dump dmp2 all dcd 100 traj_462431.dcd


# fix rnuntil all halt ${N} v_max_n >= 3980 error soft message no   # Stop when solidified


run 100000 # 5000000  # Run for this many steps
Neighbor list info ...
  update every 1 steps, delay 10 steps, check yes
  max neighbors/atom: 2000, page size: 100000
  master list distance cutoff = 3.8
  ghost atom cutoff = 3.8
  binsize = 1.9, bins = 9 9 9
  4 neighbor lists, perpetual/occasional/extra = 1 3 0
  (1) pair lj/cut, perpetual
      attributes: half, newton on
      pair build: half/bin/atomonly/newton
      stencil: half/bin/3d
      bin: standard
  (2) compute orientorder/atom, occasional
      attributes: full, newton on
      pair build: full/bin/atomonly
      stencil: full/bin/3d
      bin: standard
  (3) compute coord/atom, occasional
      attributes: full, newton on
      pair build: full/bin/atomonly
      stencil: full/bin/3d
      bin: standard
  (4) compute cluster/atom, occasional
      attributes: full, newton on
      pair build: full/bin/atomonly
      stencil: full/bin/3d
      bin: standard
Per MPI rank memory allocation (min/avg/max) = 9.524 | 9.528 | 9.530 Mbytes
Step Temp PotEng Volume v_max_n 
    4000   0.48478145   -7.0347808    3859.4934           19 
    4100   0.46012013   -7.0865982    3838.9393           12 
    4200   0.43197451   -7.1334244     3831.276           20 
    4300   0.41704316   -7.1637615    3817.8779           23 
    4400   0.40654367   -7.1848121    3807.9419           28 
    4500   0.39977905    -7.197497    3806.9291           27 
    4600   0.39911611   -7.2063031     3804.893           25 
    4700   0.39832784   -7.2035521    3795.9767           23 
    4800    0.4051429   -7.2127738    3806.7138           22 
    4900    0.4062866   -7.2260168     3797.227           45 
    5000    0.4022685   -7.2188007    3798.9069           46 
    5100   0.41891648   -7.2217604    3796.6839           41 
    5200   0.40573633   -7.2384278    3801.1919           34 
    5300   0.40149732   -7.2222223    3790.0617           53 
    5400   0.40185765   -7.2102901    3798.6831           30 
    5500   0.39674539   -7.2261542     3803.702           36 
    5600   0.40160492   -7.2290639    3793.0707           44 
    5700   0.40612234    -7.234697    3794.7316           54 
    5800   0.39950794    -7.239602    3793.9034           58 
    5900   0.39991721   -7.2346301     3785.381           44 
    6000   0.39723713   -7.2338164    3795.9408           36 
    6100   0.40571973   -7.2522573    3799.1217           43 
    6200   0.39872071   -7.2425288    3793.2408           36 
    6300   0.40751995    -7.241515    3788.6924           50 
    6400   0.39568118   -7.2418954    3789.6447           56 
    6500   0.39720059   -7.2389658    3790.8636           54 
    6600   0.40174013   -7.2415936    3788.1031          107 
    6700   0.40340582   -7.2687216    3786.7374           77 
    6800   0.39982938   -7.2666819    3785.1375           36 
    6900   0.40414672    -7.257694    3789.4307           59 
    7000   0.40424514   -7.2680711    3791.2189           63 
    7100   0.39831677   -7.2610287    3783.4593           61 
    7200   0.40603962   -7.2551926     3783.358           76 
    7300   0.40400997   -7.2610036    3788.4376           65 
    7400   0.39527126   -7.2568657    3787.1632          105 
    7500   0.39872843   -7.2638315    3785.5913           59 
    7600   0.40511441   -7.2757769    3787.9091           82 
    7700   0.40034594   -7.2550471    3787.1322           68 
    7800    0.4042037   -7.2602665    3776.2231           71 
    7900   0.39355708   -7.2653678    3788.9732           91 
    8000   0.39134764   -7.2706642    3787.2004          172 
    8100   0.39960486    -7.246898    3778.6508           96 
    8200   0.40920284   -7.2563424    3788.5157           66 
    8300   0.39953419   -7.2675726    3786.9061           57 
    8400   0.39998315   -7.2715465    3776.7821           54 
    8500    0.3977184   -7.2719562    3776.4274           71 
    8600   0.39910334   -7.2657174    3789.1919           51 
    8700   0.40591338   -7.2687715    3785.3904          123 
    8800   0.39632065   -7.2757575    3781.1782          139 
    8900   0.39583109   -7.2691204    3777.3447           92 
    9000    0.4055444   -7.2765252    3787.2509           58 
    9100   0.39673175   -7.2736716     3779.154           57 
    9200    0.4047043   -7.2669921    3778.8802           50 
    9300   0.39693272   -7.2657262    3785.3026           46 
    9400   0.40361589   -7.2686911    3768.9428           40 
    9500   0.39448925   -7.2835491    3785.0832           37 
    9600   0.41124999   -7.2864788    3785.3152           39 
    9700    0.4003278   -7.2648813    3780.8262           59 
    9800   0.39539564   -7.2830834    3778.0381           62 
    9900   0.40411894   -7.2790201    3778.9626          115 
   10000   0.39871493   -7.2656244    3780.5148           72 
   10100   0.39825222   -7.2783123     3780.232           62 
   10200   0.39768535   -7.2979688    3783.2225           76 
   10300    0.4019943   -7.2733106    3770.3557           74 
   10400   0.39798519   -7.2683053    3778.8692           96 
   10500   0.39668642   -7.2934434    3776.7441          152 
   10600   0.38957807   -7.2806424    3783.0036          154 
   10700   0.39851526   -7.2744599    3778.5774          163 
   10800   0.38664332   -7.2756871    3776.9213          193 
   10900   0.39862103   -7.2764781    3781.6248          135 
   11000   0.40825857   -7.2853432    3777.8646          209 
   11100   0.39325483   -7.2848876    3779.3963          226 
   11200   0.40091283    -7.278073    3780.9023          194 
   11300   0.40667478   -7.2852923    3784.2011          148 
   11400   0.40799772   -7.2910681    3776.1106          157 
   11500   0.39626077   -7.2767422    3775.8656          232 
   11600   0.40649715   -7.2854757    3784.0836          162 
   11700   0.39618504   -7.2871351     3779.877          263 
   11800   0.39354699    -7.272281    3769.5211          253 
   11900   0.40296557    -7.277601    3778.3793          310 
   12000   0.40065374   -7.2845762    3780.8022          287 
   12100   0.39796723   -7.2885896    3775.6416          265 
   12200   0.40642376   -7.2953205    3782.8112          272 
   12300    0.3886311   -7.2789506    3779.7244          261 
   12400   0.39806739   -7.2711803    3774.8001          192 
   12500   0.40880835    -7.274144    3781.0129          120 
   12600   0.40015296   -7.2876674    3780.1886          214 
   12700   0.39614194   -7.2902205    3780.1744          295 
   12800   0.40902329   -7.2874797    3774.2036          298 
   12900   0.40069418   -7.3059095    3781.6133          239 
   13000   0.39480889   -7.3005362    3773.0225          267 
   13100   0.40257865   -7.2874599    3776.7071          356 
   13200   0.40701423   -7.2927835    3781.4121          345 
   13300     0.395651   -7.2928248    3775.8361          318 
   13400   0.40470891   -7.2909538    3772.3452          250 
   13500   0.39728296   -7.2827281     3777.029          265 
   13600   0.40120178    -7.282181     3774.953          191 
   13700   0.40203037   -7.2823143    3774.7392          284 
   13800   0.39171785   -7.2955865    3775.3128          354 
   13900   0.39932621   -7.2918969    3776.3271          278 
   14000   0.40134931   -7.2813445    3777.3381          299 
   14100   0.40669821   -7.2951654    3780.6971          273 
   14200   0.39619599   -7.2957678    3779.0946          232 
   14300   0.40315311   -7.2669266     3770.594          317 
   14400    0.4027864   -7.2927558    3783.1773          355 
   14500   0.39766969   -7.2972846    3779.4257          393 
   14600   0.40166439   -7.2837292    3773.6933          360 
   14700   0.39506619    -7.280642    3778.4866          260 
   14800   0.39746727   -7.2939371    3771.3037          239 
   14900   0.41004207   -7.2932314     3777.629          297 
   15000   0.40248284    -7.290625    3781.3953          275 
   15100    0.4001993    -7.301978    3768.9485          268 
   15200   0.40018589   -7.2964517    3777.5876          200 
   15300   0.40515814    -7.292989    3773.6464          205 
   15400   0.39055378   -7.2983709    3776.5463          188 
   15500   0.40102976   -7.2838669    3771.3479          287 
   15600   0.40069378    -7.293517    3781.5414          293 
   15700   0.40251527   -7.2938353    3777.2145          321 
   15800   0.39860568   -7.2870494    3764.1854          283 
   15900   0.38467334   -7.2973566     3776.011          278 
   16000   0.39965491   -7.2960564    3778.7913          284 
   16100   0.40354924   -7.2854233     3772.164          291 
   16200   0.39635139   -7.3002609    3775.5459          321 
   16300   0.40267157   -7.2875453    3777.8731          311 
   16400    0.4055308   -7.2940819    3771.3129          320 
   16500   0.39704635   -7.3085278      3785.71          309 
   16600   0.40187646   -7.3058283    3767.3173          338 
   16700   0.40120119   -7.2986663    3776.2697          303 
   16800   0.39274159   -7.2930488     3773.441          334 
   16900   0.38996861   -7.2843869    3768.2097          308 
   17000   0.40421517   -7.2884698    3775.9358          284 
   17100   0.40289855   -7.3059002    3778.5132          306 
   17200   0.39493448   -7.2979371    3776.4538          349 
   17300   0.40388263   -7.2813114    3769.8124          344 
   17400   0.40121732    -7.285098    3778.2415          299 
   17500   0.39839661   -7.2962261    3776.5852          374 
   17600   0.40059825   -7.2964614    3770.6978          277 
   17700   0.39515537   -7.2991731    3770.5842          289 
   17800   0.40686228   -7.3043581    3779.0004          469 
   17900   0.39393567   -7.2926003    3771.2214          365 
   18000   0.40614018   -7.2940016    3773.0128          387 
   18100   0.40675507   -7.2981097    3784.8787          360 
   18200   0.40561407   -7.2993813    3769.5699          430 
   18300   0.39861302   -7.2989166    3774.1737          396 
   18400   0.40056552   -7.2947258    3777.5172          260 
   18500   0.39316433   -7.2987483    3775.8283          396 
   18600   0.39795379   -7.3056776    3767.9551          488 
   18700    0.3932702   -7.3202121    3774.0948          387 
   18800   0.39766765    -7.294328    3774.0067          214 
   18900   0.40303402   -7.2854325    3767.1041          343 
   19000   0.39495495   -7.3000628    3772.7293          333 
   19100    0.4073699   -7.3043067    3773.5073          442 
   19200   0.39611954   -7.2941841    3774.8593          494 
   19300   0.39930856   -7.3104773    3768.9881          521 
   19400   0.39913166   -7.3141678    3778.9786          579 
   19500   0.40283259    -7.295534    3767.2477          508 
   19600   0.39471942   -7.2750041    3774.0878          490 
   19700   0.39948367   -7.3034085    3766.1116          525 
   19800   0.38990576   -7.3092135    3777.3601          277 
   19900   0.40050419   -7.2970284    3771.0569          539 
   20000     0.390269    -7.298943    3769.9051          499 
   20100   0.40429324   -7.3057988    3774.1976          477 
   20200   0.40483498   -7.2964367    3768.8474          471 
   20300   0.40052208   -7.2937712    3771.7614          517 
   20400   0.39779585   -7.3074434    3773.8186          540 
   20500   0.40191933   -7.2983303    3768.6207          546 
   20600   0.40637779   -7.3063429    3772.7578          551 
   20700   0.39743991   -7.3058198    3780.1152          468 
   20800   0.40097759   -7.2981009    3771.2035          502 
   20900   0.38313808    -7.287574    3775.2416          549 
   21000   0.40204917   -7.2873098    3770.2414          504 
   21100   0.39745331   -7.3086615    3771.7593          533 
   21200   0.39920064   -7.3073259    3772.9396          477 
   21300   0.40706347   -7.3094395    3770.6577          511 
   21400   0.40397302   -7.3093724    3777.6889          587 
   21500   0.39768221    -7.290284    3767.6367          526 
   21600   0.40999032   -7.2996615    3776.1195          567 
   21700   0.40137732   -7.3074015    3771.0496          587 
   21800    0.4016714   -7.3020362    3766.5434          615 
   21900   0.40843033   -7.3062309    3778.7008          578 
   22000   0.40123452   -7.3102706    3777.5248          588 
   22100   0.40187784   -7.3136754    3766.5803          585 
   22200   0.39470654   -7.3001415    3771.6556          579 
   22300   0.40040203   -7.2968595     3773.084          557 
   22400   0.39138086   -7.3045446    3771.0707          582 
   22500   0.39325673   -7.3043561    3762.8637          575 
   22600   0.39395007   -7.2959021    3770.0372          546 
   22700   0.39798867   -7.3056134    3771.9224          577 
   22800   0.39471641   -7.3155138    3767.8547          613 
   22900   0.39841756   -7.3135903    3773.8161          622 
   23000   0.40482237   -7.3018227     3768.355          578 
   23100   0.39034276    -7.318806    3768.6782          582 
   23200   0.39483812    -7.304961    3767.0789          622 
   23300   0.40080332   -7.3081906    3771.5389          628 
   23400   0.40104458   -7.3063742    3771.7817          521 
   23500   0.38832211   -7.3022106    3766.9164          575 
   23600   0.39458169   -7.2982789    3772.5825          562 
   23700   0.40314739   -7.2989897    3765.8457          627 
   23800   0.39445735   -7.3094265    3769.6818          617 
   23900     0.406128   -7.3111028    3775.8124          583 
   24000   0.39741856   -7.3112913    3773.6213          589 
   24100   0.38692075   -7.3121856    3766.6603          559 
   24200   0.39137813    -7.300163    3769.4812          551 
   24300   0.40210461   -7.3039519    3773.3418          554 
   24400   0.41314223   -7.3048276    3761.7088          536 
   24500   0.39390545   -7.3239996    3780.6081          565 
   24600   0.40277305   -7.3184126     3764.825          574 
   24700   0.40313799   -7.3118771    3771.7456          525 
   24800   0.40137812   -7.3202098    3773.9772          571 
   24900   0.39476906   -7.3122015    3767.5899          646 
   25000    0.3970779   -7.2931692    3764.1631          599 
   25100   0.40932566   -7.3124317    3774.0974          583 
   25200   0.40427223   -7.3331738    3773.6427          639 
   25300   0.40209384   -7.3120634    3765.5134          575 
   25400   0.40625939   -7.3165613     3772.278          614 
   25500    0.4041191   -7.3161983    3771.7773          629 
   25600   0.40107593    -7.317397    3762.4385          631 
   25700   0.40177429   -7.3221642    3775.6411          579 
   25800   0.40024928   -7.3078954    3774.2191          526 
   25900   0.39858545   -7.3103272    3759.4712          635 
   26000   0.39557334   -7.3177946    3771.5794          633 
   26100   0.40637614   -7.3178581    3769.3503          587 
   26200   0.40057904   -7.3071053    3765.7183          623 
   26300   0.39596555   -7.3284215    3771.4252          659 
   26400   0.39434402   -7.3194658     3772.433          606 
   26500   0.39935326   -7.3005698    3765.5254          636 
   26600   0.39318937   -7.3098945    3770.6937          625 
   26700   0.39426946    -7.319163    3767.9719          651 
   26800   0.40325715   -7.3124036     3773.519          684 
   26900   0.40486042   -7.3175078    3764.8161          593 
   27000   0.40862716   -7.3297266    3767.2934          587 
   27100   0.40030546   -7.3217109    3773.1561          621 
   27200   0.41018326   -7.3152213     3774.047          633 
   27300   0.40316568   -7.3126234    3761.6707          580 
   27400   0.40275415   -7.3305941    3771.0928          645 
   27500   0.40890199   -7.3195649    3772.7013          667 
   27600    0.4090576   -7.3208082    3765.8546          607 
   27700   0.39376332   -7.3122451    3767.2098          675 
   27800   0.41019923   -7.3222272    3768.2271          681 
   27900   0.39844153   -7.3295064    3771.6023          638 
   28000   0.40435345   -7.3309794    3773.7526          666 
   28100   0.40677393   -7.3144046     3765.104          641 
   28200   0.40155939   -7.3102719    3765.9752          621 
   28300   0.40095367   -7.3341558    3775.6339          694 
   28400   0.39803098   -7.3231963    3765.4993          584 
   28500   0.40339376   -7.3121232    3769.1453          605 
   28600   0.40146355   -7.3209056    3767.4259          618 
   28700   0.39072388   -7.3151431    3765.6699          563 
   28800   0.40621512   -7.3263941    3771.9447          517 
   28900   0.40553734   -7.3249986    3768.1821          514 
   29000   0.39194304    -7.312421    3756.4453          525 
   29100   0.40054485   -7.3234653    3769.6544          542 
   29200   0.39913226   -7.3161678    3770.9246          559 
   29300    0.3939086   -7.3074421     3761.795          625 
   29400   0.40541607   -7.3317588    3764.8019          581 
   29500   0.40695861   -7.3437927    3764.9857          548 
   29600   0.40208434   -7.3132701    3767.2103          616 
   29700   0.39961252   -7.3207757    3767.9919          636 
   29800   0.39686481   -7.3317608    3767.2118          625 
   29900   0.38600877   -7.3289115    3753.7338          667 
   30000   0.39007031   -7.3211476    3766.7754          643 
   30100   0.39777905   -7.3146297    3767.6398          672 
   30200   0.39467678   -7.3081517     3768.636          606 
   30300    0.3981558   -7.3242393    3762.6991          630 
   30400   0.39798929   -7.3284745    3769.2069          707 
   30500    0.4095668    -7.311158    3763.5104          714 
   30600   0.39393233   -7.3252333    3768.9235          594 
   30700   0.39450751   -7.3307069    3771.6344          606 
   30800   0.40607245   -7.3121863    3759.7344          629 
   30900   0.40440232   -7.3263686    3770.2296          659 
   31000   0.39580881   -7.3263495    3763.1203          656 
   31100   0.39550548   -7.3143137    3765.1018          637 
   31200   0.40603231   -7.3247081    3770.9404          661 
   31300   0.40064117   -7.3287767    3759.6807          704 
   31400   0.38742547    -7.314891     3766.987          674 
   31500   0.40681596   -7.3258555    3768.6722          543 
   31600   0.39853705   -7.3250642    3766.7514          561 
   31700   0.41040788   -7.3243845    3771.3575          578 
   31800   0.40481717    -7.325321    3767.4633          616 
   31900   0.40050869   -7.3231358    3762.4975          600 
   32000   0.40611857   -7.3254915    3771.1468          552 
   32100   0.41174702   -7.3069494    3766.7565          595 
   32200   0.39961336   -7.3210446    3769.3408          586 
   32300   0.39845028   -7.3287081    3763.5172          589 
   32400   0.40803906    -7.325736    3769.0578          632 
   32500   0.41002842   -7.3157026    3761.4719          640 
   32600   0.39712881   -7.3255319    3771.4198          650 
   32700   0.40658205   -7.3272401    3764.5967          673 
   32800   0.40367088   -7.3116948    3766.9775          658 
   32900   0.39842323   -7.3161433    3763.3444          662 
   33000   0.39972583    -7.317931    3761.7079          698 
   33100   0.40097833    -7.327452     3762.866          635 
   33200   0.39387031   -7.3357751    3766.0356          644 
   33300   0.40118393   -7.3240093    3763.9836          669 
   33400   0.40232614   -7.3195867    3760.3706          643 
   33500   0.40208574   -7.3253658    3777.4565          678 
   33600   0.40373329   -7.3303265    3761.3756          626 
   33700   0.39626728   -7.3195464    3764.1338          674 
   33800    0.4113384   -7.3304858    3768.8506          627 
   33900   0.39930991   -7.3291379    3762.3371          597 
   34000   0.40376552   -7.3254675    3765.6116          731 
   34100   0.40762149   -7.3168145    3770.3244          676 
   34200   0.40441654   -7.3305638    3761.1767          692 
   34300   0.40494523   -7.3396905    3771.7021          666 
   34400    0.4022509   -7.3267507    3766.7308          627 
   34500    0.4034016   -7.3176215    3764.8467          664 
   34600    0.4080293   -7.3210305    3769.4078          718 
   34700   0.39678326   -7.3256055    3766.4816          685 
   34800   0.40454321   -7.3333753    3765.1026          653 
   34900   0.39660047   -7.3094213    3758.5829          716 
   35000   0.40212047   -7.3263466    3767.4343          673 
   35100    0.3970799   -7.3401563      3768.28          726 
   35200   0.38782191   -7.3369439    3765.5769          631 
   35300   0.39578332   -7.3171068    3757.8356          648 
   35400   0.39944015   -7.3237795    3766.5837          664 
   35500   0.39358915   -7.3335698    3762.0341          680 
   35600   0.39915654   -7.3294802    3766.0804          709 
   35700   0.39831808   -7.3268241    3767.4404          734 
   35800   0.39487377   -7.3355168    3765.8179          756 
   35900   0.40274896   -7.3356461    3765.2075          737 
   36000   0.39595084   -7.3160237    3767.2261          723 
   36100   0.40518585   -7.3128239    3766.9017          765 
   36200   0.39670995    -7.327112      3766.99          819 
   36300   0.40079103    -7.332133    3761.9613          858 
   36400   0.39485245   -7.3324727    3754.7601          798 
   36500   0.39454342   -7.3269763    3765.4547          839 
   36600   0.40500179   -7.3341488    3771.2239          800 
   36700   0.39457766   -7.3300802    3765.3182          764 
   36800   0.39396976   -7.3166642    3762.9078          741 
   36900   0.39858795   -7.3264909    3764.4104          781 
   37000   0.39532352    -7.346168     3765.661          777 
   37100   0.40487174   -7.3315967    3767.7499          781 
   37200   0.39950008   -7.3245346    3765.0649          809 
   37300   0.39624828   -7.3265322    3754.4007          794 
   37400   0.39667691   -7.3268588    3767.1856          793 
   37500   0.40347994   -7.3348597    3770.9598          843 
   37600   0.39907934   -7.3340938    3760.1293          816 
   37700   0.39652059    -7.339604     3762.215          881 
   37800   0.40614687   -7.3390639    3769.9805          858 
   37900     0.399721   -7.3370715    3767.9061          824 
   38000   0.40448916   -7.3292352    3764.4885          839 
   38100   0.40134666   -7.3127419    3762.5778          814 
   38200   0.39640339   -7.3350291    3769.7169          766 
   38300   0.40386646   -7.3372092    3758.1266          851 
   38400   0.40693983   -7.3209332    3762.4264          868 
   38500    0.4025936   -7.3373533    3764.1003          865 
   38600   0.38783451   -7.3261109    3769.4493          793 
   38700   0.40037186    -7.311937    3754.8531          870 
   38800   0.39498291   -7.3420487    3762.5927          825 
   38900   0.40128162   -7.3420609    3763.8256          851 
   39000   0.39996477   -7.3290094    3766.4423          826 
   39100    0.4051116   -7.3277911    3764.5226          810 
   39200   0.39522634   -7.3361126    3761.6611          807 
   39300   0.39482456    -7.330676    3763.8063          861 
   39400   0.40686563   -7.3378001    3768.4996          855 
   39500   0.39913685   -7.3323871    3764.7885          741 
   39600   0.40901365   -7.3185142    3763.5746          814 
   39700   0.40075307   -7.3269167    3763.2565          856 
   39800   0.40029918   -7.3354455    3764.3526          874 
   39900   0.40070584   -7.3321188    3766.3361          884 
   40000   0.40024746   -7.3133229    3762.9405          859 
   40100   0.39050751   -7.3209867    3758.8988          826 
   40200   0.39184592   -7.3231244    3765.7789          813 
   40300   0.40935573   -7.3278884    3763.7829          865 
   40400   0.39600742   -7.3394352    3767.3103          817 
   40500   0.39993932   -7.3294937    3767.2429          770 
   40600   0.40628046   -7.3164446    3764.9035          821 
   40700   0.40088644   -7.3318946    3763.0044          799 
   40800   0.40187249   -7.3455533    3765.6056          845 
   40900   0.40327542   -7.3268592    3771.0332          835 
   41000   0.40113455   -7.3220342    3755.6444          813 
   41100   0.39232773    -7.330785    3762.9615          752 
   41200   0.40625137   -7.3357507    3771.4128          801 
   41300   0.40059623   -7.3243298    3761.7041          819 
   41400   0.39985494   -7.3304656    3756.2097          844 
   41500   0.39104948   -7.3329992    3770.9413          766 
   41600   0.40553637   -7.3264047    3760.6809          836 
   41700   0.39722955   -7.3264807    3761.3382          808 
   41800   0.39886099   -7.3343302    3759.0471          845 
   41900   0.39569174   -7.3381072    3759.7869          798 
   42000   0.40379983   -7.3321742    3766.4853          849 
   42100   0.40300118   -7.3349391    3762.3388          865 
   42200   0.40045884   -7.3380534    3759.6224          849 
   42300   0.38652207   -7.3449305    3764.7826          826 
   42400   0.40327019   -7.3414567      3763.45          759 
   42500   0.40376594   -7.3177851    3758.1052          776 
   42600   0.39653721     -7.33611    3768.1472          834 
   42700   0.39334483   -7.3353892    3765.6818          876 
   42800    0.4087982   -7.3204141     3761.573          857 
   42900   0.39588572   -7.3307853    3768.8879          845 
   43000   0.39873967    -7.341121    3763.8175          880 
   43100   0.40111127   -7.3286911    3763.0746          866 
   43200   0.40377217   -7.3259173    3765.4762          730 
   43300   0.40046086   -7.3326699    3761.2052          829 
   43400   0.39398193    -7.333579    3765.2855          807 
   43500   0.40384673   -7.3371511    3765.5656          805 
   43600   0.39756408   -7.3111097    3760.8946          770 
   43700   0.39393849    -7.329125    3762.3362          775 
   43800   0.40657542   -7.3505788    3767.7817          834 
   43900   0.39538603   -7.3339236    3766.2527          818 
   44000   0.40073701   -7.3298198     3762.717          763 
   44100   0.40930505   -7.3347164    3767.4322          745 
   44200   0.39464974   -7.3428462    3770.9307          810 
   44300   0.40505706   -7.3334332    3755.9518          884 
   44400   0.40866468   -7.3305121    3762.4343          845 
   44500   0.39650038   -7.3297675     3766.191          881 
   44600   0.39574223   -7.3382085    3760.2362          877 
   44700   0.40142714   -7.3304482    3761.8623          850 
   44800   0.40506599   -7.3407437    3771.2548          854 
   44900   0.39585445   -7.3429546    3764.0401          822 
   45000   0.40890554   -7.3327391    3758.5482          849 
   45100   0.39929423   -7.3326576    3767.8563          782 
   45200   0.40112129   -7.3282584    3754.0559          840 
   45300   0.40030173   -7.3346054    3768.0535          917 
   45400   0.40766052   -7.3253667    3764.8012          915 
   45500   0.40024152   -7.3234015    3757.4697          901 
   45600   0.40406726   -7.3351388    3760.2895          872 
   45700   0.40832736   -7.3358482    3764.7517          799 
   45800   0.39787405   -7.3347378    3767.3468          823 
   45900   0.39798429   -7.3292206    3758.9306          829 
   46000   0.40156475   -7.3315075    3767.6967          873 
   46100   0.39487589   -7.3360948    3761.9062          848 
   46200   0.39651497   -7.3339049     3764.842          868 
   46300   0.40492699   -7.3311849    3762.5817          852 
   46400   0.39905268   -7.3311478    3764.5237          841 
   46500    0.4032396   -7.3300656    3758.6222          855 
   46600   0.41111099   -7.3374514    3767.1078          818 
   46700   0.38851096   -7.3374379    3772.8266          875 
   46800   0.39998458   -7.3327517    3756.7286          848 
   46900   0.39923606   -7.3448532    3756.3836          848 
   47000   0.40262301   -7.3487639    3767.9195          866 
   47100   0.39726026   -7.3285572    3762.0377          887 
   47200   0.40715644   -7.3284427    3767.9714          899 
   47300   0.40269059   -7.3457554     3766.205          818 
   47400   0.40012303   -7.3362452    3757.8856          852 
   47500   0.40604304   -7.3327307    3758.9574          843 
   47600   0.40341261   -7.3298339    3770.0982          811 
   47700   0.40840523   -7.3212361    3763.2274          861 
   47800   0.40313622   -7.3389228    3763.8052          846 
   47900   0.39113472   -7.3402413    3764.7489          796 
   48000   0.40389596   -7.3339451    3759.0398          821 
   48100   0.40631274   -7.3357336    3765.5881          906 
   48200    0.4019512   -7.3563573    3764.9302          929 
   48300    0.3980162   -7.3358482    3759.8978          894 
   48400   0.39565325   -7.3139325    3755.9129          871 
   48500   0.40163936   -7.3294368    3766.0036          828 
   48600   0.40022531   -7.3435056    3762.6409          852 
   48700   0.39925278     -7.34023    3756.8979          862 
   48800   0.40316882   -7.3396007    3766.4189          853 
   48900   0.39679041   -7.3346791      3764.98          902 
   49000   0.40832226   -7.3148156    3762.5745          896 
   49100   0.39708245   -7.3252613    3767.9007          864 
   49200   0.39458078   -7.3452502    3768.9981          866 
   49300   0.40370311   -7.3345771    3758.3398          880 
   49400   0.40432972   -7.3360077    3761.9122          907 
   49500   0.39358328   -7.3337463    3770.4788          836 
   49600    0.4034254   -7.3257695    3759.3566          866 
   49700   0.39978606   -7.3361097    3760.8557          877 
   49800   0.39186413   -7.3431621    3761.7973          901 
   49900   0.40935944   -7.3423939    3760.6421          837 
   50000   0.40363314   -7.3480192    3770.5805          933 
   50100   0.41271886    -7.333779    3766.4027          877 
   50200   0.39792884   -7.3327651    3761.4558          892 
   50300   0.40097314   -7.3408299    3765.9981          880 
   50400   0.40604878   -7.3221871    3766.3371          947 
   50500    0.4011349   -7.3243387    3759.6497          920 
   50600   0.38259875   -7.3220404     3765.157          848 
   50700   0.39483372   -7.3329582    3760.1373          796 
   50800   0.40478889   -7.3274781    3763.9535          864 
   50900    0.3958846   -7.3393368    3767.3623          839 
   51000   0.38974031   -7.3269073    3761.8038          920 
   51100   0.40045152   -7.3187683    3759.5592          892 
   51200   0.38980641   -7.3345763    3766.0341          883 
   51300   0.40727684   -7.3403363    3759.4533          923 
   51400   0.40524291   -7.3187015    3766.6691          900 
   51500   0.39437094   -7.3275045    3767.1907          949 
   51600   0.39477991   -7.3287137    3756.4277          963 
   51700   0.40394955   -7.3283222    3762.1135          919 
   51800   0.40817199   -7.3377458    3765.8693         1015 
   51900   0.39847321   -7.3395027    3762.2203         1052 
   52000   0.40542315   -7.3294949    3752.1261         1041 
   52100   0.40999607   -7.3327393    3768.7245          996 
   52200   0.40746639   -7.3525988    3768.2284         1066 
   52300   0.40199535    -7.342038      3756.82         1068 
   52400   0.40149689   -7.3306462    3764.2504         1033 
   52500   0.40840223   -7.3400717    3763.6216         1062 
   52600   0.40083788   -7.3342546    3759.1578         1039 
   52700   0.40418404   -7.3423823    3769.7542         1085 
   52800   0.40059873   -7.3315161    3752.3641         1072 
   52900   0.39914638    -7.321026    3767.8264         1086 
   53000   0.40652759   -7.3393882    3761.9065         1116 
   53100    0.3949091   -7.3442921    3765.8881         1084 
   53200   0.39658863   -7.3284641    3761.8881         1111 
   53300   0.40680055   -7.3353597    3761.4733         1073 
   53400   0.39913071   -7.3427269    3763.8328         1115 
   53500   0.39296342   -7.3436419    3757.8527         1131 
   53600   0.40151959   -7.3350607    3763.0846         1099 
   53700     0.395055   -7.3429982    3767.9077         1088 
   53800   0.40921934   -7.3292057    3757.9922         1099 
   53900   0.40253012   -7.3401029    3757.6878         1129 
   54000   0.39536995   -7.3612222    3775.6319         1103 
   54100   0.40880844   -7.3475738    3763.8804         1173 
   54200   0.39614485   -7.3262546    3761.1537         1079 
   54300   0.40434991   -7.3256122    3761.6575         1034 
   54400    0.3959565   -7.3493659    3763.9268         1072 
   54500   0.39530226   -7.3446655    3767.1267         1063 
   54600   0.39889371   -7.3211788    3763.9252         1079 
   54700   0.39969889   -7.3319099    3753.6908         1105 
   54800   0.40170509   -7.3423493    3763.7239         1145 
   54900   0.40743254   -7.3289985    3761.7441         1161 
   55000   0.40788828   -7.3158922    3759.3647         1184 
   55100    0.3982208   -7.3379407    3761.7914         1207 
   55200   0.40600079   -7.3416487    3761.9699         1188 
   55300   0.39586204   -7.3460119    3757.3939         1157 
   55400   0.39950595   -7.3413959     3759.244         1140 
   55500   0.40601458     -7.33948    3758.9481         1247 
   55600    0.4044783   -7.3469983    3759.1871         1223 
   55700    0.3962777   -7.3413116    3761.3106         1236 
   55800   0.40860386   -7.3383384     3764.556         1207 
   55900   0.40377578   -7.3499604    3765.1568         1138 
   56000   0.40201003   -7.3425279    3755.4751         1245 
   56100   0.40492697   -7.3302015     3761.719         1268 
   56200   0.39823757   -7.3270038     3763.611         1211 
   56300   0.40194012   -7.3412664    3758.8676         1224 
   56400   0.40100289   -7.3414246    3758.9718         1198 
   56500   0.39889257   -7.3337694    3758.0886         1208 
   56600   0.41046974   -7.3406319    3764.0685         1176 
   56700    0.3967662   -7.3409056    3762.4286         1154 
   56800   0.40042364     -7.33587     3758.188         1173 
   56900   0.40554091     -7.33705    3758.3823         1164 
   57000   0.39458068   -7.3342406    3760.5684         1151 
   57100   0.40014837   -7.3401207    3762.5484         1166 
   57200   0.40640243   -7.3493241    3760.9557         1200 
   57300   0.39941901   -7.3370363    3762.1912         1150 
   57400   0.39342481   -7.3357152    3765.1194         1199 
   57500   0.39175214   -7.3492282    3759.9468         1136 
   57600   0.39244108   -7.3440306    3761.1977         1180 
   57700   0.40273093   -7.3361117    3761.7804         1214 
   57800   0.39382209   -7.3438208    3765.0074         1222 
   57900   0.39540538   -7.3375243    3763.0662         1174 
   58000   0.40667943   -7.3416657    3758.9438         1170 
   58100    0.3933785   -7.3494688    3761.8841         1187 
   58200   0.39927778   -7.3373315    3760.2078         1197 
   58300   0.40039679   -7.3357738    3760.0987         1198 
   58400   0.39557011   -7.3472283     3757.359         1201 
   58500   0.39370454   -7.3382757    3769.3478         1201 
   58600    0.4000921   -7.3312701    3761.7127         1212 
   58700   0.40136709   -7.3454722    3750.8084         1250 
   58800   0.39923795   -7.3520462    3767.1417         1217 
   58900   0.39977172   -7.3408131    3758.9893         1194 
   59000    0.3949288   -7.3417763    3754.6762         1172 
   59100   0.39312129   -7.3461538    3755.2695         1193 
   59200   0.40222347   -7.3443758    3758.1631         1232 
   59300   0.40075721   -7.3397703    3756.6911         1258 
   59400   0.39737532   -7.3392034    3758.6214         1213 
   59500   0.40202079   -7.3438017    3757.1095         1174 
   59600   0.40258742    -7.348558    3768.4082         1218 
   59700   0.40071129    -7.331363    3758.4002         1277 
   59800    0.3984873   -7.3402125    3760.3752         1221 
   59900   0.39655841   -7.3445555     3756.181         1258 
   60000    0.4055106   -7.3622542    3752.1912         1249 
   60100   0.39625883   -7.3431362    3767.7584         1237 
   60200   0.39624805   -7.3385331    3753.3956         1259 
   60300   0.40332265   -7.3519878    3755.9975         1213 
   60400    0.4026308   -7.3476695    3768.8807         1237 
   60500   0.39643148   -7.3356818     3751.421         1275 
   60600   0.40656438   -7.3367802    3756.9611         1256 
   60700   0.40596152   -7.3438254    3764.3135         1205 
   60800   0.40836331   -7.3531629    3756.4542         1137 
   60900   0.39783533   -7.3532193    3759.5445         1224 
   61000    0.3976864   -7.3413878    3757.8218         1228 
   61100   0.39514002   -7.3278181    3754.9762         1259 
   61200   0.40472562   -7.3457499    3761.9684         1297 
   61300   0.40330631   -7.3511335    3766.9962         1316 
   61400   0.39778241   -7.3489563    3753.0889         1306 
   61500   0.39039134   -7.3407884    3760.0936         1276 
   61600   0.39835222   -7.3383182    3757.9927         1282 
   61700   0.39321222   -7.3435743    3758.0819         1262 
   61800   0.39219181   -7.3490621    3754.1268         1315 
   61900   0.40799124   -7.3480928    3759.9407         1275 
   62000   0.39632342   -7.3510526    3760.7838         1303 
   62100   0.40141456   -7.3459973    3752.2523         1216 
   62200   0.39590369   -7.3340993    3765.7486         1208 
   62300   0.39506034   -7.3485057    3758.5435         1316 
   62400   0.39834351   -7.3514474    3759.0672         1330 
   62500   0.40322885   -7.3384096    3760.6227         1338 
   62600   0.39236403   -7.3463074    3754.2269         1345 
   62700   0.40039958    -7.342583     3755.172         1321 
   62800   0.40223769   -7.3532678     3763.576         1351 
   62900   0.40131195   -7.3503942    3756.5171         1288 
   63000   0.39752146   -7.3321122    3754.3703         1325 
   63100   0.39757184   -7.3453641    3761.0175         1342 
   63200   0.40156598   -7.3515533    3756.5728         1338 
   63300   0.39494944   -7.3625808    3754.1896         1349 
   63400   0.39521796   -7.3593207    3760.7488         1367 
   63500   0.40812355   -7.3595046    3760.6003         1325 
   63600   0.40135945   -7.3589757    3758.6273         1343 
   63700   0.39751134   -7.3465129    3749.7126         1304 
   63800   0.40428131   -7.3448981    3758.6695         1364 
   63900   0.40121018   -7.3569829    3759.6029         1385 
   64000   0.39039457   -7.3518216    3756.7509         1394 
   64100   0.40353846     -7.34383    3758.3008         1343 
   64200   0.40117175   -7.3425945    3750.6296         1350 
   64300   0.39399789   -7.3532265    3753.2797         1386 
   64400   0.40651981   -7.3589643    3764.9787         1365 
   64500   0.39434627   -7.3461074    3756.2629         1387 
   64600   0.40111548   -7.3417291    3756.3218         1389 
   64700   0.40428731   -7.3458333    3761.1023         1400 
   64800   0.39250584   -7.3603276    3763.5384         1399 
   64900   0.40201675   -7.3511083    3757.3452         1389 
   65000   0.39150923   -7.3461108    3752.9587         1435 
   65100   0.39002515   -7.3593298    3755.2454         1440 
   65200   0.40675416   -7.3538572    3757.1029         1415 
   65300   0.40212492   -7.3578617    3761.6938         1426 
   65400   0.39767629   -7.3655274    3756.2526         1410 
   65500   0.40254395   -7.3515742    3756.8049         1391 
   65600   0.40426815   -7.3505164    3763.7167         1419 
   65700   0.39891422    -7.360101    3758.9837         1390 
   65800   0.40042901   -7.3534494    3751.1792         1356 
   65900   0.40281135   -7.3425383    3757.7159         1386 
   66000   0.39034648   -7.3474973    3764.8916         1349 
   66100    0.3980421   -7.3448561    3749.0387         1403 
   66200    0.3989841   -7.3495656    3755.9937         1476 
   66300   0.40166452   -7.3575163    3764.3738         1459 
   66400   0.40174241   -7.3755792    3755.7175         1395 
   66500   0.39747855   -7.3485312    3754.5193         1389 
   66600   0.40213492   -7.3550156    3756.8002         1405 
   66700   0.39927407    -7.358541    3757.6797         1387 
   66800   0.40716523    -7.355272    3758.1211         1462 
   66900   0.39840586   -7.3563524    3757.9307         1440 
   67000   0.40235773   -7.3633497    3756.9363         1424 
   67100   0.40639793   -7.3534962     3757.369         1423 
   67200   0.39816888   -7.3533296    3757.1696         1405 
   67300   0.39320741   -7.3711732    3758.9708         1406 
   67400   0.40095096   -7.3533613    3755.3106         1428 
   67500   0.40266497   -7.3524635    3759.3154         1361 
   67600   0.39807132   -7.3545138     3759.437         1364 
   67700   0.38711069   -7.3521579    3754.5435         1368 
   67800   0.39922348   -7.3500666     3758.498         1376 
   67900   0.41151929   -7.3534583    3752.5029         1389 
   68000   0.39551696   -7.3495504    3754.1291         1430 
   68100   0.40587255   -7.3560367    3757.4386         1393 
   68200   0.39686279     -7.37543    3762.3502         1431 
   68300   0.40067805   -7.3597652    3754.1043         1442 
   68400   0.39869672   -7.3436064    3749.9897         1418 
   68500   0.40346097   -7.3595434    3751.0657         1420 
   68600   0.39337694   -7.3787463    3757.7024         1451 
   68700   0.40166249   -7.3598319    3754.7273         1455 
   68800   0.39116037   -7.3518263    3756.9271         1468 
   68900   0.39656386   -7.3670565    3755.5944         1464 
   69000   0.40214455   -7.3603847    3761.7732         1460 
   69100   0.39957255   -7.3501101     3757.291         1462 
   69200   0.40850275   -7.3583227    3747.4354         1457 
   69300   0.39897212   -7.3643858    3755.8745         1470 
   69400   0.40118251   -7.3522897    3758.3946         1478 
   69500   0.39681905   -7.3579056    3755.1241         1527 
   69600   0.39636244   -7.3667485    3756.5294         1600 
   69700   0.40197311   -7.3530384    3758.9589         1528 
   69800   0.39590674   -7.3484386    3753.2332         1526 
   69900   0.40422577   -7.3714058    3758.9061         1571 
   70000   0.40167444   -7.3739702    3755.5622         1599 
   70100   0.40363059   -7.3524354     3752.789         1597 
   70200   0.40174446   -7.3531053    3750.6787         1557 
   70300   0.39748406   -7.3668045    3758.6723         1537 
   70400   0.40397428    -7.362263    3752.9751         1561 
   70500   0.39988971   -7.3344963    3752.2433         1516 
   70600    0.4010996   -7.3635454    3758.1219         1586 
   70700   0.40088393   -7.3629617    3756.3016         1641 
   70800   0.40349843   -7.3630448     3750.115         1612 
   70900   0.39402819   -7.3774816    3759.6506         1624 
   71000   0.40630378   -7.3634856    3749.0048         1648 
   71100   0.39499014   -7.3585274    3753.3768         1625 
   71200   0.41167554   -7.3639783      3760.58         1635 
   71300   0.39731522   -7.3512375    3749.4439         1621 
   71400   0.39580251   -7.3647852    3754.1313         1659 
   71500   0.39374014   -7.3819366    3751.9918         1703 
   71600   0.40603133   -7.3619914    3748.0868         1701 
   71700   0.40104357   -7.3658064    3760.5808         1717 
   71800   0.39648337   -7.3679072    3746.3774         1700 
   71900   0.40130927   -7.3646595    3749.0512         1707 
   72000   0.39828825   -7.3684624    3756.5474         1682 
   72100   0.40859959   -7.3686437    3757.0896         1677 
   72200   0.40792581   -7.3689843    3753.9263         1668 
   72300   0.39969038    -7.368304    3748.0982         1703 
   72400   0.39940766   -7.3797682    3765.5857         1694 
   72500   0.40104601   -7.3637543     3751.536         1672 
   72600   0.39915988   -7.3706365    3753.0246         1667 
   72700   0.40005076   -7.3587944    3754.7092         1698 
   72800   0.40100041   -7.3663673    3748.9444         1715 
   72900   0.40487972   -7.3756426    3751.3172         1647 
   73000   0.40371968   -7.3666607     3759.446         1674 
   73100   0.40804956   -7.3603986    3749.8987         1661 
   73200   0.39387828   -7.3711154    3756.9065         1579 
   73300   0.40758848    -7.361834    3754.6845         1638 
   73400   0.39595356   -7.3454083    3748.0267         1669 
   73500   0.38734181   -7.3630307    3757.3374         1696 
   73600   0.40300455   -7.3714115    3755.7805         1654 
   73700   0.39322921   -7.3578376     3749.869         1648 
   73800   0.39616753   -7.3710647    3746.4582         1636 
   73900    0.4044109    -7.376205    3760.2956         1665 
   74000   0.39928717   -7.3571158    3755.6679         1671 
   74100   0.39449995   -7.3602672    3750.0255         1675 
   74200   0.39633118    -7.370645    3748.2129         1666 
   74300   0.40742492    -7.366942    3749.9815         1642 
   74400   0.40103854    -7.372324    3757.1963         1641 
   74500   0.39627442   -7.3774776    3750.5335         1733 
   74600   0.39608241   -7.3608044    3745.5723         1692 
   74700   0.40383303   -7.3704131    3756.3456         1693 
   74800    0.3973566   -7.3754938    3753.4556         1701 
   74900   0.40740434   -7.3666633    3746.8287         1671 
   75000   0.40104732   -7.3762214    3755.2123         1732 
   75100   0.39459729   -7.3849194    3752.6635         1690 
   75200   0.39624219   -7.3532973     3744.187         1676 
   75300    0.3874258     -7.36454    3756.7998         1694 
   75400   0.40169913   -7.3674299    3754.0975         1672 
   75500   0.40401956    -7.348514    3744.8729         1718 
   75600   0.39660005   -7.3827956    3758.9919         1720 
   75700   0.40969266   -7.3837104    3752.8182         1742 
   75800   0.40013264   -7.3621634    3756.2009         1746 
   75900   0.40209734   -7.3701251    3754.6172         1745 
   76000   0.40271227   -7.3754955    3749.0104         1710 
   76100   0.40128487   -7.3729665    3750.6924         1724 
   76200   0.40389492   -7.3804064    3749.2457         1700 
   76300    0.3949028   -7.3695988    3744.0032         1705 
   76400   0.40326123   -7.3747818    3758.3168         1746 
   76500   0.40509987   -7.3796138    3756.4381         1757 
   76600   0.40032657   -7.3820308    3745.3277         1786 
   76700   0.40796064   -7.3754208    3745.0013         1738 
   76800    0.3960043   -7.3741959    3756.4067         1730 
   76900    0.4045671   -7.3789748    3749.0824         1750 
   77000   0.39346901    -7.379512    3749.0122         1782 
   77100   0.40536057    -7.377249     3753.005         1774 
   77200   0.40039902   -7.3849724    3753.3459         1797 
   77300   0.40613346   -7.3688601    3742.4972         1811 
   77400   0.40244788   -7.3738532    3751.5584         1813 
   77500   0.39069015   -7.3976835    3756.9368         1792 
   77600   0.39792043   -7.3761971    3740.6581         1824 
   77700   0.39231473   -7.3629464    3752.6361         1802 
   77800   0.40614743   -7.3729197    3751.0736         1807 
   77900   0.39494914   -7.3858809    3750.2448         1814 
   78000    0.3954959   -7.3760552     3750.069         1787 
   78100   0.40266059   -7.3828856    3751.7603         1803 
   78200   0.39478687   -7.3885634     3755.992         1835 
   78300   0.40250524   -7.3675075    3749.6674         1812 
   78400   0.39835341   -7.3675346    3741.3501         1838 
   78500   0.40093303   -7.3872918    3750.3342         1863 
   78600   0.41026193   -7.3842584    3754.0724         1865 
   78700   0.39969735   -7.3823527     3751.119         1921 
   78800   0.40278305   -7.3822044    3745.6973         1875 
   78900   0.40829356   -7.3813969    3756.5798         1848 
   79000   0.40305575   -7.3940263    3749.3304         1897 
   79100   0.39644157   -7.3779451    3746.5415         1893 
   79200   0.40330069    -7.381349    3753.4897         1924 
   79300   0.40011184   -7.3966826     3752.684         1878 
   79400     0.408517    -7.388528    3746.0979         1941 
   79500   0.40336139   -7.3707298    3753.0456         1874 
   79600    0.4021932   -7.3935794    3753.6551         1864 
   79700   0.39855399   -7.3916031    3754.6826         1900 
   79800   0.40392452   -7.3838829    3744.7281         1870 
   79900   0.39506468   -7.3838369    3749.3269         1884 
   80000   0.40751739   -7.3826996    3747.1853         1906 
   80100   0.39783427   -7.3912907    3746.4156         2006 
   80200   0.39634609   -7.3936589    3750.4535         1948 
   80300   0.40572749   -7.3864113    3749.9899         1932 
   80400   0.39120781   -7.3793756      3741.53         1928 
   80500   0.40197852   -7.3860008    3744.6213         1970 
   80600   0.39423499   -7.3831934    3745.6938         1997 
   80700   0.39054776   -7.3975189    3745.0434         2055 
   80800   0.39621698    -7.397986    3755.7777         2050 
   80900   0.41025813   -7.3946238    3747.9455         1993 
   81000   0.40397067   -7.4019049    3742.0362         2039 
   81100   0.39825909   -7.3953882    3744.1896         2003 
   81200   0.39545192   -7.4030257    3761.6298         1969 
   81300    0.4013645   -7.3908888    3737.2959         2013 
   81400   0.40322955   -7.3956991    3745.3852         2010 
   81500   0.39980594   -7.3826383    3753.4166         1965 
   81600   0.40689212   -7.3719276    3746.2648         1997 
   81700   0.39835074   -7.3940933    3746.6723         1969 
   81800   0.39560351   -7.3955021    3746.8765         2019 
   81900   0.40277266   -7.3803507    3746.9576         1983 
   82000   0.39222954   -7.3816828    3740.2868         2002 
   82100   0.39283412   -7.3889777    3743.6893         2044 
   82200   0.39681995   -7.3753407    3742.5149         2024 
   82300   0.41021832   -7.3922694    3744.1389         2061 
   82400   0.38941197    -7.408662    3752.7177         2067 
   82500   0.39804262   -7.3916009    3740.1861         2069 
   82600   0.39810943   -7.3828677    3742.5687         2071 
   82700   0.40826184   -7.3956132    3751.2041         2039 
   82800   0.39760115    -7.400817    3747.3341         2063 
   82900   0.39670102   -7.3735113    3733.2155         2064 
   83000   0.40325497   -7.3762801    3745.6673         2028 
   83100   0.39246387   -7.3875312    3751.3444         1982 
   83200   0.39830787   -7.3797937    3737.4633         2006 
   83300   0.38719885   -7.3986946    3746.6608         2048 
   83400   0.39779014   -7.4032376    3752.3226         2073 
   83500   0.40157586   -7.3917397    3741.2078         2039 
   83600   0.40367392   -7.3863402    3744.3418         2079 
   83700   0.39619197   -7.3874927    3749.4043         2077 
   83800   0.40463826   -7.4052732    3743.7773         2090 
   83900   0.39415372   -7.4033772    3751.1888         2079 
   84000   0.40124641   -7.3914787    3748.2506         2032 
   84100   0.40053704   -7.4029358    3750.9836         2030 
   84200   0.40308679    -7.396031    3743.4066         2028 
   84300   0.38843095   -7.3942209    3740.6645         2069 
   84400   0.38922845   -7.3965735    3744.4827         2050 
   84500    0.3970697   -7.3921362    3748.2169         2099 
   84600   0.40498331     -7.39766    3741.7195         2112 
   84700   0.39265076   -7.3948922    3736.1433         2109 
   84800   0.39906861   -7.4054778    3748.7029         2061 
   84900   0.39691856    -7.401466    3752.1633         2059 
   85000   0.40214204    -7.383753    3748.0687         2087 
   85100   0.39984825   -7.3941718    3744.4142         2093 
   85200   0.39767124   -7.4035844    3745.2562         2107 
   85300    0.4070894   -7.4131064    3747.9673         2094 
   85400   0.40185718   -7.4076728    3740.3002         2092 
   85500   0.40114635   -7.3896202    3742.3495         2121 
   85600   0.40418533   -7.3872132    3747.9355         2103 
   85700   0.40195125   -7.3964044    3736.5402         2119 
   85800   0.39882743   -7.4069478    3745.8551         2118 
   85900    0.4054736    -7.403761    3747.8088         2112 
   86000   0.39572326   -7.3997952    3742.9037         2095 
   86100   0.39869713   -7.4044791     3742.138         2145 
   86200   0.40028047    -7.404803    3757.7953         2165 
   86300   0.40885545   -7.4013903    3738.9869         2148 
   86400    0.3996055   -7.4150214    3744.3061         2171 
   86500   0.40235019    -7.403678    3743.9523         2122 
   86600      0.40373   -7.3942165    3743.4588         2123 
   86700   0.39598489   -7.3996579    3741.5335         2157 
   86800   0.40465997   -7.3991984    3738.6129         2181 
   86900   0.40471753   -7.3931957    3748.2218         2166 
   87000   0.41308472   -7.4197728    3739.7039         2167 
   87100   0.39183047   -7.4099928    3747.7962         2184 
   87200   0.40241232   -7.3981433    3741.2296         2122 
   87300   0.39940765    -7.400991    3742.3787         2169 
   87400   0.39218895   -7.4062012    3742.6499         2172 
   87500   0.39124876   -7.4095114    3739.8121         2167 
   87600   0.40642983   -7.4052161    3735.9732         2173 
   87700   0.40779279    -7.409574    3742.6062         2154 
   87800   0.39362669    -7.406258    3742.7141         2164 
   87900   0.40387818   -7.4086336    3737.3277         2152 
   88000   0.39947546   -7.4021622    3747.1225         2158 
   88100   0.40752123   -7.4140301    3742.3219         2207 
   88200   0.39456358   -7.4133049    3745.5906         2232 
   88300   0.40901027   -7.4026931    3742.7118         2225 
   88400   0.40426027   -7.4125141    3742.8963         2250 
   88500   0.40313272   -7.4162541    3742.5475         2204 
   88600   0.40597746   -7.4123606    3740.2227         2172 
   88700   0.38595078   -7.4030667    3743.1969         2132 
   88800   0.40023576   -7.3963142    3737.4572         2153 
   88900   0.39476913   -7.4044284    3744.2934         2156 
   89000   0.39510943   -7.4088444    3740.0206         2187 
   89100   0.40067272   -7.4004525    3743.0711         2178 
   89200   0.39191668   -7.4142306    3745.7829         2160 
   89300   0.40340064       -7.407    3735.2523         2203 
   89400   0.39213608   -7.4009529    3745.3032         2165 
   89500   0.40431752   -7.4152379    3733.3938         2217 
   89600   0.39358101   -7.4050053    3738.0182         2242 
   89700    0.4024815   -7.4069301    3743.1468         2211 
   89800   0.38810002   -7.4163669    3748.3094         2240 
   89900   0.39471628    -7.400183    3732.4713         2212 
   90000   0.40584808   -7.4049354    3742.3336         2244 
   90100   0.39925245   -7.4142858    3747.0153         2265 
   90200   0.39867728   -7.4099954    3741.0382         2221 
   90300   0.39093704   -7.4171808    3738.2277         2204 
   90400   0.39868917   -7.4176858    3744.8063         2178 
   90500   0.40259808   -7.4021166    3736.2497         2200 
   90600   0.39456356   -7.4067596    3735.6076         2210 
   90700   0.40029529   -7.4201615    3741.1403         2236 
   90800   0.40616851    -7.416819    3746.1466         2192 
   90900   0.41025939   -7.4172857    3738.5397         2252 
   91000   0.39664585   -7.4157244    3736.7471         2247 
   91100   0.40456441    -7.421664     3745.687         2263 
   91200   0.41445859   -7.4163553    3745.2641         2232 
   91300   0.39482285   -7.4103483    3740.9122         2271 
   91400   0.40135251   -7.4108044    3736.5337         2266 
   91500   0.39915816   -7.4103696    3746.5825         2269 
   91600   0.40019129   -7.4129607    3728.9385         2250 
   91700   0.40265332   -7.4180141    3738.9445         2232 
   91800   0.40270194   -7.4037467    3738.6442         2256 
   91900   0.39496402   -7.4068045    3739.2534         2271 
   92000   0.39662375   -7.4270337     3740.594         2277 
   92100   0.39534299    -7.413752    3734.5231         2288 
   92200   0.39356407   -7.4010952    3740.1126         2240 
   92300   0.40704839   -7.4115379    3743.4556         2288 
   92400   0.39045928   -7.4131739    3740.5635         2282 
   92500   0.40229274   -7.4077099    3735.2382         2274 
   92600   0.39440102   -7.4181344    3741.5806         2257 
   92700   0.39019259   -7.4245284    3735.9359         2281 
   92800   0.40390703   -7.4228889    3734.7257         2304 
   92900   0.39490937   -7.4141128    3740.4656         2297 
   93000   0.40377924   -7.4115713    3745.3322         2311 
   93100   0.39987569   -7.4258905    3740.7309         2320 
   93200   0.40498226   -7.4188725    3735.9199         2298 
   93300   0.39561198   -7.4074946    3744.4764         2296 
   93400    0.3993516   -7.4057668    3734.3065         2291 
   93500   0.39725753   -7.4279154    3739.4522         2257 
   93600    0.3980143   -7.4185582    3746.9226         2288 
   93700   0.39402056   -7.4088891    3736.8374         2331 
   93800   0.40025328    -7.417122    3732.8471         2377 
   93900    0.4106177   -7.4232927    3742.4619         2352 
   94000   0.39638436   -7.4214157    3737.8206         2329 
   94100    0.3955371   -7.4136857    3734.8205         2319 
   94200   0.40014557   -7.4180319    3745.1557         2344 
   94300   0.40485342    -7.438851    3732.5196         2391 
   94400   0.40231037   -7.4386706    3739.4319         2389 
   94500   0.40700248   -7.4172768    3731.7884         2391 
   94600   0.40379399   -7.4087124    3739.8757         2381 
   94700   0.40109472   -7.4270079    3741.2093         2393 
   94800   0.40222026   -7.4230497    3732.3288         2415 
   94900   0.40010174   -7.4210972    3742.1136         2416 
   95000   0.40464479   -7.4114605    3738.3294         2379 
   95100   0.40034637   -7.4191023    3732.0516         2468 
   95200   0.38727122   -7.4219161    3739.7365         2378 
   95300   0.39987739   -7.4187652    3740.6982         2420 
   95400   0.40278877   -7.4153149    3735.5702         2392 
   95500   0.39847213   -7.4232298    3737.2847         2368 
   95600   0.39758781   -7.4293933    3748.2648         2390 
   95700   0.39667646   -7.4252692    3735.8693         2394 
   95800   0.39771893   -7.4128609    3727.5663         2408 
   95900   0.40444587   -7.4253538    3735.4676         2425 
   96000   0.40087113   -7.4350847     3739.118         2424 
   96100   0.39478423   -7.4383863     3730.145         2467 
   96200   0.39643101   -7.4306957    3738.9062         2470 
   96300    0.3942763   -7.4188632    3741.0723         2463 
   96400   0.40325489   -7.4293926    3741.3125         2459 
   96500   0.39740915   -7.4287484     3737.054         2526 
   96600   0.38943306   -7.4151655    3732.7929         2563 
   96700    0.3896457   -7.4398315    3737.8078         2508 
   96800   0.40209546   -7.4222009    3732.0861         2488 
   96900   0.39654247   -7.4257373    3743.8516         2471 
   97000   0.39566281   -7.4309436    3727.7166         2452 
   97100   0.39785629    -7.441156    3734.3978         2474 
   97200    0.3980585   -7.4389607    3745.3921         2432 
   97300   0.40399232   -7.4349123    3733.5292         2501 
   97400   0.39605495   -7.4441522    3732.7797         2490 
   97500   0.40158415   -7.4319145     3738.555         2472 
   97600   0.40254982   -7.4314654    3735.1061         2519 
   97700   0.38966262    -7.437384    3734.8562         2506 
   97800   0.39842652   -7.4240298     3726.919         2477 
   97900   0.39540178   -7.4370174    3742.0881         2518 
   98000   0.39203933   -7.4377834    3732.7998         2554 
   98100   0.40023551    -7.430407    3730.7495         2584 
   98200   0.40432212   -7.4373426    3733.6211         2577 
   98300   0.41015387    -7.438409    3743.5333         2574 
   98400   0.40428417   -7.4229109    3732.0636         2609 
   98500   0.40377871   -7.4454843    3737.5469         2615 
   98600   0.40875937   -7.4506571    3738.0492         2608 
   98700   0.39439491   -7.4401042    3733.0229         2585 
   98800   0.39479988   -7.4211035    3729.5677         2555 
   98900   0.39343704   -7.4267857    3742.8257         2559 
   99000   0.39703165    -7.436486    3733.8558         2555 
   99100   0.38304482   -7.4267681    3731.2242         2568 
   99200   0.39665741   -7.4324822    3739.8837         2547 
   99300   0.40390232   -7.4311183    3734.4651         2574 
   99400   0.39984075    -7.432363    3729.3999         2581 
   99500   0.40109338   -7.4407394    3743.4539         2605 
   99600   0.40485797   -7.4312869     3734.404         2614 
   99700   0.39901805   -7.4292916     3725.718         2604 
   99800   0.39258153   -7.4567273    3733.4948         2546 
   99900   0.39296981   -7.4347937    3735.9416         2589 
  100000   0.39932312   -7.4218523      3733.99         2592 
  100100   0.39944859   -7.4381582    3728.8999         2551 
  100200   0.39567762   -7.4379513    3736.3971         2588 
  100300   0.40970875   -7.4373451    3734.9032         2625 
  100400   0.39862391   -7.4441259    3734.3004         2603 
  100500   0.40425088   -7.4338799     3732.026         2634 
  100600   0.38861226   -7.4200851    3737.4573         2628 
  100700   0.40014362   -7.4498553    3725.2655         2639 
  100800   0.39618113   -7.4469667    3738.9121         2622 
  100900   0.40567871   -7.4376074    3731.8368         2636 
  101000   0.39846621   -7.4442648    3734.0022         2578 
  101100   0.39783711   -7.4518684    3736.6886         2553 
  101200    0.3991309   -7.4179965    3725.7147         2570 
  101300   0.39538888   -7.4309823    3734.6381         2543 
  101400   0.39630249   -7.4398043    3734.8959         2585 
  101500   0.40721248   -7.4197928    3731.0218         2588 
  101600   0.39881765   -7.4378312    3735.7612         2581 
  101700   0.39964386   -7.4350703    3731.2591         2600 
  101800   0.41322222    -7.435209    3737.4557         2603 
  101900   0.40370586   -7.4397857    3730.7438         2590 
  102000   0.40107263   -7.4388888    3732.5304         2543 
  102100   0.40869861   -7.4363173    3739.7101         2606 
  102200   0.40132002     -7.44254    3740.5231         2552 
  102300    0.3980223   -7.4343731    3731.8346         2563 
  102400   0.39377943    -7.428023    3729.6551         2584 
  102500   0.40577578   -7.4313006    3738.3522         2606 
  102600   0.40079769   -7.4353851    3734.2152         2569 
  102700   0.40367287   -7.4434808    3735.3811         2632 
  102800   0.39251552   -7.4395804    3732.2675         2587 
  102900   0.39286771   -7.4378742    3733.3838         2610 
  103000   0.40108983   -7.4295892    3735.5516         2597 
  103100   0.40070897   -7.4394824    3727.8222         2626 
  103200   0.39101443   -7.4484342    3736.3825         2609 
  103300   0.40014248   -7.4392748    3731.6649         2640 
  103400   0.39943277   -7.4398641    3730.7983         2648 
  103500   0.40185186   -7.4370329    3737.1105         2661 
  103600   0.40189187   -7.4307341    3733.9757         2660 
  103700   0.39898218   -7.4480515     3731.131         2670 
  103800   0.40427445   -7.4521714    3741.0908         2659 
  103900   0.40507451   -7.4212793    3730.1563         2637 
  104000   0.40241521   -7.4361318    3732.1252         2620 
Loop time of 303.894 on 18 procs for 100000 steps with 4000 atoms

Performance: 56861.934 tau/day, 329.062 timesteps/s
99.6% CPU use with 18 MPI tasks x no OpenMP threads

MPI task timing breakdown:
Section |  min time  |  avg time  |  max time  |%varavg| %total
---------------------------------------------------------------
Pair    | 41.102     | 42.84      | 44.188     |  15.1 | 14.10
Neigh   | 2.9217     | 2.974      | 3.0429     |   2.0 |  0.98
Comm    | 11.247     | 12.96      | 15.555     |  38.2 |  4.26
Output  | 8.7386     | 8.74       | 8.7563     |   0.1 |  2.88
Modify  | 228.55     | 232.06     | 235.94     |  16.3 | 76.36
Other   |            | 4.322      |            |       |  1.42

Nlocal:        222.222 ave         229 max         215 min
Histogram: 3 0 2 1 2 3 2 2 0 3
Nghost:        2456.44 ave        2474 max        2443 min
Histogram: 4 1 1 3 0 4 1 2 1 1
Neighs:        27500.2 ave       28895 max       25408 min
Histogram: 1 0 2 3 1 1 2 2 3 3
FullNghs:      55003.8 ave       56786 max       52816 min
Histogram: 2 0 2 2 1 3 3 1 1 3

Total # of neighbors = 990068
Ave neighs/atom = 247.51700
Neighbor list builds = 3676
Dangerous builds = 0

#clear
#
#next RN
#
#jump SELF
Total wall time: 0:05:06
