
units lj                  # Use reduced LJ style units
atom_style atomic         # Uncharged point particles
atom_modify map hash      # Needed for indexing of clusters etc
                          # Used to be able to find where atoms are in relation to each other.

# Define a lattice with which to populate the simulation cell. With units
# set to 'lj' the second argument to the lattice command is the reduced
# density rho* and the spacings are multiples of that required to acheive
# that density. Also define a simulation cell called 'box' in lattice units
# and fill it with atoms. Here we're creating a box which is ten lattice
# constants in each direction.
lattice fcc 1.0 spacing 1 1 1                 # All equal sizes - gives the right reduced density.
Lattice spacing in x,y,z = 1.5874011 1.5874011 1.5874011

region box block 0 10 0 10 0 10 units lattice # Defines a region, "box", in lattice units
create_box 1 box                              # Creates a simulation box as specified above,
Created orthogonal box = (0.0000000 0.0000000 0.0000000) to (15.874011 15.874011 15.874011)
  3 by 4 by 4 MPI processor grid
                                              # with one type of atom
create_atoms 1 box                            # Creates particles on lattice points
Created 4000 atoms
  using lattice units in orthogonal box = (0.0000000 0.0000000 0.0000000) to (15.874011 15.874011 15.874011)
  create_atoms CPU = 0.003 seconds


# Set the mass of the first (and only) atom type.
mass 1 1.0

# Lennard-Jones interactions between particles, 3.5 sigma cut-off. Apply
# long range tail corrections to energy and pressure and set all coefficients
# to unity since we work in reduced units here. Note that this doesn't shift
# the potential such that it goes to zero at the cutoff. That would require
# pair_modify('shift', 'yes').
pair_style lj/cut  3.5      # non-GPU version
pair_modify tail  yes
pair_coeff 1  1  1.0  1.0   # Intearaction between 1 and 1 set with epsilon = 1 and sigma = 1

write_data data.*
System init for write_data ...
Neighbor list info ...
  update every 1 steps, delay 10 steps, check yes
  max neighbors/atom: 2000, page size: 100000
  master list distance cutoff = 3.8
  ghost atom cutoff = 3.8
  binsize = 1.9, bins = 9 9 9
  1 neighbor lists, perpetual/occasional/extra = 1 0 0
  (1) pair lj/cut, perpetual
      attributes: half, newton on
      pair build: half/bin/atomonly/newton
      stencil: half/bin/3d
      bin: standard

#############################
#   M E L T   S Y S T E M   #
#############################

velocity all create 2.4 6583654 mom yes dist gaussian # Assign velocities
                                                    # Temperature 2.4, random number seed, zero linear momentum
						                                                        # Gaussian distribution

timestep 0.002   # simulation timestep
thermo 1000       # output thermodynamic data every 1000 steps

# Define a fix  in this case with index 1 applied to all
# particles in the simulation. This fix is for simulations
# in the anisotropic NPT ensemble. Note that we use the MTK
# correction.
fix 1 all npt temp 2.4 2.4 0.1 iso 5.68 5.68 0.5 mtk yes tchain 5 pchain 5 # Use NPT ensemble
                                                                         # Set temperature and pressure and damping
                                                                         # Numbers of thermostats in chain and in barostat
run 1000         # run for 10000 steps
Per MPI rank memory allocation (min/avg/max) = 3.642 | 3.644 | 3.648 Mbytes
Step Temp E_pair E_mol TotEng Press Volume 
       0          2.4   -8.3859253            0   -4.7868253   -2.2405722         4000 
    1000    2.3598253   -4.4579732            0  -0.91912021    5.7048558     5164.517 
Loop time of 0.248749 on 48 procs for 1000 steps with 4000 atoms

Performance: 694677.508 tau/day, 4020.124 timesteps/s
99.2% CPU use with 48 MPI tasks x no OpenMP threads

MPI task timing breakdown:
Section |  min time  |  avg time  |  max time  |%varavg| %total
---------------------------------------------------------------
Pair    | 0.091704   | 0.10045    | 0.12053    |   1.7 | 40.38
Neigh   | 0.017652   | 0.018662   | 0.022491   |   0.7 |  7.50
Comm    | 0.05728    | 0.081902   | 0.095888   |   2.6 | 32.93
Output  | 2.4407e-05 | 2.51e-05   | 3.2517e-05 |   0.0 |  0.01
Modify  | 0.039652   | 0.046122   | 0.056326   |   2.2 | 18.54
Other   |            | 0.001585   |            |       |  0.64

Nlocal:        83.3333 ave          92 max          74 min
Histogram: 1 2 5 4 5 15 8 4 3 1
Nghost:        1388.73 ave        1407 max        1372 min
Histogram: 6 1 7 7 5 2 9 6 1 4
Neighs:        7379.69 ave        8441 max        6080 min
Histogram: 1 0 2 9 5 12 9 7 1 2

Total # of neighbors = 354225
Ave neighs/atom = 88.556250
Neighbor list builds = 86
Dangerous builds = 12

# Equilibrate just above the melting temperature to avoid step fn in T

fix 1 all npt temp 1.25 1.25 0.1 iso 5.68 5.68 0.5 mtk yes tchain 5 pchain 5
run 1000
Per MPI rank memory allocation (min/avg/max) = 3.642 | 3.644 | 3.648 Mbytes
Step Temp E_pair E_mol TotEng Press Volume 
    1000    2.3598253   -4.4579732            0  -0.91912021    5.7048558     5164.517 
    2000    1.2696682   -5.8381473            0   -3.9341211    5.6425989    4351.2694 
Loop time of 0.214872 on 48 procs for 1000 steps with 4000 atoms

Performance: 804200.358 tau/day, 4653.937 timesteps/s
99.6% CPU use with 48 MPI tasks x no OpenMP threads

MPI task timing breakdown:
Section |  min time  |  avg time  |  max time  |%varavg| %total
---------------------------------------------------------------
Pair    | 0.091646   | 0.099591   | 0.10708    |   1.1 | 46.35
Neigh   | 0.015687   | 0.016295   | 0.017799   |   0.3 |  7.58
Comm    | 0.064121   | 0.074206   | 0.083322   |   1.5 | 34.54
Output  | 2.3044e-05 | 2.3735e-05 | 3.0312e-05 |   0.0 |  0.01
Modify  | 0.019822   | 0.02282    | 0.027398   |   1.5 | 10.62
Other   |            | 0.001935   |            |       |  0.90

Nlocal:        83.3333 ave          93 max          75 min
Histogram: 1 2 6 12 7 8 8 2 1 1
Nghost:        1550.04 ave        1575 max        1524 min
Histogram: 1 1 5 6 9 12 7 5 1 1
Neighs:        8747.10 ave       10033 max        7783 min
Histogram: 1 1 12 9 9 7 4 4 0 1

Total # of neighbors = 419861
Ave neighs/atom = 104.96525
Neighbor list builds = 75
Dangerous builds = 7


# Small amount of linear quench

fix 1 all npt temp 1.25 ${temp} 0.1 iso 5.68 5.68 0.5 mtk yes tchain 5 pchain 5
fix 1 all npt temp 1.25 1 0.1 iso 5.68 5.68 0.5 mtk yes tchain 5 pchain 5
run 2000
Per MPI rank memory allocation (min/avg/max) = 3.643 | 3.645 | 3.648 Mbytes
Step Temp E_pair E_mol TotEng Press Volume 
    2000    1.2696682   -5.8381473            0   -3.9341211    5.6425989    4351.2694 
    3000    1.1383438   -6.0104684            0   -4.3033797    5.7089523    4261.9092 
    4000     1.012718   -6.2309245            0   -4.7122273    6.0583206    4140.0354 
Loop time of 0.441803 on 48 procs for 2000 steps with 4000 atoms

Performance: 782249.561 tau/day, 4526.907 timesteps/s
99.7% CPU use with 48 MPI tasks x no OpenMP threads

MPI task timing breakdown:
Section |  min time  |  avg time  |  max time  |%varavg| %total
---------------------------------------------------------------
Pair    | 0.20097    | 0.21256    | 0.22704    |   1.1 | 48.11
Neigh   | 0.027491   | 0.028671   | 0.031086   |   0.3 |  6.49
Comm    | 0.13731    | 0.15051    | 0.16172    |   1.6 | 34.07
Output  | 4.6755e-05 | 4.823e-05  | 6.131e-05  |   0.0 |  0.01
Modify  | 0.039188   | 0.045324   | 0.053773   |   1.6 | 10.26
Other   |            | 0.004691   |            |       |  1.06

Nlocal:        83.3333 ave          91 max          75 min
Histogram: 2 2 1 10 6 11 6 4 4 2
Nghost:        1608.29 ave        1635 max        1578 min
Histogram: 2 2 5 4 8 7 10 6 2 2
Neighs:        9195.25 ave       10445 max        8053 min
Histogram: 1 0 4 12 11 9 7 2 1 1

Total # of neighbors = 441372
Ave neighs/atom = 110.34300
Neighbor list builds = 127
Dangerous builds = 0

#############################
# F R E E Z E  S Y S T E M  #
#############################

# Define solid atoms. This closely follows ten Wolde  Ruiz-Montero and Frenkel  Faraday Discuss  1996  104  93-110
# Compute components of the per-atom q6 vector
compute q6 all orientorder/atom degrees 1 6 components 6 nnn NULL cutoff 1.3 # compute the Q6 parameter.
                                                                             # Use all neighbours within 1.3 unit cell.

# get number of connections
compute coord_number all coord/atom orientorder q6 0.5

# An atom is solid if it has 8 or more connections (of a possible 14)
variable is_solid atom c_coord_number>=8
group solid dynamic all var is_solid    # Must be dynamic to update
dynamic group solid defined

# do clustering
compute cluster solid cluster/atom 1.3 # Create a cluster where all atoms within are solid and max 1.3 units from another member

# define chunks one chunk per cluster
compute clus_chunks solid chunk/atom c_cluster nchunk every compress yes  # Says which atoms are in which chunk

# count the size of each chunk
compute size_chunks solid property/chunk clus_chunks count


# Find the maximum entry in the vector of chunk sizes
variable max_n equal max(c_size_chunks)


# Thermo style which includes this variable
thermo_style custom step temp pe vol v_max_n

thermo ${N}  # Print the thermo information every 100 steps
thermo 1000  

# Reset the npt fix at a lower temperature (below freezing)
fix 1  all npt temp  ${temp} ${temp}  0.1  iso  5.68  5.68  0.5  mtk yes tchain  5  pchain  5
fix 1  all npt temp  1 ${temp}  0.1  iso  5.68  5.68  0.5  mtk yes tchain  5  pchain  5
fix 1  all npt temp  1 1  0.1  iso  5.68  5.68  0.5  mtk yes tchain  5  pchain  5

dump dmp2 all dcd ${N} traj_${rand}.dcd
dump dmp2 all dcd 1000 traj_${rand}.dcd
dump dmp2 all dcd 1000 traj_462431.dcd


# fix rnuntil all halt ${N} v_max_n >= 3980 error soft message no   # Stop when solidified


run 1000000 # 5000000  # Run for this many steps
Neighbor list info ...
  update every 1 steps, delay 10 steps, check yes
  max neighbors/atom: 2000, page size: 100000
  master list distance cutoff = 3.8
  ghost atom cutoff = 3.8
  binsize = 1.9, bins = 9 9 9
  4 neighbor lists, perpetual/occasional/extra = 1 3 0
  (1) pair lj/cut, perpetual
      attributes: half, newton on
      pair build: half/bin/atomonly/newton
      stencil: half/bin/3d
      bin: standard
  (2) compute orientorder/atom, occasional
      attributes: full, newton on
      pair build: full/bin/atomonly
      stencil: full/bin/3d
      bin: standard
  (3) compute coord/atom, occasional
      attributes: full, newton on
      pair build: full/bin/atomonly
      stencil: full/bin/3d
      bin: standard
  (4) compute cluster/atom, occasional
      attributes: full, newton on
      pair build: full/bin/atomonly
      stencil: full/bin/3d
      bin: standard
Per MPI rank memory allocation (min/avg/max) = 9.367 | 9.371 | 9.376 Mbytes
Step Temp PotEng Volume v_max_n 
    4000     1.012718   -6.2309245    4140.0354            5 
    5000    1.0026424   -6.2685908    4161.4673            6 
    6000   0.99657436   -6.2992144    4159.1831            7 
    7000   0.99673144   -6.2788209    4162.3476            7 
    8000    1.0037355   -6.2842399    4157.5678            8 
    9000    1.0006031   -6.3074207    4142.3156           19 
   10000    1.0334178   -6.2940819    4160.5556            7 
   11000    1.0111698   -6.2651487    4158.8733            4 
   12000   0.99099222   -6.2840903    4141.1474           19 
   13000    1.0004792   -6.2570567     4151.964            5 
   14000   0.97643825   -6.2944256    4149.3742            9 
   15000   0.98563154   -6.2601301    4156.9596            4 
   16000    1.0097691   -6.2902401    4156.9599            8 
   17000    1.0103267   -6.2843983    4157.4336            4 
   18000    1.0100141   -6.2460241    4160.5081            8 
   19000   0.99689269    -6.255908    4156.2218            8 
   20000    0.9997473   -6.2904231     4152.921            6 
   21000   0.99684898   -6.2931175     4150.746            3 
   22000    1.0095836    -6.247069    4171.1871            9 
   23000   0.99333215   -6.2693337    4137.6781           10 
   24000    1.0038115   -6.2644411    4158.4321            3 
   25000    1.0281882   -6.2650681    4167.6262            3 
   26000   0.99945892   -6.2633872    4147.9611            5 
   27000   0.99200878   -6.2501376     4146.054            4 
   28000   0.99117755   -6.2909131    4143.9926            6 
   29000     1.008167   -6.2772722    4156.5085           10 
   30000     1.004451   -6.2745894    4156.7478            3 
   31000   0.98300264   -6.2688958    4149.2522           12 
   32000   0.99887116    -6.274919    4152.7407            4 
   33000    0.9908443    -6.248121    4142.7653            5 
   34000   0.98755646   -6.2561713    4166.8844            3 
   35000   0.98967413   -6.2709341    4161.0393            6 
   36000    1.0180436   -6.2548306    4165.0291            7 
   37000     1.020472    -6.276655    4152.2499            8 
   38000    1.0081329   -6.2798483    4159.9235           10 
   39000    1.0062245   -6.2875746    4150.8545            8 
   40000   0.98118015   -6.2644063    4140.3666            5 
   41000   0.97382441   -6.2566997    4165.5821            5 
   42000   0.97615364   -6.2812414    4146.1313            5 
   43000    1.0240865   -6.2710512    4158.1937            7 
   44000    1.0104227   -6.2898767    4154.0274            4 
   45000   0.97736437   -6.2616661     4159.521            8 
   46000   0.99809424   -6.2792189    4152.2173            8 
   47000   0.99863099   -6.2525575    4170.2735            5 
   48000    1.0046969    -6.283846     4138.982            9 
   49000   0.97760706    -6.278074    4151.1756            6 
   50000    1.0115356   -6.2759341    4160.5774            5 
   51000    1.0083068   -6.2741139    4138.8951            4 
   52000   0.99289637   -6.2920541    4147.3059            4 
   53000     1.009495   -6.2836233    4145.4171           10 
   54000   0.98481941   -6.2888379    4165.0211           11 
   55000    1.0162734   -6.2784366    4159.8403            6 
   56000    1.0048759   -6.2820577     4139.742            4 
   57000    1.0030906    -6.286528    4158.6278            7 
   58000   0.99954662   -6.2684049    4155.1813            6 
   59000    1.0003764   -6.2508319    4153.4956           12 
   60000    1.0004139   -6.3063131    4147.9324           13 
   61000   0.97537836    -6.294672     4157.362            6 
   62000   0.97797382    -6.262804    4152.2358            4 
   63000    1.0042844   -6.2606509     4156.861            4 
   64000   0.98050521   -6.2597719    4151.7771            7 
   65000   0.98909737   -6.2763891     4156.517            6 
   66000   0.98626599   -6.3123474    4135.9655            3 
   67000    1.0056326   -6.2985805    4171.9235            6 
   68000     1.013374    -6.279398    4170.4079            6 
   69000   0.98896949   -6.2636693    4149.0336            7 
   70000   0.99875088   -6.2532788    4151.7921           10 
   71000   0.98732837   -6.2762652     4146.682           10 
   72000    1.0060727   -6.2794894    4166.8555            9 
   73000    1.0186558   -6.2878047    4144.6276            7 
   74000   0.99528923   -6.2657951    4144.8148            6 
   75000    1.0090567   -6.2637872    4143.9386           11 
   76000    1.0068058   -6.2511344    4159.4113            8 
   77000    1.0043964   -6.2863631    4156.4128            7 
   78000    1.0251334   -6.2623198    4155.8044            3 
   79000    1.0034043   -6.2573405    4149.8248           35 
   80000    1.0297054   -6.2816027    4162.3402            8 
   81000   0.99539285   -6.2679477    4151.7008            9 
   82000   0.99695419   -6.2720118    4163.9239            4 
   83000   0.97631157   -6.3084282     4130.778            5 
   84000   0.98652397   -6.2783917    4151.1334            8 
   85000    1.0076688   -6.2729315    4152.4583           13 
   86000    1.0031214    -6.263778     4151.173            4 
   87000   0.99431205   -6.2742744    4156.0374            5 
   88000   0.97955204   -6.2480426    4158.3105           13 
   89000   0.99629164   -6.2925671    4149.8051            8 
   90000   0.99268257   -6.2992283    4154.2867            5 
   91000    1.0008113   -6.2493481     4150.532            7 
   92000   0.98611629   -6.2734806    4145.1902            6 
   93000    1.0001136     -6.26136    4159.0234            3 
   94000    1.0002558   -6.2618385    4145.7368            9 
   95000   0.99718104   -6.2626944    4158.9405            4 
   96000    1.0145859   -6.2735895    4148.4591            8 
   97000    1.0110759   -6.2580407    4155.5869            6 
   98000   0.98386552   -6.2828591     4160.714            7 
   99000    1.0034252   -6.2627273    4148.5576           12 
  100000   0.99149821   -6.2499652    4152.4121            9 
  101000   0.99620354   -6.2749771    4164.0329           10 
  102000   0.99072239   -6.2741024    4149.0176            8 
  103000   0.99365338   -6.2479613    4147.3777            3 
  104000    1.0212853   -6.2506917    4156.9751            6 
  105000   0.99193939   -6.2847876    4146.1969            4 
  106000   0.98321144   -6.2768765    4148.6165            7 
  107000    1.0052156   -6.2983007    4139.9112            8 
  108000   0.97494706   -6.2563647    4162.9342            4 
  109000    1.0017209   -6.2626916    4142.4704            4 
  110000   0.99313739   -6.2620573    4152.4107            6 
  111000    1.0013129   -6.2685356    4163.1768           10 
  112000    1.0000646   -6.2953203    4152.8049            4 
  113000   0.99769014   -6.2360802    4153.4121            4 
  114000    1.0175314   -6.3084203    4159.5797            6 
  115000    1.0068367   -6.2716989    4163.1933            3 
  116000    1.0235584   -6.2747917    4141.0405           19 
  117000    1.0024294   -6.2617691    4148.2513            4 
  118000   0.99436714   -6.2961534    4151.8374            7 
  119000   0.98646666   -6.2674128    4153.9001            5 
  120000    1.0082018   -6.2857959    4148.5269            5 
  121000    1.0018364   -6.2643179    4151.2724           12 
  122000   0.98996109   -6.2746998    4153.2021            4 
  123000   0.99897617   -6.3080595    4135.6365            7 
  124000    1.0036996   -6.2596433    4151.7563            5 
  125000    0.9947772   -6.2686774    4145.0881            7 
  126000    1.0268528   -6.2733284     4130.604            7 
  127000    1.0143246    -6.285715    4154.8807            4 
  128000    1.0034738   -6.2862001    4151.9066           12 
  129000   0.99613365    -6.254679    4153.6968            6 
  130000    1.0008614   -6.2746146    4154.4771            3 
  131000   0.99471153   -6.2878907    4158.1446            5 
  132000   0.99950182    -6.272489    4126.5272            8 
  133000   0.99848807   -6.2696152    4182.9641            8 
  134000    1.0031436   -6.2596646    4141.0448            7 
  135000   0.98654157   -6.2332471    4151.8124            7 
  136000   0.98769319   -6.2901934    4141.3488           10 
  137000    1.0052197   -6.2544708    4157.7483            5 
  138000   0.99671658    -6.284279    4146.4713            7 
  139000   0.98513238   -6.2758386    4149.0227            5 
  140000   0.98711502   -6.2597772    4144.3843            6 
  141000   0.99357986   -6.2847792    4141.7343            3 
  142000     1.013488   -6.2733499    4175.5026            7 
  143000   0.99267329   -6.3114895    4134.0364            7 
  144000   0.97860963   -6.2711896    4173.6624            8 
  145000    0.9965249   -6.2674976    4155.9202            5 
  146000   0.98974211   -6.2573484    4167.6147            7 
  147000    1.0059482   -6.2592212    4150.3294            6 
  148000   0.98281065    -6.306124    4144.4834            6 
  149000   0.98643755   -6.2433227    4172.2212            5 
  150000   0.99469973    -6.224465    4142.0437            6 
  151000   0.99720549   -6.2744427    4137.5573            6 
  152000    1.0016451   -6.2318143    4159.2319            6 
  153000   0.99870793   -6.3067795    4155.4046            7 
  154000    1.0122924    -6.278161    4152.1735            7 
  155000   0.98731975   -6.3248954    4147.5568           11 
  156000     1.005427   -6.2600559    4149.3984           13 
  157000    1.0076911   -6.2698211    4140.7312            9 
  158000    1.0045905   -6.2540419     4145.494            4 
  159000   0.97753672   -6.2846909    4157.8062            3 
  160000    1.0050178   -6.2946962    4145.6616            3 
  161000    1.0193707   -6.2830989    4147.1301           10 
  162000   0.99167625   -6.2457601    4171.3393            5 
  163000   0.99108853   -6.2730017    4150.5418            5 
  164000    1.0129914   -6.2813057    4149.5788            9 
  165000   0.99389062   -6.2695115    4167.7912            4 
  166000   0.98148987   -6.2546828    4145.0505           12 
  167000    1.0087462   -6.2482002    4152.1179            8 
  168000   0.99317614   -6.2418395    4140.1345            6 
  169000   0.98957878   -6.2773012    4138.1555            3 
  170000    1.0075105   -6.2776509    4154.4514            7 
  171000    1.0080171   -6.2907192    4166.3866            6 
  172000    1.0026141   -6.2547357    4139.4972           10 
  173000    1.0018421   -6.2634052    4151.1551           12 
  174000    1.0102673   -6.2979397    4148.2329           14 
  175000    1.0338173   -6.2720902     4149.735           10 
  176000   0.99138004   -6.2769178    4168.4239            6 
  177000    1.0133051   -6.2788157     4139.428            6 
  178000    1.0121671   -6.2719175    4162.3601            5 
  179000   0.99074747   -6.2810896    4163.7778            3 
  180000    0.9896633   -6.3014369      4167.93           12 
  181000   0.98393048   -6.2713444    4149.6068            4 
  182000   0.99715539   -6.2482744    4152.7341            5 
  183000   0.98558133   -6.2869437    4155.7577            7 
  184000    1.0311873   -6.2663771    4158.6929            4 
  185000   0.98932311   -6.3051762    4135.1418           16 
  186000    0.9922329   -6.2746321    4157.2926            5 
  187000   0.99080768   -6.2768624     4146.137            8 
  188000    1.0103889   -6.2820877    4152.5097            5 
  189000   0.99864389   -6.2615868    4159.3214            8 
  190000     1.027585   -6.2604147    4150.5498            6 
  191000   0.98102722   -6.2875384    4142.8748           12 
  192000   0.99459818   -6.2810854    4153.7308           13 
  193000   0.99458622   -6.2616719    4164.3426            5 
  194000    1.0159043    -6.274974    4151.1306           13 
  195000   0.99783752   -6.2894436    4164.1697            8 
  196000   0.99117069   -6.2784581     4162.549            6 
  197000    1.0039844     -6.30151    4145.7629            7 
  198000    1.0215773    -6.298832    4158.8809            8 
  199000   0.98754729    -6.257308    4143.1803            6 
  200000   0.97812848   -6.2707466    4148.8663            9 
  201000   0.98793643    -6.248772    4155.8091            7 
  202000   0.99736424   -6.2662139    4157.8457            4 
  203000    0.9954572    -6.268002    4133.7012            5 
  204000   0.98695222   -6.2645437    4159.4293            9 
  205000   0.97765309   -6.2559006    4153.8336            4 
  206000    0.9994684   -6.2547281    4151.2097            4 
  207000    1.0055981   -6.2632826    4153.8797           10 
  208000    1.0062812   -6.2712712    4154.7879            4 
  209000    1.0043121   -6.2425972    4151.9652            4 
  210000    1.0167414   -6.2589781    4152.6433            4 
  211000     1.008689   -6.2345321    4145.2574            6 
  212000   0.98371822   -6.2751005    4166.1159            8 
  213000    1.0069076   -6.2747601    4140.9381            8 
  214000    1.0112065   -6.2908744    4149.2552           13 
  215000   0.99417635   -6.2710954    4146.3809           10 
  216000   0.99721298   -6.2875298    4165.1268            7 
  217000   0.99114575   -6.2381408     4156.847            6 
  218000    1.0052783   -6.2891235    4159.4358            6 
  219000    1.0120634   -6.2810657    4146.7974            4 
  220000   0.99633398   -6.2858424     4145.191           23 
  221000    1.0184307   -6.3016822    4147.9949            5 
  222000   0.99067569   -6.2662442    4150.4715            7 
  223000   0.99270454    -6.283247    4170.7172            7 
  224000   0.97583307   -6.2922958    4136.2653            4 
  225000    1.0188367   -6.2677508    4174.2788           10 
  226000    1.0300425   -6.2843546    4132.7645            4 
  227000    0.9942679   -6.2922328      4156.22           11 
  228000   0.99724734   -6.2899925    4148.3176            6 
  229000    1.0007598   -6.2533324    4169.7228            8 
  230000    1.0038044   -6.2682408    4149.6972            7 
  231000   0.98905217   -6.2214659     4154.036            7 
  232000    1.0108685   -6.2914357    4148.2538            6 
  233000    1.0376175   -6.2431343    4142.3545            3 
  234000    1.0056123   -6.2552647    4152.1126            7 
  235000   0.98263972   -6.2755308    4153.8642            4 
  236000    1.0027749   -6.2797998     4158.464            6 
  237000    1.0098873   -6.2732896    4167.8799            7 
  238000   0.99189659   -6.2609607    4157.5063           10 
  239000   0.98711216   -6.2727036    4143.1392            7 
  240000   0.97598953   -6.2848046    4155.5088            6 
  241000    1.0016197   -6.2765069     4147.636            5 
  242000    1.0129173   -6.2697759    4165.6686            8 
  243000    0.9967268   -6.2595991    4156.4943            4 
  244000    1.0044443   -6.2942632    4140.7022            8 
  245000    1.0072023   -6.2590385    4150.9303            8 
  246000   0.98658399   -6.2831759    4145.2048           10 
  247000    1.0080811   -6.2504698    4156.7062            5 
  248000    1.0088241   -6.2790785    4160.6058            8 
  249000    1.0057998   -6.2258463    4159.1908            9 
  250000    1.0101384   -6.2703331     4149.107            6 
  251000    0.9907123   -6.2662101    4150.4706            4 
  252000   0.98246372   -6.2604808    4142.4252            4 
  253000   0.99242297   -6.2925087     4137.907            8 
  254000    1.0121861   -6.2290481    4154.2547            8 
  255000    1.0012969    -6.291006    4149.7967           14 
  256000    1.0159241   -6.2844921    4153.4532            6 
  257000    1.0161641   -6.2490426    4150.7613            7 
  258000    1.0111835   -6.2889631    4160.8852            7 
  259000    1.0019854   -6.3232967    4142.4823            5 
  260000   0.98949625   -6.2785525    4149.0442            5 
  261000    1.0096615    -6.261929     4162.905            5 
  262000    1.0182043   -6.2957348    4146.8559           10 
  263000    1.0048767   -6.2690939    4163.6927            4 
  264000    1.0169958   -6.2557956    4164.8352           11 
  265000   0.98747263   -6.2883967    4150.2506            5 
  266000    1.0257425   -6.2634399    4151.1646            8 
  267000    1.0145851   -6.2712948    4164.3149            6 
  268000   0.99117316   -6.2893414    4142.2632           10 
  269000   0.99168017   -6.2760864    4154.5328            8 
  270000   0.99410128   -6.2711476    4178.2054            5 
  271000   0.99271483   -6.3155348    4136.2662            6 
  272000    1.0183025   -6.3074607    4147.6858            7 
  273000    0.9845467   -6.2811293    4163.7964            6 
  274000    1.0001812   -6.2587039    4145.3282            5 
  275000   0.97863174   -6.2644942    4149.3211            8 
  276000    1.0067624   -6.3162258    4135.4484            8 
  277000   0.99908654   -6.2549679    4149.7969            7 
  278000    1.0004522   -6.2801614     4147.775            7 
  279000    1.0084724   -6.2792364    4143.2309            7 
  280000    1.0124744   -6.2960285    4144.6281            5 
  281000   0.99623916   -6.2717295     4141.098            7 
  282000   0.99452759   -6.3039006    4155.2427            5 
  283000    1.0142963     -6.28024    4162.0744           10 
  284000    1.0153707   -6.2623992    4164.5433            9 
  285000    1.0141136   -6.2786623    4140.8853            6 
  286000   0.98984822    -6.314705    4138.7409            9 
  287000    1.0013522   -6.2775282    4174.4466            4 
  288000   0.99831226   -6.2986067    4154.6576            5 
  289000    1.0156648   -6.2917448    4173.2063            7 
  290000    1.0133999    -6.312729    4146.2508           10 
  291000   0.99801838   -6.2587194    4161.3143            9 
  292000    1.0060566   -6.2881949    4144.0513            5 
  293000   0.98605272   -6.2656027    4162.0246            5 
  294000   0.98832811   -6.2494435    4156.0002           15 
  295000    1.0019915    -6.269859    4163.9716           10 
  296000    1.0014835   -6.2549805    4157.1934            4 
  297000    1.0018795   -6.2632494    4158.6119            8 
  298000    1.0015798   -6.2630024    4146.8836           11 
  299000   0.98607677   -6.2492736    4159.5753            5 
  300000   0.98756134   -6.2484829    4167.7071            5 
  301000    0.9955098   -6.2688177    4152.8605            3 
  302000    1.0123711   -6.2927313    4148.5931           10 
  303000    0.9831628   -6.2513526    4167.2519            5 
  304000     1.028664   -6.2745768    4151.2078            3 
  305000    1.0033947   -6.2899976    4136.7451            7 
  306000   0.99831168   -6.2644245    4154.1166            5 
  307000    1.0028259   -6.2844101    4144.0394            8 
  308000   0.98279519   -6.2739095    4132.0869           12 
  309000   0.98726631   -6.3028709     4151.293            6 
  310000   0.97781063   -6.2955744    4147.2027            6 
  311000   0.99452029   -6.2420648    4163.7328            5 
  312000    1.0283026   -6.3033465    4144.2803            5 
  313000   0.97361096     -6.27928    4166.7156            7 
  314000   0.98763845   -6.2665297    4162.9782            8 
  315000    1.0004368   -6.2504583    4152.4626            5 
  316000   0.98969507   -6.3034693     4147.291            3 
  317000    1.0011762   -6.2780561    4142.7441            5 
  318000    1.0012819   -6.2604851    4143.4167            5 
  319000   0.98625793   -6.3000341    4159.2062            6 
  320000   0.99154157   -6.2610333    4148.4713            8 
  321000    1.0064827    -6.284076    4169.4737            3 
  322000    1.0014093   -6.2716826    4158.3152            4 
  323000    1.0132245   -6.2601133    4149.2984            7 
  324000   0.99617741   -6.2452888    4145.3577            6 
  325000    1.0023253   -6.2721986    4149.4522            6 
  326000     1.002249    -6.270367    4162.5711            7 
  327000   0.98470422   -6.2592347    4163.4401            4 
  328000    1.0048547   -6.2597937    4161.5502            6 
  329000    1.0036074    -6.280687    4144.5813            6 
  330000   0.99242962   -6.2634185    4141.8659            7 
  331000   0.97192423    -6.228682    4149.9127            9 
  332000   0.99225408   -6.2547341    4151.9516           11 
  333000    1.0193769   -6.2551591    4147.3369            4 
  334000   0.99355947   -6.2704069    4158.8287            8 
  335000   0.98832416   -6.2900075    4141.9568            3 
  336000   0.98200507   -6.2880569    4132.3308            5 
  337000    1.0246061   -6.2651989    4158.9649            9 
  338000    1.0045994   -6.2716268     4152.434            7 
  339000    1.0168512   -6.2555651    4163.6147            7 
  340000   0.99398703   -6.2793834    4149.8324            8 
  341000   0.98832358   -6.2690152    4160.2993            6 
  342000    1.0057989   -6.2808528    4167.7718            6 
  343000    1.0157046    -6.285333    4158.6092            7 
  344000   0.99736667   -6.2568875    4174.4301            3 
  345000     1.011238   -6.2368683    4183.5195            3 
  346000    1.0184969   -6.3023127    4151.3871            4 
  347000   0.99833044   -6.2666475    4157.3301           16 
  348000    1.0020415   -6.2535805    4148.4658           10 
  349000   0.98749388   -6.2646338    4153.3476            7 
  350000   0.98652619   -6.2706299    4135.7288            5 
  351000     1.000839   -6.3411781     4135.343            8 
  352000   0.98712776   -6.2511806    4153.3566            9 
  353000    1.0012055   -6.2357262    4152.9704            4 
  354000   0.98968534   -6.2649223     4127.521           12 
  355000    1.0002713   -6.2907219    4144.8812            5 
  356000     1.001778    -6.291722    4157.6959            3 
  357000     1.008019   -6.2497836     4157.104            6 
  358000   0.99955397   -6.2745962    4165.0361            7 
  359000    1.0020293    -6.249674    4149.8025            9 
  360000   0.99131125   -6.2914081    4155.3617            7 
  361000    1.0116872   -6.2834712    4170.4294            9 
  362000    1.0080758   -6.3105896    4158.6955           14 
  363000    1.0001929   -6.2821007    4150.4577            6 
  364000    0.9902775   -6.2573053    4153.0766            3 
  365000    1.0264854   -6.2805031    4147.3931            4 
  366000   0.97508733    -6.290006    4153.8604            3 
  367000    1.0104984   -6.2554523    4158.6059            9 
  368000    1.0048622   -6.2739907    4147.4127            5 
  369000   0.98075347   -6.2460422    4159.8774           10 
  370000   0.99004037    -6.253967    4145.5042           22 
  371000     1.005198   -6.2803923     4130.098            5 
  372000   0.99578485    -6.276565    4140.5678            5 
  373000    1.0014209   -6.2726439    4141.5393            8 
  374000   0.98975581   -6.2506566    4140.4504            5 
  375000    1.0143317   -6.3121064    4154.2231            4 
  376000    1.0140193   -6.2619202    4168.5539            6 
  377000    1.0080011   -6.2650463    4157.4648           20 
  378000      1.01424   -6.2898311    4161.0308            7 
  379000   0.99481173   -6.3016547    4147.9539            7 
  380000   0.99832389   -6.2646771     4162.356            7 
  381000   0.99075645   -6.2621037    4156.8989            4 
  382000   0.98131253   -6.2944787    4151.7731            7 
  383000   0.98596872   -6.2707801    4143.7789            8 
  384000   0.99976255   -6.2852452    4145.6397            5 
  385000    1.0089962   -6.2822452    4143.5289           11 
  386000   0.99609886   -6.2497763    4153.3522           10 
  387000    0.9845058   -6.3102946    4145.8987            4 
  388000    1.0105015     -6.27653    4143.9937            4 
  389000    1.0087911   -6.2764055    4145.1967           10 
  390000    1.0053251   -6.2634007    4165.9303            9 
  391000    1.0113953    -6.285685    4157.9171            5 
  392000   0.99606842   -6.2988474     4140.078            5 
  393000    1.0032947   -6.2692831    4148.9317            8 
  394000    1.0004648   -6.2740357    4150.1286           16 
  395000    1.0091684   -6.2693658    4157.9972            6 
  396000    1.0036062   -6.2745908    4168.3909            7 
  397000   0.99715352    -6.258888    4154.7386            3 
  398000   0.98334956   -6.2539065    4168.7817            8 
  399000   0.98190284   -6.2436216    4163.4336            6 
  400000    1.0074253   -6.2920444    4153.3399           11 
  401000   0.99978653   -6.2607601     4155.707            3 
  402000    1.0095788   -6.2694102    4164.4517            8 
  403000    1.0128252   -6.2583275    4159.7424            3 
  404000     1.007767    -6.295724    4155.7403            4 
  405000   0.99356841   -6.2673664    4152.4527            5 
  406000    1.0102801   -6.2722677     4175.993            9 
  407000   0.99275946   -6.2854083    4155.8304            5 
  408000    1.0207004   -6.2674566    4161.1687            8 
  409000   0.99736134    -6.286971    4150.1454            3 
  410000    1.0169077   -6.2931426    4133.8499            9 
  411000   0.98840605   -6.2589977     4133.379            8 
  412000   0.98853637   -6.2944578    4154.6844            8 
  413000   0.96948701   -6.2693473    4149.1371            6 
  414000   0.99873775   -6.2851933    4142.3798            4 
  415000    1.0052345     -6.27668    4138.9152            9 
  416000   0.99580802   -6.2990308    4159.5228           12 
  417000    0.9918607   -6.2756496    4147.6579            6 
  418000   0.98708805    -6.314064    4151.7257           11 
  419000    1.0094557   -6.3117392    4137.1129            3 
  420000   0.99985495   -6.2909478    4150.2799            5 
  421000   0.99166015   -6.2794741    4151.3064            7 
  422000    1.0070355   -6.2486054    4150.1064            7 
  423000    1.0155987   -6.2757892    4166.9016            8 
  424000     1.001535   -6.2634752    4160.1541           17 
  425000    1.0046642   -6.2676411    4153.4918            6 
  426000    1.0097846   -6.2843228     4171.636            7 
  427000    1.0036246   -6.2548528    4159.3342            8 
  428000   0.98540943   -6.2649612    4149.4671           11 
  429000   0.98351563   -6.3122405    4131.7726           16 
  430000   0.99485044   -6.2435145    4145.8033            7 
  431000    1.0012719   -6.2745979    4165.4822            7 
  432000    1.0103064   -6.3121387    4134.5067            7 
  433000    1.0086779   -6.2741028    4158.1795           10 
  434000   0.98322511   -6.2825393     4155.902            9 
  435000   0.99628597   -6.2391976    4157.7631            7 
  436000   0.99719521   -6.2885329    4160.3171            9 
  437000    1.0103773   -6.2685137    4153.1114            5 
  438000   0.99667241   -6.2697475    4155.6437            6 
  439000   0.99133775   -6.2833295    4139.0111            4 
  440000    1.0110731   -6.2660101    4148.4914           10 
  441000   0.99581433   -6.2764222    4149.7853            8 
  442000   0.99541501   -6.2789529    4143.8367            9 
  443000   0.99225631   -6.2829006    4174.7556            9 
  444000    1.0057705   -6.2809337    4148.0205            5 
  445000   0.98198434   -6.2791354    4153.9348            6 
  446000   0.99507437   -6.2844028    4138.4071           10 
  447000   0.99784827   -6.2596419     4157.939            6 
  448000    1.0180685   -6.2238888    4153.6642            8 
  449000    1.0059385   -6.2158542    4130.5012            7 
  450000   0.98224084   -6.2585887    4160.1882            4 
  451000    1.0039562   -6.2340854     4155.208            7 
  452000   0.99128064    -6.291282    4155.8318            8 
  453000    1.0034456   -6.2885606    4156.8224            6 
  454000   0.99869354    -6.267971    4148.5013            4 
  455000   0.98823694   -6.2646287     4160.037            6 
  456000   0.99375694   -6.2918665    4156.4959            5 
  457000   0.99047882   -6.3129067    4151.7087            4 
  458000   0.96396622   -6.2494568    4155.1741            3 
  459000    1.0190365   -6.2936553    4148.9708            5 
  460000   0.99318038   -6.2594984    4154.0182            3 
  461000   0.99529741   -6.2748536    4143.6223            4 
  462000    1.0060761   -6.2633885    4155.7125            7 
  463000    1.0121651   -6.2641792    4154.1332            4 
  464000    1.0261223   -6.2858866    4149.8645            8 
  465000   0.98606763   -6.2822767    4157.1042            7 
  466000   0.99898567   -6.2623731     4166.649            7 
  467000    0.9844949   -6.2710845    4141.3206            6 
  468000    1.0137761   -6.2675046    4148.3123            5 
  469000   0.98499695   -6.2841425    4157.2841           10 
  470000    1.0050525   -6.2845306    4139.3865            6 
  471000   0.99320022   -6.2470281    4163.2151            4 
  472000    0.9784681   -6.2997521    4140.0457            3 
  473000    1.0257141   -6.2708356    4162.9798            5 
  474000   0.97551649   -6.2438575    4166.9904           13 
  475000     1.007195   -6.2863361    4153.3598            3 
  476000    1.0000499   -6.2534262     4141.815           10 
  477000   0.98466822   -6.2758501    4136.8953           13 
  478000    1.0053005   -6.2699165    4158.0316            4 
  479000   0.97791886   -6.2663828    4176.4108            6 
  480000   0.99787622   -6.2647145     4161.777            7 
  481000   0.99712425   -6.2663076    4141.8471            9 
  482000    1.0116858   -6.2639913    4153.2942            6 
  483000     1.010718   -6.2633558    4141.1309            7 
  484000    1.0158604   -6.2672354    4166.9129            5 
  485000   0.98104382   -6.2690399    4139.7202            5 
  486000   0.99128166   -6.2684747    4151.8527           10 
  487000   0.98310589   -6.2597487    4145.3114            9 
  488000    1.0154966    -6.307551    4146.5162           14 
  489000    1.0120494   -6.2918245    4136.4454            8 
  490000    1.0096329   -6.3018685     4155.473           11 
  491000   0.99554873   -6.2804738    4149.9006            4 
  492000     1.006187   -6.2299519    4168.9551            4 
  493000    1.0164299   -6.2525375    4169.6958            4 
  494000    1.0156218   -6.2728722    4150.6205            6 
  495000    0.9928019   -6.2374585    4163.2668            2 
  496000    1.0122249   -6.2667756    4139.9331            6 
  497000    1.0143645   -6.2701469    4162.1012            6 
  498000    1.0032782   -6.2917809    4155.8632            3 
  499000   0.97511065   -6.2712102    4152.2059           10 
  500000    1.0223553   -6.2874779    4137.4526            4 
  501000    1.0020431    -6.285306    4150.4658            5 
  502000    0.9987336   -6.2663138    4147.9556            5 
  503000    1.0128854   -6.2601577    4145.1455            6 
  504000   0.99094663   -6.2487959    4150.9359            7 
  505000    1.0106185   -6.2777047    4162.5923            5 
  506000    1.0136485   -6.2790557    4141.2692            7 
  507000   0.98177952   -6.3026008     4145.451            7 
  508000    1.0109681   -6.2610963    4155.1787            6 
  509000   0.99072018   -6.2800188    4155.1793            5 
  510000   0.99703025   -6.2706235    4162.4039            4 
  511000    1.0009642   -6.2780274    4144.3588            3 
  512000   0.99754016   -6.2670175    4156.1591            5 
  513000    0.9932562   -6.2502944    4156.0405            8 
  514000    0.9863598   -6.2679901    4160.3735           13 
  515000    1.0212497   -6.2795707     4151.375            5 
  516000   0.99066885   -6.2708963    4136.2748            5 
  517000    1.0005183   -6.2746959    4162.6231           13 
  518000   0.98180761   -6.2687026    4135.7836            8 
  519000   0.98463605   -6.2494768    4158.2583           10 
  520000    1.0071554   -6.2827071    4166.8899            6 
  521000     1.021269   -6.2637482    4170.3766            5 
  522000   0.98390396   -6.2637004    4164.3447            3 
  523000    1.0050812   -6.2892534    4140.6791            6 
  524000    1.0012042   -6.3145794    4167.8826            5 
  525000   0.98314024   -6.2811976    4159.1149            6 
  526000    1.0022127   -6.2526997    4151.9011            5 
  527000     1.013939    -6.306887    4144.1366           10 
  528000   0.98245966   -6.2393547    4160.0008            5 
  529000   0.99477859   -6.2716868    4156.4043            4 
  530000     1.005531   -6.2813488    4146.6842            4 
  531000   0.98401782   -6.2906475    4161.2909            4 
  532000    1.0033564   -6.2712267    4158.4467            4 
  533000   0.98640079   -6.2374071     4143.547            7 
  534000    0.9861524   -6.2895652    4152.8009            4 
  535000   0.99412463    -6.303589    4123.1358           14 
  536000   0.99784274    -6.273111    4170.8423            5 
  537000   0.99291767   -6.2954082    4144.4924            5 
  538000   0.99069471    -6.283729    4167.0389           10 
  539000     1.004996   -6.2538094    4132.7759           15 
  540000    1.0089924   -6.2895029     4158.614           10 
  541000    1.0047163   -6.2761223    4147.5166            6 
  542000    1.0024525    -6.253105     4160.615            6 
  543000    1.0202683   -6.2734872    4154.0468            6 
  544000    0.9931423   -6.2859719    4150.6128            6 
  545000    1.0016256   -6.2964948    4143.6641           11 
  546000   0.99260225   -6.2651389    4155.8537            7 
  547000    1.0058252   -6.2570392    4148.2861            8 
  548000    1.0272804   -6.2880253    4134.0534           11 
  549000    1.0111872   -6.2730957    4162.1746            6 
  550000   0.98874176   -6.2771515    4161.1597            5 
  551000    1.0031559   -6.2963252    4130.1543           11 
  552000   0.97186289   -6.2548686    4151.5836            7 
  553000   0.99826575   -6.2885599    4131.6558            6 
  554000     0.977791   -6.2368226    4155.7093            9 
  555000     1.009045   -6.3177698    4133.7874            6 
  556000     1.005724   -6.2751071    4158.2648            5 
  557000   0.98814042   -6.2381944    4162.6871            8 
  558000    1.0169485   -6.2735444    4139.9265            4 
  559000    1.0002934   -6.2610854    4157.0836            7 
  560000   0.98169467   -6.2560381    4138.7457            7 
  561000    0.9996313   -6.2728421    4172.6079            8 
  562000    1.0249489   -6.2970343    4152.0387            8 
  563000    1.0043301    -6.301694    4144.4438            5 
  564000   0.99067525   -6.2717994    4148.4928            4 
  565000    1.0053687   -6.3050266    4126.7753            8 
  566000   0.99479969   -6.2477549      4163.42            8 
  567000   0.97620458    -6.271885    4147.5329           10 
  568000   0.99576048    -6.267695    4131.1886            7 
  569000   0.99265803   -6.2678509    4152.0436           10 
  570000   0.99610788   -6.2772963    4151.8913           15 
  571000    1.0067912   -6.2677482    4142.4261            5 
  572000   0.98489751   -6.2756879    4151.3502            9 
  573000    1.0052469    -6.301058    4136.4413            6 
  574000   0.99325987    -6.278433    4155.2536            8 
  575000   0.99729485   -6.2666844    4147.7214            7 
  576000   0.99848468   -6.2606278     4158.593            8 
  577000    1.0279074     -6.28429    4150.7727            7 
  578000    1.0030705   -6.2785429     4151.518            5 
  579000    1.0262297   -6.2929558    4143.6242            4 
  580000    1.0119225   -6.2977581    4141.4992            3 
  581000    1.0068916   -6.2641465    4160.8716            5 
  582000   0.98449904   -6.2645402    4164.2184            5 
  583000   0.99183742    -6.315888    4161.5042            5 
  584000    1.0001329   -6.2748439      4147.74            5 
  585000   0.97943229   -6.2710069    4127.8975            9 
  586000     1.012344   -6.2883195    4164.1094            7 
  587000   0.97893273   -6.2826338    4149.4973           12 
  588000    0.9800591   -6.2742801    4151.7298            2 
  589000   0.99995182   -6.2457651    4155.2721            3 
  590000   0.97158809   -6.2640093    4153.1824            9 
  591000     0.967993   -6.3037158    4171.1698            8 
  592000   0.98264424   -6.2660465    4167.1971           14 
  593000    1.0085016   -6.2357067    4151.8317            5 
  594000   0.99227588   -6.2893505    4159.4832            4 
  595000   0.97454828   -6.2413885    4152.5883            5 
  596000   0.98475576   -6.2519608    4155.1584            5 
  597000   0.99820758   -6.2829911    4143.2867            5 
  598000    1.0186118    -6.296194    4152.8992            6 
  599000   0.99587893   -6.2626836    4149.2554            5 
  600000    1.0067017   -6.2778248    4161.8881            4 
  601000    1.0096609   -6.3140024     4141.154            4 
  602000    1.0010831   -6.2744251    4155.0479            5 
  603000   0.99272412   -6.2396122    4142.7586            4 
  604000    1.0074501   -6.2655789    4154.2884            3 
  605000    1.0004577   -6.3071577    4136.5077            9 
  606000   0.99051031   -6.2601412    4162.2434            4 
  607000    1.0067899   -6.2712684    4142.9919            8 
  608000   0.99361602   -6.2458948    4155.7752           12 
  609000   0.98588164   -6.2606659    4170.7706            4 
  610000   0.99379156   -6.2554266    4138.0127            6 
  611000    0.9835827    -6.240586    4146.5671            6 
  612000   0.99403024   -6.2716824    4170.2552            6 
  613000    0.9991611   -6.2533428    4150.1587            4 
  614000    1.0026803   -6.2579697    4152.1734            5 
  615000   0.99390894   -6.2520887    4158.0662            8 
  616000   0.98180515   -6.2696319     4134.939           10 
  617000   0.98379683   -6.2333485    4139.5431            4 
  618000   0.99148282   -6.2714077    4144.9467            7 
  619000   0.98788596   -6.2634133    4133.6787            6 
  620000    0.9904368    -6.269343    4164.3296            4 
  621000    1.0026564   -6.2788964    4159.5507            3 
  622000   0.99676134   -6.2492681    4148.3827            5 
  623000    1.0141228   -6.2988104    4165.9006            6 
  624000   0.98543501   -6.2687418    4137.0007           11 
  625000    1.0054136    -6.278478     4142.008            5 
  626000   0.99021076   -6.2982723    4141.2432           11 
  627000   0.98182726   -6.2616026    4163.6877           10 
  628000      1.00799   -6.2868169    4143.8033            8 
  629000    1.0159257   -6.2861432    4136.8813           20 
  630000    1.0073772   -6.3107601     4150.856           10 
  631000   0.99302719   -6.2915314    4140.9973            5 
  632000   0.98089667   -6.2687243    4137.9764            9 
  633000    1.0042192   -6.2711875    4153.0818            7 
  634000    1.0035001   -6.2582302    4154.7556            4 
  635000   0.99993982   -6.2948693    4148.5007            5 
  636000     1.016248   -6.2639998    4154.3319            7 
  637000    1.0038519    -6.282626    4152.4079            7 
  638000    1.0151333   -6.2676036     4141.274           16 
  639000    1.0142643   -6.2908772    4149.5624           10 
  640000   0.99465386   -6.2803692    4149.0174            4 
  641000   0.99443221   -6.2557715    4158.4333            7 
  642000   0.99477911   -6.2639269    4169.1916            6 
  643000   0.99683017   -6.2454811    4142.0154           10 
  644000   0.99536021   -6.2610101    4142.5835            6 
  645000   0.99901609   -6.2382049    4164.9527            7 
  646000    1.0101078   -6.2516229    4162.9277           11 
  647000    1.0068338   -6.2574038    4160.3202            5 
  648000   0.99324993   -6.2257012    4150.2687           12 
  649000    1.0039893   -6.2853331    4145.6403            5 
  650000    1.0021002   -6.2547069    4150.1976            6 
  651000   0.99623188   -6.2409268    4164.9938            3 
  652000     1.000024   -6.2585909    4160.4107            7 
  653000    1.0108505    -6.265437    4142.3876            4 
  654000   0.99834197   -6.2697023    4154.7704            7 
  655000    1.0078202   -6.2278879    4175.7657            4 
  656000   0.97881846   -6.2629007     4164.207            9 
  657000   0.98853664   -6.2725649    4133.9389           23 
  658000    1.0058061    -6.275035    4137.6633            6 
  659000   0.98920726   -6.2620753    4164.8795            9 
  660000    1.0195294   -6.3004224    4139.5585            9 
  661000    1.0036359   -6.2737666    4142.7506            5 
  662000    1.0072064   -6.2781394    4162.1664            7 
  663000   0.96322332    -6.292168    4157.4992            5 
  664000    1.0029119   -6.2556629    4139.8462            4 
  665000     1.014962   -6.2958264    4147.5132            9 
  666000    1.0172918   -6.2774036     4150.959           10 
  667000   0.99950501   -6.2712446    4170.0332            6 
  668000    1.0101456   -6.2952678    4140.2221            9 
  669000   0.99448484   -6.2695516    4163.2226            6 
  670000    1.0356232   -6.2635596    4140.2645            6 
  671000   0.99987984    -6.267062    4150.8362            8 
  672000     1.012861   -6.2856266    4137.5681            4 
  673000   0.99128493     -6.29796    4155.7046            7 
  674000   0.99102543   -6.2791946    4160.2386            3 
  675000    1.0213535   -6.2732271    4151.3142            5 
  676000   0.98801171   -6.2489639    4150.3639            3 
  677000     1.004524   -6.2898628    4166.6353            3 
  678000   0.98885723    -6.278962      4162.76            5 
  679000   0.99950099   -6.2561595    4154.2651            6 
  680000     1.004186   -6.2913597    4135.5119           34 
  681000    1.0089833   -6.2321441    4156.5356           12 
  682000     1.005968    -6.254817    4144.2064           19 
  683000   0.99410931   -6.2613201    4172.9321           12 
  684000   0.99692836   -6.2526198    4144.8556            8 
  685000    0.9780586   -6.2721494    4179.8834            9 
  686000     1.002056    -6.278485    4163.2932            6 
  687000   0.98291539   -6.2335232    4158.9053            6 
  688000   0.98130915   -6.2553431    4139.0975            5 
  689000    1.0257286    -6.258659    4153.7166            5 
  690000      1.00211   -6.2694272    4147.3303            5 
  691000   0.98521373   -6.2860315    4165.2003            3 
  692000      1.01983   -6.2309339    4141.0232           10 
  693000   0.99589089   -6.2581329    4142.0798            9 
  694000    1.0066323   -6.2698319    4153.0212           10 
  695000    0.9905551   -6.2754596    4146.4961            7 
  696000   0.97352687   -6.2479693    4165.9673            7 
  697000    1.0078373   -6.3141563    4139.1621            4 
  698000     1.023082   -6.2794003    4164.3364            8 
  699000    0.9944571   -6.2519254    4152.9849            9 
  700000   0.99189293   -6.2546499    4162.4487           13 
  701000   0.99872558   -6.3045147    4136.7253           10 
  702000    1.0130818   -6.2543826    4168.1828            7 
  703000    1.0131989   -6.2843997    4142.8329            9 
  704000   0.99279238   -6.2578866    4166.1339            9 
  705000   0.99144096    -6.285381     4142.834            4 
  706000    1.0087743    -6.291954    4151.7158            8 
  707000    1.0003849    -6.279302    4156.0206            6 
  708000    1.0220936   -6.3151435    4137.7948           11 
  709000   0.99159212   -6.2518867    4146.3171            9 
  710000   0.99048337   -6.2609142    4142.4131           10 
  711000    0.9884574   -6.2730101      4160.58            5 
  712000   0.99970698   -6.2379283    4142.9911            4 
  713000   0.99360447   -6.2816317    4162.6752           10 
  714000    1.0050209   -6.2709223    4150.0377            4 
  715000   0.99022975   -6.2694801    4166.9565           10 
  716000   0.99741185   -6.2189989    4148.6972            3 
  717000    1.0181163   -6.2922624     4137.047            7 
  718000    0.9921386   -6.2812312     4142.151            6 
  719000   0.99723803   -6.2478076    4148.3049            5 
  720000    1.0030434   -6.2240848    4162.0187           10 
  721000   0.99186146   -6.2923301    4139.6214            9 
  722000    1.0015848   -6.3366654    4134.9178            5 
  723000   0.99621824      -6.2685    4159.3339            8 
  724000    1.0109139   -6.2898859    4149.7264            9 
  725000   0.99441092   -6.2827789    4158.2354            5 
  726000     1.007191   -6.2711045    4141.1162           10 
  727000    1.0281279   -6.2959061    4157.2947            4 
  728000    1.0216437   -6.2854334    4150.8744            5 
  729000    1.0250026     -6.26956    4167.0596            4 
  730000    0.9965672   -6.2784787    4134.6692            7 
  731000   0.98769019   -6.2477425    4158.7373            3 
  732000    1.0106987   -6.2789811    4140.8871            4 
  733000   0.99597042   -6.2437788    4149.0823            5 
  734000   0.99808523   -6.2932037    4148.6761           16 
  735000   0.97913116   -6.2653163    4161.6328            5 
  736000   0.99045656   -6.2974044    4149.6481           20 
  737000    1.0120978    -6.253579    4139.9017            5 
  738000    1.0110723   -6.2721417    4146.9628            7 
  739000   0.98568664   -6.2892085    4156.8917            5 
  740000    1.0061535   -6.2603089    4153.8828            4 
  741000   0.98998346   -6.2882346    4161.6794            9 
  742000    0.9929372   -6.2740116     4148.486            9 
  743000    1.0114993   -6.2577239    4150.6736            5 
  744000   0.99335181   -6.2715429    4156.6281           14 
  745000    1.0147248   -6.2959208    4145.3692            7 
  746000   0.98466977   -6.2833401    4157.1469            5 
  747000   0.98183543   -6.2463564     4147.751            8 
  748000   0.97375564   -6.2548992    4141.4118            4 
  749000    1.0044221   -6.2814017    4159.2196            7 
  750000   0.99465031   -6.2933568    4157.9399            4 
  751000   0.97427643   -6.2915297    4131.4827            5 
  752000   0.97555421   -6.2810845     4158.906           15 
  753000   0.97172383   -6.2414207    4146.0059            5 
  754000    1.0027762   -6.2791033    4159.3562            7 
  755000   0.99891211   -6.2770264    4159.0984            5 
  756000   0.98070055   -6.2481116    4157.6358            4 
  757000     1.003676   -6.2467252    4151.7406            6 
  758000    1.0077901   -6.2227848    4165.2973            9 
  759000   0.99137168   -6.2697549    4160.0376            5 
  760000    0.9910072   -6.2513077    4165.5865           10 
  761000   0.99534678    -6.272666    4141.4824           10 
  762000     1.003338   -6.2538517    4184.1242           14 
  763000    0.9949021   -6.2704183    4163.1129            4 
  764000    0.9803189   -6.3055881    4159.9902           14 
  765000   0.98272553   -6.2587721    4145.8281            4 
  766000     1.003873   -6.2575454    4132.3162            6 
  767000   0.98205694   -6.2560959    4146.3559            7 
  768000    1.0083679   -6.2628454    4149.8028           11 
  769000    0.9964972   -6.2593948    4147.0084            3 
  770000    1.0026248   -6.2933236    4148.6589            6 
  771000   0.99243726   -6.2833076    4146.8931           14 
  772000    1.0096481   -6.2359184    4151.8515            6 
  773000    1.0154142   -6.2638468    4144.4477            5 
  774000   0.98371228   -6.2985176    4163.8483            5 
  775000    1.0119831   -6.2833137    4148.0011            5 
  776000     1.008975   -6.2382893     4148.086            7 
  777000    1.0018502   -6.2817355    4149.9493            5 
  778000   0.99617929   -6.2596826    4154.7854            9 
  779000    0.9850232    -6.267877    4146.4995            7 
  780000    1.0108587   -6.2561243    4159.0481            8 
  781000    0.9821249    -6.300936    4143.4304            2 
  782000   0.99888457   -6.2495758    4167.7538            5 
  783000    1.0016499   -6.2698187    4156.2192           11 
  784000   0.99267204   -6.2688085    4156.2329            5 
  785000   0.99033105    -6.254427    4161.1197           10 
  786000    1.0184575   -6.2941119    4153.2749            5 
  787000    1.0075131   -6.2577699    4164.9687            5 
  788000    1.0102416   -6.2326479    4151.8284            5 
  789000    1.0102211   -6.2644635    4150.6208            9 
  790000    1.0110719   -6.2879403    4165.0622            4 
  791000    1.0105324   -6.2752007    4141.6752            6 
  792000    1.0125016   -6.2750573    4174.7921            8 
  793000   0.99834882   -6.2668191    4161.2575            6 
  794000     1.024375   -6.2757347    4149.0152            6 
  795000    1.0279914   -6.2641716    4159.5607           13 
  796000   0.98457145   -6.2503973    4147.0107            6 
  797000   0.99763052   -6.2737706    4145.4291           13 
  798000   0.99636596    -6.257846    4145.3382           30 
  799000    1.0127338   -6.2626745    4168.9781            9 
  800000   0.99813092   -6.2703386    4148.0576            5 
  801000    0.9901794   -6.2553395    4156.5409            6 
  802000    1.0220208   -6.2664805    4160.4613           13 
  803000   0.97627836   -6.2635034    4159.3024            5 
  804000    1.0054485   -6.2795147    4159.2704            7 
  805000      1.02045    -6.280387    4158.0635            4 
  806000    1.0127446   -6.2931717    4146.0994            7 
  807000    1.0121796    -6.278818    4160.7202            7 
  808000    1.0120715   -6.2694603    4151.9179            3 
  809000   0.97538079   -6.2623342    4154.6855           10 
  810000   0.99197585   -6.2655249    4137.6175            6 
  811000    1.0032273   -6.2906477    4139.5997            3 
  812000     1.012504   -6.2604464    4140.0176           11 
  813000    1.0067837   -6.2980234     4147.389           11 
  814000    1.0109296   -6.3017621    4155.5756           10 
  815000    1.0091727   -6.2545244    4155.9103            5 
  816000    1.0008319   -6.2838394    4137.2175           13 
  817000   0.99119892   -6.2599025    4158.7074           15 
  818000   0.98693765   -6.2717506     4142.868            5 
  819000    1.0057859   -6.2558985    4164.5644            9 
  820000    1.0054213   -6.2604991     4160.701            9 
  821000     1.008299   -6.2489771    4132.7048           12 
  822000    1.0125021   -6.2547988     4170.456           10 
  823000     1.001535   -6.2762832    4156.6659            7 
  824000   0.99984145   -6.2801863    4149.8318            7 
  825000   0.99360571   -6.2831252    4163.1397            8 
  826000   0.96284764   -6.2833436    4144.4595            5 
  827000   0.99614587   -6.2619001    4168.4507            3 
  828000   0.99754802   -6.2650651    4147.6961            5 
  829000   0.99773901   -6.2631402    4171.6462            4 
  830000    1.0221563   -6.2764368    4160.9718            2 
  831000    1.0029782   -6.2872546    4146.3546            6 
  832000    1.0047995   -6.2676119    4163.3612            4 
  833000    1.0006681   -6.2446882    4157.4207            8 
  834000    1.0127136   -6.2695219    4127.7982            8 
  835000    1.0195633   -6.2500561    4167.1527            4 
  836000    1.0050242   -6.2658803    4148.2468            9 
  837000   0.98702443   -6.2475432     4146.599            4 
  838000   0.99622121   -6.2840899    4162.5863            5 
  839000    1.0188247   -6.2340379    4158.4832            3 
  840000   0.99460054   -6.2900687    4140.6267           13 
  841000    1.0140215   -6.2631461    4144.4036           15 
  842000    1.0022607   -6.2293122    4157.2364            8 
  843000    1.0012523   -6.2727445    4143.7123           14 
  844000    1.0006483   -6.2987446    4151.1696           14 
  845000     1.004839   -6.2827065    4146.5003            6 
  846000   0.98471672    -6.279343    4148.3928            5 
  847000   0.99508155   -6.2847682    4149.1256            6 
  848000    1.0089596   -6.2582043    4134.0742            6 
  849000    1.0019553   -6.2995928    4142.4494            7 
  850000    1.0073742   -6.3063855    4143.6835            5 
  851000    1.0186114   -6.3142602    4155.6748            5 
  852000   0.97469476   -6.2931714    4140.8362           15 
  853000      1.00533   -6.2859894    4156.5647            3 
  854000    1.0123458   -6.2523073    4146.7443           10 
  855000   0.99572378   -6.2526695    4160.9412           10 
  856000    1.0120888   -6.2794696    4150.9434            8 
  857000   0.98021306   -6.3053437    4152.9959            8 
  858000     0.987298   -6.2824805     4146.961            5 
  859000    0.9861497   -6.2891421    4160.7631            8 
  860000    1.0133573   -6.2630441    4147.0706            8 
  861000    1.0072375   -6.2775756    4162.1583            6 
  862000     1.005371   -6.2755925    4159.7573            4 
  863000   0.97474278   -6.2935443    4161.5727           15 
  864000   0.99142998   -6.2732209     4146.375            7 
  865000    1.0137769   -6.3098813      4129.34            7 
  866000    1.0006798   -6.2665162    4167.0434            8 
  867000    1.0001096   -6.2961973    4143.7107            4 
  868000   0.97994842   -6.2565273    4158.4593           11 
  869000   0.96894907   -6.2395166    4164.7988            6 
  870000   0.99324667   -6.2938461    4144.6398            7 
  871000   0.98464974   -6.2800012    4155.2652            8 
  872000      1.00807   -6.2484295    4143.8977           13 
  873000   0.99176221   -6.2914872    4171.9633            7 
  874000   0.99113317   -6.2857116    4151.8918            7 
  875000    1.0062144   -6.2556494    4156.7896           17 
  876000   0.98115212   -6.2627215     4148.106           10 
  877000   0.98035985   -6.2758039    4146.7098            6 
  878000    1.0010634   -6.2702309      4159.44            4 
  879000   0.99650265    -6.230391    4164.7831            6 
  880000    1.0026067   -6.2549983    4160.9704            8 
  881000   0.99358172   -6.2125847    4160.3836            9 
  882000   0.99782432   -6.3189354    4148.8039            6 
  883000   0.99250752   -6.2888206    4139.1852           15 
  884000   0.99191931   -6.2438855    4145.3227            6 
  885000    1.0117893   -6.3004224    4163.0036            9 
  886000    1.0240358    -6.255196    4153.0244            3 
  887000   0.99627395   -6.2612906    4138.3103            6 
  888000    1.0101442   -6.2733757     4167.217            3 
  889000    0.9980174   -6.2554504    4158.4708            6 
  890000   0.99753161    -6.253907    4167.6703            4 
  891000   0.99891796   -6.2742018    4159.8702            6 
  892000   0.99478196   -6.2621919    4155.0514            8 
  893000    1.0003511   -6.3009287    4155.3731            3 
  894000    1.0167221   -6.2667768    4145.2571            7 
  895000     1.001921   -6.2721808    4147.5222            5 
  896000    1.0188346    -6.288514    4143.6325            5 
  897000   0.99516831   -6.2770971    4132.8251           10 
  898000    1.0245168   -6.2889655    4141.9954           11 
  899000   0.99496628   -6.2718987    4141.8063            7 
  900000    1.0003978   -6.2592326    4152.1581            5 
  901000    1.0028857   -6.2492434    4151.0714            7 
  902000    0.9986036    -6.274568    4149.3223            4 
  903000   0.98639982   -6.2634912    4160.8142            3 
  904000    1.0053437   -6.3139038    4154.6762            6 
  905000    1.0043937   -6.2697429    4146.9155           19 
  906000    1.0079548   -6.2934517    4150.6824            4 
  907000   0.99379314   -6.2618211    4163.7744            4 
  908000   0.99023019   -6.2707434    4149.7107            6 
  909000    1.0216952   -6.2851458    4146.7076            9 
  910000    1.0074029   -6.2808773    4146.2568            4 
  911000    1.0134054    -6.274051    4146.7424            5 
  912000    1.0086932   -6.2741843    4165.4748            7 
  913000   0.98727715   -6.2763679    4161.8719            5 
  914000    1.0055138   -6.2987527    4136.8916           14 
  915000   0.98108719   -6.2739575    4160.8923            4 
  916000    1.0071188   -6.2686812    4164.1668            7 
  917000   0.99817789   -6.2720786     4149.485            9 
  918000   0.97813552   -6.2707289    4143.8473            4 
  919000   0.99471207   -6.3229666    4151.0432           10 
  920000   0.99556379   -6.2283352    4155.4159            7 
  921000    1.0227578   -6.2611526    4152.7012            7 
  922000   0.98912439   -6.2824289    4157.8997            4 
  923000     1.004916   -6.2878926    4156.4817           14 
  924000   0.99686915   -6.2492664    4170.7854            5 
  925000    1.0054991   -6.3019093    4147.4808            8 
  926000   0.99250214   -6.2547101    4153.7565            6 
  927000    1.0027538   -6.2682917    4153.5307            5 
  928000    1.0209164   -6.2571185    4147.3853            7 
  929000   0.97842017   -6.2192301    4144.9349            5 
  930000    1.0249439   -6.2652536    4134.2632            7 
  931000   0.99848323   -6.2695128    4158.2911            8 
  932000    0.9967387   -6.2714156    4164.9152            8 
  933000    1.0200428   -6.2873934    4154.9353            5 
  934000    1.0005504   -6.2714401    4150.4745            4 
  935000   0.99912655   -6.3036202    4154.1079            9 
  936000    1.0104945   -6.2751008    4153.8592            8 
  937000    1.0185762   -6.2499592     4147.998            5 
  938000   0.99580781   -6.2850056    4135.5117            9 
  939000   0.99426085   -6.3027426     4142.445           16 
  940000   0.99614929   -6.2384062    4158.4386            4 
  941000   0.98780862   -6.2629798    4145.6522            8 
  942000   0.96758906    -6.306828    4140.3663            5 
  943000   0.99718368   -6.2908835    4165.1746            6 
  944000   0.98150961   -6.2892851     4171.339            7 
  945000    1.0191779   -6.2578976    4159.4151            5 
  946000    1.0199439   -6.2688499    4150.5931            7 
  947000    0.9999618   -6.2773086     4161.525            5 
  948000   0.98824485   -6.2711669    4141.6435            6 
  949000   0.99491032   -6.2717062    4158.3494            8 
  950000    1.0139093   -6.2815572    4160.4931            9 
  951000     1.013695   -6.2856057    4128.1634            6 
  952000   0.99896596   -6.2530676    4164.1425           10 
  953000    1.0043569   -6.2587829    4146.0348            7 
  954000   0.98801725    -6.274881    4161.2617            6 
  955000   0.98444008   -6.3005296    4136.0592            7 
  956000   0.98978075   -6.2627252    4146.8771            7 
  957000   0.97862199   -6.2665395    4146.4855            8 
  958000    1.0067903   -6.2870299    4144.8143            6 
  959000   0.99933644   -6.2725956    4169.1648            5 
  960000   0.99485529   -6.2975957    4157.3323            4 
  961000   0.99301104   -6.2791898    4155.1543            7 
  962000    1.0041094   -6.2865704    4150.2989           11 
  963000   0.99482688   -6.3037368    4156.8701           12 
  964000     1.014867   -6.3003435    4143.2767            9 
  965000    1.0061833   -6.2936212    4133.2406            4 
  966000   0.97403408   -6.2385325    4155.0187            7 
  967000   0.99965847   -6.3190594    4156.6756            9 
  968000   0.99543483   -6.2878756    4154.2578            6 
  969000   0.97257131   -6.2751747    4168.5857            6 
  970000   0.99475265   -6.2330043     4164.814            5 
  971000    0.9792845   -6.2305039    4164.9585            7 
  972000    1.0209105   -6.2440443     4173.827            8 
  973000   0.99976308   -6.2907362    4156.3124            8 
  974000   0.99080222   -6.2883471    4143.2347            5 
  975000    1.0105415   -6.2362325    4145.6392           15 
  976000    1.0122175   -6.2501975     4156.326           10 
  977000    1.0046214   -6.3017186    4142.2979           10 
  978000   0.99275742   -6.2902762    4150.1193           11 
  979000      1.00186    -6.266105    4126.4046            6 
  980000   0.99491333   -6.2686571    4151.2212            5 
  981000   0.98302309   -6.2770505    4168.8083           10 
  982000    1.0201181   -6.2785989    4142.7326            6 
  983000    1.0049527   -6.2580327    4152.7775            6 
  984000    1.0071532   -6.2812964    4149.9351            6 
  985000    1.0433996   -6.2754992     4166.475            8 
  986000   0.97800212   -6.2624889    4138.3682            5 
  987000   0.99988897   -6.2671118    4167.2313            8 
  988000      1.01591   -6.2661185    4139.7147            5 
  989000      1.00954   -6.2790641    4134.8997            8 
  990000    1.0044636   -6.2977232    4144.0338            4 
  991000   0.99902509   -6.2426182    4155.2088            3 
  992000   0.99759625    -6.274339    4138.7142            6 
  993000    1.0111825   -6.2625425    4158.3711            9 
  994000    1.0043545   -6.2799532    4152.4101            4 
  995000    1.0020386   -6.2592704    4163.6759            4 
  996000    1.0238528   -6.2607695    4152.1901           11 
  997000     0.995492   -6.2985473    4155.9051           11 
  998000   0.97703745   -6.2408224    4152.3339            7 
  999000    1.0171973    -6.266319    4169.4321           14 
 1000000   0.99986306   -6.3035279    4174.5244            6 
 1001000    1.0042137   -6.2802656    4158.7133            9 
 1002000    0.9877498   -6.2889018    4170.8435            9 
 1003000   0.97910115   -6.2791302     4145.602            6 
 1004000      1.00955   -6.2807567    4149.1931            9 
Loop time of 2090.06 on 48 procs for 1000000 steps with 4000 atoms

Performance: 82677.228 tau/day, 478.456 timesteps/s
99.4% CPU use with 48 MPI tasks x no OpenMP threads

MPI task timing breakdown:
Section |  min time  |  avg time  |  max time  |%varavg| %total
---------------------------------------------------------------
Pair    | 122.54     | 133.13     | 144.09     |  48.7 |  6.37
Neigh   | 14.742     | 14.904     | 15.057     |   1.9 |  0.71
Comm    | 115.53     | 124.58     | 135.74     |  46.1 |  5.96
Output  | 1.2545     | 1.2556     | 1.2716     |   0.2 |  0.06
Modify  | 1785.7     | 1796.5     | 1804.6     |   9.7 | 85.95
Other   |            | 19.7       |            |       |  0.94

Nlocal:        83.3333 ave          90 max          77 min
Histogram: 4 2 3 10 7 5 9 2 2 4
Nghost:        1599.31 ave        1621 max        1580 min
Histogram: 3 1 9 6 5 9 7 4 3 1
Neighs:        9192.56 ave        9914 max        8278 min
Histogram: 1 1 6 1 8 13 5 4 4 5
FullNghs:      18386.0 ave       20045 max       17075 min
Histogram: 5 4 5 7 11 5 3 2 4 2

Total # of neighbors = 882526
Ave neighs/atom = 220.63150
Neighbor list builds = 59717
Dangerous builds = 0

#clear
#
#next RN
#
#jump SELF
Total wall time: 0:34:51
