
units lj                  # Use reduced LJ style units
atom_style atomic         # Uncharged point particles
atom_modify map hash      # Needed for indexing of clusters etc
                          # Used to be able to find where atoms are in relation to each other.

# Define a lattice with which to populate the simulation cell. With units
# set to 'lj' the second argument to the lattice command is the reduced
# density rho* and the spacings are multiples of that required to acheive
# that density. Also define a simulation cell called 'box' in lattice units
# and fill it with atoms. Here we're creating a box which is ten lattice
# constants in each direction.
lattice fcc 1.0 spacing 1 1 1                 # All equal sizes - gives the right reduced density.
Lattice spacing in x,y,z = 1.5874011 1.5874011 1.5874011

region box block 0 10 0 10 0 10 units lattice # Defines a region, "box", in lattice units
create_box 1 box                              # Creates a simulation box as specified above,
Created orthogonal box = (0.0000000 0.0000000 0.0000000) to (15.874011 15.874011 15.874011)
  3 by 4 by 4 MPI processor grid
                                              # with one type of atom
create_atoms 1 box                            # Creates particles on lattice points
Created 4000 atoms
  using lattice units in orthogonal box = (0.0000000 0.0000000 0.0000000) to (15.874011 15.874011 15.874011)
  create_atoms CPU = 0.002 seconds


# Set the mass of the first (and only) atom type.
mass 1 1.0

# Lennard-Jones interactions between particles, 3.5 sigma cut-off. Apply
# long range tail corrections to energy and pressure and set all coefficients
# to unity since we work in reduced units here. Note that this doesn't shift
# the potential such that it goes to zero at the cutoff. That would require
# pair_modify('shift', 'yes').
pair_style lj/cut  3.5      # non-GPU version
pair_modify tail  yes
pair_coeff 1  1  1.0  1.0   # Intearaction between 1 and 1 set with epsilon = 1 and sigma = 1

write_data data.*
System init for write_data ...
Neighbor list info ...
  update every 1 steps, delay 10 steps, check yes
  max neighbors/atom: 2000, page size: 100000
  master list distance cutoff = 3.8
  ghost atom cutoff = 3.8
  binsize = 1.9, bins = 9 9 9
  1 neighbor lists, perpetual/occasional/extra = 1 0 0
  (1) pair lj/cut, perpetual
      attributes: half, newton on
      pair build: half/bin/atomonly/newton
      stencil: half/bin/3d
      bin: standard

#############################
#   M E L T   S Y S T E M   #
#############################

velocity all create 2.4 5833274 mom yes dist gaussian # Assign velocities
                                                    # Temperature 2.4, random number seed, zero linear momentum
						                                                        # Gaussian distribution

timestep 0.002   # simulation timestep
thermo 1000       # output thermodynamic data every 1000 steps

# Define a fix  in this case with index 1 applied to all
# particles in the simulation. This fix is for simulations
# in the anisotropic NPT ensemble. Note that we use the MTK
# correction.
fix 1 all npt temp 2.4 2.4 0.1 iso 5.68 5.68 0.5 mtk yes tchain 5 pchain 5 # Use NPT ensemble
                                                                         # Set temperature and pressure and damping
                                                                         # Numbers of thermostats in chain and in barostat
run 1000         # run for 10000 steps
Per MPI rank memory allocation (min/avg/max) = 3.642 | 3.644 | 3.648 Mbytes
Step Temp E_pair E_mol TotEng Press Volume 
       0          2.4   -8.3859253            0   -4.7868253   -2.2405722         4000 
    1000    2.3797751   -4.4966384            0  -0.92786813    5.4591985    5168.8144 
Loop time of 0.231011 on 48 procs for 1000 steps with 4000 atoms

Performance: 748015.409 tau/day, 4328.793 timesteps/s
99.1% CPU use with 48 MPI tasks x no OpenMP threads

MPI task timing breakdown:
Section |  min time  |  avg time  |  max time  |%varavg| %total
---------------------------------------------------------------
Pair    | 0.089826   | 0.10015    | 0.10697    |   1.1 | 43.35
Neigh   | 0.017303   | 0.018906   | 0.020289   |   0.5 |  8.18
Comm    | 0.067057   | 0.076099   | 0.088593   |   1.5 | 32.94
Output  | 2.5298e-05 | 2.6327e-05 | 3.4144e-05 |   0.0 |  0.01
Modify  | 0.030892   | 0.034282   | 0.037433   |   0.9 | 14.84
Other   |            | 0.001553   |            |       |  0.67

Nlocal:        83.3333 ave          95 max          76 min
Histogram: 5 3 8 10 11 3 4 3 0 1
Nghost:        1390.04 ave        1421 max        1371 min
Histogram: 5 8 6 7 8 4 4 3 1 2
Neighs:        7371.42 ave        8414 max        6707 min
Histogram: 8 7 3 4 13 5 4 1 0 3

Total # of neighbors = 353828
Ave neighs/atom = 88.457000
Neighbor list builds = 87
Dangerous builds = 16

# Equilibrate just above the melting temperature to avoid step fn in T

fix 1 all npt temp 1.25 1.25 0.1 iso 5.68 5.68 0.5 mtk yes tchain 5 pchain 5
run 1000
Per MPI rank memory allocation (min/avg/max) = 3.642 | 3.644 | 3.648 Mbytes
Step Temp E_pair E_mol TotEng Press Volume 
    1000    2.3797751   -4.4966384            0  -0.92786813    5.4591985    5168.8144 
    2000    1.2516439   -5.8169213            0   -3.9399248    5.7560827    4346.0008 
Loop time of 0.213726 on 48 procs for 1000 steps with 4000 atoms

Performance: 808513.285 tau/day, 4678.896 timesteps/s
99.6% CPU use with 48 MPI tasks x no OpenMP threads

MPI task timing breakdown:
Section |  min time  |  avg time  |  max time  |%varavg| %total
---------------------------------------------------------------
Pair    | 0.092335   | 0.099508   | 0.1066     |   0.9 | 46.56
Neigh   | 0.015482   | 0.016141   | 0.018592   |   0.4 |  7.55
Comm    | 0.066001   | 0.073447   | 0.080529   |   1.2 | 34.37
Output  | 2.3187e-05 | 2.4262e-05 | 3.0992e-05 |   0.0 |  0.01
Modify  | 0.018116   | 0.022612   | 0.026687   |   1.4 | 10.58
Other   |            | 0.001993   |            |       |  0.93

Nlocal:        83.3333 ave          89 max          74 min
Histogram: 1 1 1 3 8 4 13 5 8 4
Nghost:        1549.94 ave        1572 max        1533 min
Histogram: 3 3 10 7 6 10 5 1 1 2
Neighs:        8760.96 ave        9501 max        7906 min
Histogram: 1 3 6 6 7 6 6 5 3 5

Total # of neighbors = 420526
Ave neighs/atom = 105.13150
Neighbor list builds = 74
Dangerous builds = 4


# Small amount of linear quench

fix 1 all npt temp 1.25 ${temp} 0.1 iso 5.68 5.68 0.5 mtk yes tchain 5 pchain 5
fix 1 all npt temp 1.25 2 0.1 iso 5.68 5.68 0.5 mtk yes tchain 5 pchain 5
run 2000
Per MPI rank memory allocation (min/avg/max) = 3.643 | 3.645 | 3.648 Mbytes
Step Temp E_pair E_mol TotEng Press Volume 
    2000    1.2516439   -5.8169213            0   -3.9399248    5.7560827    4346.0008 
    3000    1.5826044    -5.369147            0   -2.9958339    5.6571294    4583.0121 
    4000     1.925938   -4.8528658            0    -1.964681    5.4652343     4909.594 
Loop time of 0.425389 on 48 procs for 2000 steps with 4000 atoms

Performance: 812432.415 tau/day, 4701.576 timesteps/s
99.6% CPU use with 48 MPI tasks x no OpenMP threads

MPI task timing breakdown:
Section |  min time  |  avg time  |  max time  |%varavg| %total
---------------------------------------------------------------
Pair    | 0.18264    | 0.19786    | 0.21277    |   1.4 | 46.51
Neigh   | 0.031792   | 0.033064   | 0.036505   |   0.5 |  7.77
Comm    | 0.1286     | 0.14568    | 0.15979    |   1.7 | 34.25
Output  | 4.7883e-05 | 4.9181e-05 | 6.1372e-05 |   0.0 |  0.01
Modify  | 0.039149   | 0.04483    | 0.051088   |   1.4 | 10.54
Other   |            | 0.003905   |            |       |  0.92

Nlocal:        83.3333 ave          91 max          75 min
Histogram: 3 3 2 7 4 12 7 1 5 4
Nghost:        1437.38 ave        1462 max        1418 min
Histogram: 3 4 7 6 7 12 4 1 3 1
Neighs:        7754.17 ave        8500 max        6710 min
Histogram: 1 1 6 2 8 7 7 8 1 7

Total # of neighbors = 372200
Ave neighs/atom = 93.050000
Neighbor list builds = 150
Dangerous builds = 5

#############################
# F R E E Z E  S Y S T E M  #
#############################

# Define solid atoms. This closely follows ten Wolde  Ruiz-Montero and Frenkel  Faraday Discuss  1996  104  93-110
# Compute components of the per-atom q6 vector
compute q6 all orientorder/atom degrees 1 6 components 6 nnn NULL cutoff 1.3 # compute the Q6 parameter.
                                                                             # Use all neighbours within 1.3 unit cell.

# get number of connections
compute coord_number all coord/atom orientorder q6 0.5

# An atom is solid if it has 8 or more connections (of a possible 14)
variable is_solid atom c_coord_number>=8
group solid dynamic all var is_solid    # Must be dynamic to update
dynamic group solid defined

# do clustering
compute cluster solid cluster/atom 1.3 # Create a cluster where all atoms within are solid and max 1.3 units from another member

# define chunks one chunk per cluster
compute clus_chunks solid chunk/atom c_cluster nchunk every compress yes  # Says which atoms are in which chunk

# count the size of each chunk
compute size_chunks solid property/chunk clus_chunks count


# Find the maximum entry in the vector of chunk sizes
variable max_n equal max(c_size_chunks)


# Thermo style which includes this variable
thermo_style custom step temp pe vol v_max_n

thermo ${N}  # Print the thermo information every 100 steps
thermo 1000  

# Reset the npt fix at a lower temperature (below freezing)
fix 1  all npt temp  ${temp} ${temp}  0.1  iso  5.68  5.68  0.5  mtk yes tchain  5  pchain  5
fix 1  all npt temp  2 ${temp}  0.1  iso  5.68  5.68  0.5  mtk yes tchain  5  pchain  5
fix 1  all npt temp  2 2  0.1  iso  5.68  5.68  0.5  mtk yes tchain  5  pchain  5

dump dmp2 all dcd ${N} traj_${rand}.dcd
dump dmp2 all dcd 1000 traj_${rand}.dcd
dump dmp2 all dcd 1000 traj_462431.dcd


# fix rnuntil all halt ${N} v_max_n >= 3980 error soft message no   # Stop when solidified


run 1000000 # 5000000  # Run for this many steps
Neighbor list info ...
  update every 1 steps, delay 10 steps, check yes
  max neighbors/atom: 2000, page size: 100000
  master list distance cutoff = 3.8
  ghost atom cutoff = 3.8
  binsize = 1.9, bins = 9 9 9
  4 neighbor lists, perpetual/occasional/extra = 1 3 0
  (1) pair lj/cut, perpetual
      attributes: half, newton on
      pair build: half/bin/atomonly/newton
      stencil: half/bin/3d
      bin: standard
  (2) compute orientorder/atom, occasional
      attributes: full, newton on
      pair build: full/bin/atomonly
      stencil: full/bin/3d
      bin: standard
  (3) compute coord/atom, occasional
      attributes: full, newton on
      pair build: full/bin/atomonly
      stencil: full/bin/3d
      bin: standard
  (4) compute cluster/atom, occasional
      attributes: full, newton on
      pair build: full/bin/atomonly
      stencil: full/bin/3d
      bin: standard
Per MPI rank memory allocation (min/avg/max) = 9.324 | 9.329 | 9.334 Mbytes
Step Temp PotEng Volume v_max_n 
    4000     1.925938   -4.8528658     4909.594            1 
    5000    2.0294564   -4.8120212    4915.9381            1 
    6000    2.0399842   -4.7521612    4926.1782            1 
    7000     2.017383   -4.8047707    4916.0189       -1e+20 
    8000    2.0056049   -4.8128936    4930.4871            1 
    9000    1.9973147   -4.7785189    4886.9454            1 
   10000    2.0575356     -4.77918    4933.5182            1 
   11000    1.9479098   -4.7621677    4917.7337       -1e+20 
   12000     2.015262   -4.8426657    4941.7946            1 
   13000    2.0146542   -4.7779884    4935.3987            1 
   14000    1.9739311   -4.8552716    4906.5258            1 
   15000    1.9594364   -4.7782744    4907.8905            1 
   16000    2.0055303   -4.7587453    4903.7182            1 
   17000    1.9888819   -4.7388651    4972.9056            1 
   18000     2.023351   -4.8609443    4902.1219            1 
   19000    1.9913128   -4.7688103    4947.3151            1 
   20000    1.9956229   -4.8523904    4853.9075            1 
   21000    1.9738634   -4.8223804     4927.251            1 
   22000    1.9528965   -4.8226902    4918.6744            1 
   23000    1.9731939   -4.7567646    4929.1964            2 
   24000    1.9920357   -4.8459637    4933.8052            1 
   25000    1.9668626   -4.7677948    4917.0025       -1e+20 
   26000    2.0417658   -4.8045229    4955.3931            1 
   27000    1.9802726   -4.8688676    4913.0199            1 
   28000    2.0397055   -4.8107697    4907.2897            1 
   29000    2.0063912   -4.7960906     4943.151       -1e+20 
   30000    1.9907913   -4.7901933    4893.5138       -1e+20 
   31000    2.0049263   -4.7929233    4929.8214            1 
   32000    1.9836922   -4.7977028    4903.9972            1 
   33000    1.9957365   -4.7499286    4925.7211            2 
   34000     1.958952   -4.8697096    4882.7678            1 
   35000    1.9566733   -4.8078279    4884.6046            1 
   36000    2.0526093   -4.7806122    4931.5779            1 
   37000    2.0370314   -4.8257001    4902.0617            1 
   38000    2.0470953   -4.8798923    4906.8259            2 
   39000    2.0632736   -4.8494395    4906.7255            1 
   40000    2.0037713   -4.7980046    4897.5259            1 
   41000    1.9880037   -4.8300892    4899.3466            1 
   42000    2.0170569   -4.7951281    4938.9962            1 
   43000    1.9968216   -4.8002026    4917.2761       -1e+20 
   44000    2.0184719   -4.7983709    4949.9077            1 
   45000    1.9848259   -4.8207067    4912.1764            1 
   46000     1.978295    -4.835881    4946.2019            1 
   47000    2.0244176   -4.8340962    4913.9561            1 
   48000    2.0264828   -4.7498352     4949.633            1 
   49000     1.972816   -4.7794755    4952.9594            1 
   50000    1.9445346   -4.7572131    4907.5902            1 
   51000    2.0143867   -4.7682745    4961.9229            1 
   52000    1.9437902   -4.8005955    4922.3117            1 
   53000    1.9898064   -4.8517668    4933.8194            1 
   54000    2.0170602   -4.7714131     4918.263            2 
   55000    1.9762158   -4.7923324    4945.7076            1 
   56000    1.9793998   -4.8070335     4930.801            1 
   57000    1.9921472   -4.8431285    4905.8009       -1e+20 
   58000    2.0090063   -4.7849232    4949.2461            1 
   59000    2.0179099     -4.79991     4924.726            1 
   60000    1.9750993    -4.766396    4933.3063            2 
   61000    1.9689229   -4.7996023    4933.1499            1 
   62000    2.0477754   -4.7909437    4940.5122            2 
   63000     1.976011    -4.785141    4935.0899            1 
   64000    1.9971655   -4.7686236    4923.7159            1 
   65000    2.0051839   -4.8206922    4918.4045            1 
   66000       1.9761   -4.7461359    4942.0222            1 
   67000    1.9996336   -4.8328011    4888.6082            1 
   68000     1.998978   -4.8217748    4903.0077            1 
   69000    2.0332859   -4.8144894     4896.331            2 
   70000    2.0037987   -4.8189118     4931.742            2 
   71000    2.0156592   -4.7474608    4934.4407            1 
   72000    1.9741694   -4.7665495    4947.7418            1 
   73000    1.9930318   -4.7974608    4933.6835            1 
   74000    2.0505068   -4.8105624    4906.0924            1 
   75000    2.0389664   -4.7987804    4895.2584       -1e+20 
   76000    1.9732706   -4.7983935    4905.6797            2 
   77000    2.0107038    -4.847964    4892.1392            1 
   78000    2.0697864   -4.8049243    4914.1649            1 
   79000    1.9782533   -4.7860644     4941.249            1 
   80000    2.0026141   -4.7954802    4938.6341            1 
   81000    1.9681445   -4.8034235     4936.104            1 
   82000      2.01385   -4.7947942    4935.9803            1 
   83000    1.9937409   -4.7492063      4928.56            1 
   84000    2.0224412    -4.800685    4958.3368            3 
   85000    1.9687437   -4.7785108    4937.5956            1 
   86000    2.0101032   -4.8231771    4917.8997            1 
   87000    2.0292923    -4.812861    4912.5742            1 
   88000    2.0045285   -4.7857026    4916.7672            1 
   89000     1.971029   -4.8097445    4926.3391            2 
   90000    2.0004242   -4.7723413    4898.1889            1 
   91000    1.9924183   -4.8289167    4914.4508            1 
   92000    2.0268407    -4.819407    4932.1436            1 
   93000    2.0134873   -4.8219486    4923.8358            1 
   94000    1.9881079    -4.810221    4910.3486            1 
   95000    1.9740373   -4.8000382     4911.349            1 
   96000    2.0168373   -4.7710783    4914.7819            1 
   97000    1.9927576   -4.7766105    4931.8909            1 
   98000     1.978592    -4.808937    4913.4961            1 
   99000    1.9872199   -4.7703907    4914.7934            1 
  100000    2.0506168   -4.7848026    4933.0245            1 
  101000    2.0391259   -4.8013456    4933.2819            1 
  102000    1.9776808   -4.7796291    4947.0882            1 
  103000    1.9871185   -4.7733726    4919.0871       -1e+20 
  104000    2.0321276   -4.8012301    4879.7498            1 
  105000    1.9959405   -4.7805736    4925.2979       -1e+20 
  106000    1.9628939    -4.754504    4936.2208            2 
  107000    1.9756129   -4.7880166    4892.8988       -1e+20 
  108000    1.9746721   -4.8046175     4923.536            3 
  109000    2.0226358   -4.7952441    4951.9254            2 
  110000    2.0010952   -4.8057439    4884.7534            1 
  111000    2.0249006   -4.7786171    4942.3437            1 
  112000    1.9980167   -4.8514163    4893.8508            1 
  113000    2.0083267   -4.7741245    4910.1719            1 
  114000    1.9998851   -4.7955156    4923.4391            1 
  115000    2.0225633   -4.8387696    4931.5472            1 
  116000    2.0273094   -4.8581716    4919.2557            2 
  117000    2.0169561    -4.830816     4923.842            2 
  118000    2.0032888   -4.8556871    4871.7339            1 
  119000    1.9599725   -4.7962974    4929.5851            1 
  120000    2.0238668   -4.8117617    4933.6797            1 
  121000     1.987234   -4.8026883    4919.1789            2 
  122000     1.975699   -4.7786768    4946.2988            2 
  123000    2.0225028   -4.8307527    4911.3644       -1e+20 
  124000    1.9545961   -4.7875486    4919.1472            1 
  125000    2.0372151   -4.8151081    4919.5609            1 
  126000    1.9780288   -4.7813853    4946.8085            1 
  127000    2.0353008   -4.7355886    4913.3692            1 
  128000    2.0488099   -4.8163339    4903.0925       -1e+20 
  129000    2.0129968   -4.7823607    4915.8966            1 
  130000    2.0197894   -4.8056992    4926.3457            1 
  131000     1.943448    -4.784107    4942.9355            1 
  132000    2.0042122   -4.8441085    4919.7504            1 
  133000    2.0447629    -4.834362     4920.407            1 
  134000    1.9989063   -4.7943471    4932.9552       -1e+20 
  135000    2.0272856   -4.8174992    4934.8458            1 
  136000    2.0097337   -4.7683188    4935.4326            1 
  137000    2.0450413    -4.825843    4873.0833            1 
  138000    2.0187977   -4.7760945    4927.4223            1 
  139000    1.9808767   -4.7768347    4896.7905       -1e+20 
  140000    2.0366368   -4.7986257    4958.6887            1 
  141000    1.9810553   -4.8285604    4938.5932            1 
  142000    1.9548419   -4.8173013    4898.5144            1 
  143000    2.0307531   -4.7980623    4916.4115            1 
  144000    1.9767232   -4.8203951    4890.3419            2 
  145000    1.9884385   -4.7939118    4884.4751            2 
  146000    1.9772766     -4.75564    4956.8948            1 
  147000    2.0297237    -4.744758    4940.8421            1 
  148000    2.0480554   -4.7961786    4930.3861            1 
  149000    1.9896365   -4.7477754    4929.4313            1 
  150000    2.0535475   -4.8003633    4914.5931            1 
  151000    1.9886267   -4.7827378    4941.1622            1 
  152000    2.0143715   -4.7844319    4953.3726            1 
  153000    1.9860501   -4.8239205    4944.4934       -1e+20 
  154000    2.0223056   -4.8784509     4902.161       -1e+20 
  155000    2.0120613   -4.7663883    4967.6044            2 
  156000    1.9764422   -4.7706339     4931.311       -1e+20 
  157000    2.0116855   -4.8176855    4903.5987            1 
  158000    2.0039393   -4.8273365    4921.0813            1 
  159000     1.993726   -4.7885723    4899.1459            1 
  160000     2.015678   -4.8443577      4938.69       -1e+20 
  161000    1.9587609   -4.7975528    4928.2579            1 
  162000      1.97223    -4.794317    4909.4739       -1e+20 
  163000    2.0319661   -4.8361262    4881.9673            1 
  164000    2.0164155     -4.81277    4879.2815            1 
  165000    1.9806884   -4.7519869    4937.8703       -1e+20 
  166000    2.0100765   -4.7794632    4913.5702            1 
  167000    2.0054295   -4.8250627    4928.9086            1 
  168000    1.9766183   -4.8002564    4881.4472            1 
  169000    1.9688227   -4.8513339    4897.3685            1 
  170000    1.9684174    -4.855334    4913.6891            1 
  171000    2.0051265   -4.7911781    4949.7617            2 
  172000    2.0106476   -4.8035896    4925.8526            1 
  173000    1.9642842   -4.8180443    4905.0354            1 
  174000    2.0482951   -4.7639993    4938.9676            2 
  175000    1.9996728   -4.7668919    4902.9451            1 
  176000     1.982562   -4.7710584    4924.1256            1 
  177000    2.0143332   -4.8008606    4908.2477            2 
  178000    1.9805323    -4.870732    4901.1162            1 
  179000    2.0192514   -4.8391101     4913.939       -1e+20 
  180000    2.0082277   -4.8116019    4925.2724            1 
  181000      2.00741   -4.8019473    4912.8095            2 
  182000    1.9892958   -4.7791419    4951.8428            1 
  183000    2.0182776   -4.7569581    4918.5007       -1e+20 
  184000    1.9282156    -4.776795    4928.6877            1 
  185000     1.981615   -4.8149166    4910.4134            2 
  186000    1.9870978   -4.8180777    4914.9361            1 
  187000    2.0160402   -4.8271215    4887.2736            1 
  188000    2.0144258   -4.8175269       4943.9       -1e+20 
  189000    1.9826784   -4.8421706    4890.9292            1 
  190000    1.9893459   -4.7618905    4959.5935            1 
  191000    1.9843277   -4.8165655    4926.0931            2 
  192000    2.0373425   -4.8063089    4930.8587       -1e+20 
  193000    2.0290976   -4.8155706    4921.8902            1 
  194000     1.997971    -4.819108     4924.175            1 
  195000    2.0289452   -4.8200729    4892.7237            1 
  196000    2.0388109   -4.8601273    4902.0245            2 
  197000    2.0435047   -4.8189723    4900.5847            1 
  198000    2.0260131   -4.8433779    4901.2562            2 
  199000    1.9780168   -4.8213198    4912.1024            1 
  200000    2.0104811   -4.8394589    4929.6784            2 
  201000    2.0481599   -4.8026265    4914.2525            2 
  202000    1.9742983   -4.8071085    4910.7499       -1e+20 
  203000    1.9937889   -4.7823869    4927.6833            1 
  204000       1.9942   -4.8227436    4907.6351            1 
  205000    2.0524751   -4.7994911    4943.8979            1 
  206000     1.998337   -4.8175411    4884.1758            1 
  207000    2.0024767    -4.804397     4910.269            2 
  208000    2.0001831   -4.8231015    4929.3595            1 
  209000    2.0070657   -4.8172551      4945.32            1 
  210000    1.9807449   -4.8032219    4924.7199            1 
  211000    1.9803636   -4.7904364    4910.0048            2 
  212000    2.0444319   -4.7869948    4933.8228            1 
  213000    2.0291571   -4.7757715    4917.8321            1 
  214000    2.0315738   -4.7827525    4908.4018       -1e+20 
  215000     2.007619    -4.806666    4936.4989            1 
  216000    2.0575307   -4.7952153    4929.4272            1 
  217000    1.9925631   -4.7651013    4930.2254            1 
  218000    1.9897249   -4.8200302    4889.6368       -1e+20 
  219000    2.0499622   -4.7114129    4963.7044            1 
  220000    1.9518449   -4.7555564     4925.246            1 
  221000    2.0510441   -4.7998183    4929.3461            1 
  222000     1.971354   -4.7905352    4935.0817            1 
  223000    1.9567409   -4.7991103    4955.1931            2 
  224000     2.039581   -4.8313803    4902.4316            1 
  225000    1.9954616   -4.8227905    4900.6347            1 
  226000    2.0369304    -4.781301    4958.0265            1 
  227000    1.9938693    -4.760473     4932.297       -1e+20 
  228000    2.0226209   -4.7312125    4912.1686            1 
  229000    2.0120165   -4.7920893    4946.8605            1 
  230000    1.9702531     -4.83163    4957.2641            1 
  231000    1.9622355   -4.7486618    4906.9183       -1e+20 
  232000    2.0026193   -4.7857989     4921.002       -1e+20 
  233000    1.9796244   -4.8027146    4914.0218            1 
  234000    2.0571088   -4.8317693    4891.7103            1 
  235000    1.9816787    -4.809256    4946.3599       -1e+20 
  236000    1.9550587   -4.8114695    4909.8634       -1e+20 
  237000    1.9506089   -4.7599537    4914.2962            1 
  238000    1.9930313   -4.7561725    4909.9497            1 
  239000    2.0113476   -4.8216214    4919.3573            1 
  240000    2.0452793   -4.7398328    4976.7977            1 
  241000    2.0334904     -4.79833    4909.2593            1 
  242000    2.0005206   -4.8160009    4917.8423            1 
  243000    1.9771213   -4.7785027     4926.453            1 
  244000    2.0139207   -4.8333136    4925.7307            1 
  245000    2.0129039   -4.8095634    4926.6734            1 
  246000    2.0271862   -4.7882001    4917.4168            1 
  247000    1.9461741   -4.7685307    4928.4957            1 
  248000    1.9734645   -4.7968164    4969.3285            1 
  249000    1.9986516   -4.8293479    4903.5092            2 
  250000    1.9946099    -4.785181    4943.1997            1 
  251000    2.0240454   -4.8046663    4921.8835            1 
  252000    2.0183827   -4.8570822      4895.66            1 
  253000    1.9775573   -4.8240868    4902.1204            2 
  254000    1.9491649   -4.8044364    4921.9182            1 
  255000     1.976282   -4.8108708    4922.7473            2 
  256000    2.0262048   -4.8285046    4913.6174            1 
  257000    1.9716695   -4.8159128    4897.9666       -1e+20 
  258000    1.9728991   -4.7763298    4914.7242       -1e+20 
  259000    1.9660524   -4.7662051    4940.4705            2 
  260000    1.9957034   -4.7944953     4930.744            1 
  261000    1.9931887     -4.79646    4906.7224            1 
  262000    1.9807031   -4.7918515    4942.8223            1 
  263000    1.9966919   -4.7958478    4904.0283            1 
  264000    1.9872534   -4.7868105    4917.2617       -1e+20 
  265000     1.977107   -4.8167864    4931.5059       -1e+20 
  266000    1.9728098   -4.7970695    4917.2087       -1e+20 
  267000    1.9929753   -4.7814056    4903.6038       -1e+20 
  268000     2.041066   -4.8189568    4896.1552            1 
  269000    1.9576224   -4.7521772    4933.0065       -1e+20 
  270000    2.0250113   -4.8134597     4898.106            1 
  271000    2.0136317   -4.8174928     4925.507            1 
  272000    2.0014422   -4.7763094    4911.2669            1 
  273000    2.0130524   -4.7888428    4904.5183            1 
  274000    1.9787051   -4.7869011    4933.4445            1 
  275000    1.9916189   -4.7644643    4897.5433            1 
  276000    1.9951255   -4.7652253    4909.0182            2 
  277000    2.0035514   -4.8506254    4933.8768       -1e+20 
  278000    1.9743251   -4.8322391    4897.2189            1 
  279000    1.9799176   -4.8009698    4946.0657       -1e+20 
  280000    2.0419839   -4.8359463    4918.1935            1 
  281000    1.9653421   -4.8138456    4917.2639            1 
  282000     1.996544   -4.7911617     4921.791            2 
  283000    2.0102285   -4.8121712     4908.934            1 
  284000    1.9988586   -4.7540988    4924.9371            2 
  285000    1.9790516   -4.7772394    4918.6888            2 
  286000    1.9599552   -4.8125049    4935.9466            1 
  287000    2.0099369   -4.8249517    4913.1296            1 
  288000    2.0200304    -4.810007     4965.502            1 
  289000    1.9982865   -4.7603565    4979.7887       -1e+20 
  290000    1.9835561   -4.7356274    4908.6554            3 
  291000    2.0137313   -4.7984325    4936.0261            1 
  292000    1.9985639   -4.8036999    4913.2499            1 
  293000    1.9937472   -4.7863324    4918.3763       -1e+20 
  294000    1.9815106   -4.8360915    4890.4841            2 
  295000    2.0421312    -4.769305    4903.7019            1 
  296000    2.0019107    -4.793045    4926.3948            3 
  297000    1.9925102   -4.8283126    4899.9911            2 
  298000    2.0067467   -4.8041142    4937.4841            1 
  299000    1.9740596   -4.8295468    4902.8209            1 
  300000    2.0564695   -4.8181684    4918.8339       -1e+20 
  301000    1.9956485   -4.7682327    4930.9459            1 
  302000    2.0756054   -4.7511179    4923.2489            1 
  303000    1.9970874   -4.7945073    4946.9971            1 
  304000     1.990634    -4.807661    4931.8313            2 
  305000    2.0051181   -4.7986364    4925.5159            4 
  306000    1.9722398   -4.8189737    4939.1098            1 
  307000    1.9820532   -4.8435391    4898.9049       -1e+20 
  308000    1.9714342   -4.7241469    4963.8774            2 
  309000    2.0220413    -4.796267    4933.8254            1 
  310000    2.0304503    -4.783944    4919.7673            1 
  311000    1.9758255   -4.8119214    4926.7244            2 
  312000    2.0284503   -4.8595815    4908.7546       -1e+20 
  313000    2.0311433   -4.8124559    4883.3454       -1e+20 
  314000    1.9931773    -4.805281    4923.1356            1 
  315000    1.9954601   -4.8112539    4941.2524            1 
  316000    1.9901048   -4.7866172    4951.0379            1 
  317000    2.0159667   -4.8964568    4924.0859            1 
  318000     1.986744    -4.787992    4930.3107            1 
  319000    1.9921007   -4.8127453    4920.7341            1 
  320000    2.0329912   -4.8046523    4924.8331            1 
  321000    2.0691924   -4.7903033    4913.7683            1 
  322000    1.9542861   -4.7933564    4937.3466            2 
  323000    2.0103667   -4.8349996    4923.9205            1 
  324000     1.952077   -4.7719598    4929.0394            1 
  325000    2.0233514   -4.8138769    4925.1642            1 
  326000    2.0119803   -4.8103205    4895.3346            1 
  327000    1.9719612   -4.7917054    4929.4649            1 
  328000    2.0022734   -4.8243238     4937.107            2 
  329000    2.0112147   -4.8242287    4907.3867            1 
  330000    2.0075452   -4.8094548    4917.5717            1 
  331000    2.0140402   -4.8163673    4904.1964       -1e+20 
  332000    2.0552347   -4.8339833    4939.3879            1 
  333000    2.0018913   -4.7805959    4891.4096       -1e+20 
  334000    2.0176111   -4.7815994    4928.6394            1 
  335000    2.0195342   -4.7907882    4904.1165       -1e+20 
  336000    1.9835064   -4.7465833    4930.2347            1 
  337000     2.003124   -4.8198855    4917.4277            1 
  338000    1.9968275   -4.7703854    4895.7276            1 
  339000    2.0093334   -4.8251259    4944.2704            1 
  340000     1.988947   -4.8049685    4916.1454            1 
  341000    1.9830885   -4.7338119    4911.8131            1 
  342000    2.0207013   -4.8537418    4918.3309            1 
  343000    1.9914028   -4.8253213    4926.2608            2 
  344000    1.9889341   -4.7573894     4936.882            1 
  345000     2.014142   -4.8119703    4927.1453            1 
  346000     1.964313   -4.7847628    4926.4115            1 
  347000    2.0369202   -4.7586623    4976.6416       -1e+20 
  348000    2.0130268    -4.784428    4886.9505            1 
  349000    2.0346931   -4.8083344    4928.2383            1 
  350000    2.0632011   -4.7981527    4918.4715       -1e+20 
  351000    2.0074157   -4.7574967    4953.2919            1 
  352000    1.9373517   -4.7755427    4948.7745            1 
  353000    2.0375834    -4.815826    4895.0372            1 
  354000    2.0189886   -4.7814164    4923.7392            1 
  355000    1.9545617   -4.8200868    4903.1299            1 
  356000    2.0024824   -4.7750254    4925.8569       -1e+20 
  357000    2.0179865   -4.7796409    4945.2314            1 
  358000    2.0073719   -4.7992728     4915.394            1 
  359000    1.9880907    -4.830812     4916.518            1 
  360000    1.9590645   -4.7829258    4954.5147       -1e+20 
  361000    1.9816102   -4.7784937    4944.7741            2 
  362000     1.964575   -4.7583818    4950.4132            1 
  363000    1.9839557   -4.8087207    4922.7288       -1e+20 
  364000    1.9967251   -4.8021194    4943.1079            1 
  365000    2.0256005   -4.7616917    4947.3023       -1e+20 
  366000    1.9772384   -4.7792372    4904.8372            1 
  367000    2.0296567   -4.8115052    4936.6196            1 
  368000     1.982393   -4.8244911    4919.3695            1 
  369000    1.9746764   -4.8149913    4948.3457            1 
  370000    2.0070344    -4.818556    4922.8068            1 
  371000     2.034303   -4.7838141    4914.9602            1 
  372000    2.0028877   -4.8547344    4897.1525            1 
  373000    1.9666399   -4.8181576     4935.399            1 
  374000     2.001712   -4.8193475    4901.8547            1 
  375000    2.0655238   -4.7885443    4893.0244            1 
  376000    1.9954531   -4.7836327    4914.9061            1 
  377000    2.0084265   -4.7966677    4967.1657            1 
  378000    2.0186761    -4.783439    4915.5773            2 
  379000    1.9936155   -4.8413629    4925.7367            1 
  380000    2.0202717   -4.8416443    4869.0799            3 
  381000    2.0058527   -4.7720347    4932.1055            2 
  382000    2.0136751   -4.8042876    4928.9606            1 
  383000     2.015989   -4.7848469    4933.5395            1 
  384000     1.994138   -4.8154129    4909.3076            1 
  385000    1.9993205   -4.8502021     4882.617            1 
  386000    1.9758107   -4.7263899     4925.316            1 
  387000    1.9708986    -4.836964    4896.5715            1 
  388000    2.0159043   -4.7915013    4920.4949       -1e+20 
  389000    1.9789969   -4.7896504    4922.8245            2 
  390000    1.9913076   -4.8301237    4905.5402            1 
  391000    2.0101615   -4.8175116    4921.0883            1 
  392000    2.0368769   -4.6986883    4946.0715            2 
  393000    1.9669289   -4.7998381    4881.8253            1 
  394000     2.021058   -4.7993959    4921.4945            1 
  395000     1.987096   -4.7897664    4920.7321            1 
  396000    2.0077102   -4.8473381    4913.6097            2 
  397000    1.9820888     -4.80936    4936.7559       -1e+20 
  398000    2.0133817   -4.8412489    4897.6456            1 
  399000    2.0168534   -4.8118351    4898.7324            1 
  400000    1.9948479   -4.8361307    4941.5624            1 
  401000    2.0367882   -4.8303562    4924.1481       -1e+20 
  402000    1.9788821   -4.8201007    4908.1097            1 
  403000    1.9882244   -4.8006667    4935.4434            1 
  404000     2.035556   -4.8096125    4924.6031            1 
  405000    1.9945423   -4.7960295    4928.4959            1 
  406000    2.0467135   -4.7831406    4974.7751            1 
  407000    1.9680105   -4.7970486    4932.1891            1 
  408000    1.9844546   -4.7907561    4928.0236            1 
  409000    2.0289657   -4.7999528    4925.1695            2 
  410000    1.9776256   -4.8533401    4879.1226            1 
  411000    2.0355559   -4.7899432     4934.538            1 
  412000      2.02113   -4.7997164    4905.0922       -1e+20 
  413000     2.011385   -4.7965583    4906.9202            1 
  414000    1.9870448   -4.7323301    4957.1486       -1e+20 
  415000    1.9699285   -4.8322551    4907.5828            2 
  416000    2.0309768   -4.7832758       4899.6            1 
  417000    1.9938662   -4.7788087    4943.2128            1 
  418000    2.0158953   -4.8382644    4910.9039            1 
  419000    2.0088459   -4.8117237    4916.6404            1 
  420000     2.004195    -4.737254     4932.917            1 
  421000    2.0227471   -4.8030889    4946.7863            2 
  422000    1.9554362   -4.7953871    4924.6597            1 
  423000    2.0192585   -4.8021673    4937.8744            1 
  424000    1.9910851   -4.7700001    4937.1702            1 
  425000    2.0501811   -4.8162655    4907.4982            2 
  426000    2.0013012   -4.8089353    4909.1213            1 
  427000     1.991754    -4.880361    4904.3954            1 
  428000    1.9691106   -4.7802352    4923.6494            1 
  429000     1.994915   -4.7867083    4894.2101            1 
  430000    2.0107343   -4.8282815    4930.9443            1 
  431000    2.0407698   -4.7814397    4936.2127            1 
  432000    2.0367565   -4.7806593    4940.2426            3 
  433000    2.0353117   -4.8413892    4904.1532            1 
  434000      2.04618   -4.7751354    4934.9682            1 
  435000    2.0586411   -4.7526921    4899.2005       -1e+20 
  436000    2.0035723   -4.8005953    4891.1273            1 
  437000    2.0223545   -4.8086317    4940.5103            1 
  438000    2.0050815   -4.8289224    4934.7585            1 
  439000    1.9537362   -4.8291665    4948.2437            1 
  440000    2.0264892   -4.7865504    4933.5351       -1e+20 
  441000    1.9921726   -4.8630776     4897.185       -1e+20 
  442000     1.951321   -4.8108185    4916.0679            1 
  443000    1.9748442   -4.7709817    4914.5951            1 
  444000    1.9676599   -4.8584543    4889.9996       -1e+20 
  445000    2.0261023    -4.842892    4889.9087            1 
  446000    2.0382016     -4.78612    4921.3556            2 
  447000    1.9946217   -4.7844972    4899.1522            2 
  448000    2.0083723   -4.7981249    4935.3756            1 
  449000    1.9677305   -4.8349396    4892.9741            2 
  450000    2.0159466    -4.791533    4910.8905            1 
  451000    2.0623521   -4.7646004    4944.4905            1 
  452000    1.9858632   -4.8286569    4952.1432            1 
  453000    2.0056978   -4.8343243    4914.1466            1 
  454000    1.9804429   -4.8350853    4950.5111            1 
  455000    1.9844782   -4.7987058    4948.8706       -1e+20 
  456000    2.0332859   -4.7706061    4937.5829            1 
  457000    1.9904731   -4.8422414    4926.7348            1 
  458000    1.9612644   -4.8497767    4895.7084            1 
  459000    2.0578699   -4.8603177    4898.7623       -1e+20 
  460000    2.0398492   -4.8058192    4933.7698            1 
  461000    1.9825988   -4.8482284    4925.9797            1 
  462000     1.997775   -4.8420202    4899.1785            1 
  463000     2.033011   -4.8629231    4880.1167            2 
  464000    2.0011919   -4.7929132    4891.6351            1 
  465000    1.9697925   -4.8135689    4927.0309            1 
  466000    1.9495221   -4.7951198    4933.0243       -1e+20 
  467000     1.977329   -4.7978083     4901.252            1 
  468000    2.0046063   -4.7862565    4927.2441            1 
  469000    1.9651173   -4.7592648     4933.977            3 
  470000     1.968137   -4.7847716    4925.3413            2 
  471000    1.9642954   -4.7720929    4928.4512            1 
  472000    1.9838909   -4.7916233    4918.0993            2 
  473000    2.0148369   -4.7980615    4913.4818            1 
  474000    2.0014751   -4.8153065     4913.274            1 
  475000    2.0055346   -4.8422692    4888.5857       -1e+20 
  476000    1.9923796   -4.7830718    4935.0035            1 
  477000    1.9647695   -4.7748483    4937.6086            2 
  478000    1.9586233    -4.782953    4903.5254            1 
  479000    2.0197852   -4.8081301    4955.0689       -1e+20 
  480000    2.0230579   -4.7567032     4905.023            1 
  481000    1.9706363   -4.7772749    4925.1501            1 
  482000    1.9868725   -4.7982283    4911.2152            2 
  483000    1.9792092    -4.811158    4927.6635            1 
  484000    1.9930007   -4.8158824    4882.7489            1 
  485000    2.0083196   -4.7656126    4916.5883            1 
  486000    1.9420289   -4.8051704    4915.9825            1 
  487000    2.0029601   -4.7725997    4939.3749            1 
  488000    1.9869282   -4.8304824    4904.6244       -1e+20 
  489000    2.0249858   -4.8160682    4927.9707            1 
  490000    2.0019952   -4.7418985    4935.6556            1 
  491000    2.0255867   -4.7872636    4922.2075       -1e+20 
  492000    2.0205308   -4.8068469    4927.5573            1 
  493000    1.9848127   -4.7961946     4963.895            1 
  494000     1.986527   -4.7686451    4929.4217            1 
  495000    2.0218157   -4.7897369    4945.6663            1 
  496000    2.0121984   -4.7878262    4927.6855            1 
  497000    2.0270247   -4.7301698    4948.1692            1 
  498000    2.0052902   -4.7728093    4918.3549            1 
  499000    2.0352183   -4.8209031    4910.2007            1 
  500000    2.0293172    -4.884841    4909.6256            2 
  501000    2.0034054   -4.8019887    4934.3631            2 
  502000    2.0418241   -4.7587526    4922.4112       -1e+20 
  503000    1.9745525   -4.7705457    4964.8538            1 
  504000    2.0199289   -4.8003067    4916.2398            1 
  505000    2.0253097   -4.8286824    4910.6067            1 
  506000    2.0194465   -4.7903393    4921.6148            1 
  507000      2.01113   -4.7970339    4915.9332       -1e+20 
  508000    1.9724181   -4.8362396    4897.6892            1 
  509000    1.9618708   -4.7769452    4939.1829            1 
  510000    1.9677821    -4.743751     4905.355            1 
  511000     2.013945   -4.8232552    4905.8401            1 
  512000    2.0373624   -4.7720538    4931.5687            1 
  513000    1.9927068   -4.7935093     4947.071            2 
  514000    2.0524695   -4.8073438    4910.0779            1 
  515000    2.0152669   -4.8221562    4892.9366            1 
  516000     2.012603   -4.8416123    4922.9601            1 
  517000    1.9839702    -4.773135    4923.1015            1 
  518000    2.0058118   -4.8426777    4925.2979            1 
  519000    2.0187692   -4.7661673    4947.1989            1 
  520000    1.9901356   -4.7808629    4911.7748            1 
  521000     1.969434   -4.8097564    4938.2902            1 
  522000    1.9988801   -4.7916908    4943.0991            1 
  523000    2.0069548   -4.8163491    4920.8379            2 
  524000    2.0041686   -4.7907783    4909.9255            2 
  525000    2.0461301   -4.8252685    4912.2854            2 
  526000    1.9601326   -4.7894962    4948.0697       -1e+20 
  527000    1.9958908   -4.7867182    4905.1491            1 
  528000    2.0042063   -4.7646007    4909.2538            1 
  529000    1.9864915   -4.7775609     4953.001            1 
  530000    1.9945098   -4.7543286    4935.2949            1 
  531000    2.0060564   -4.8066719    4912.6424            1 
  532000    2.0392354   -4.7782949    4957.5689            1 
  533000    2.0054979   -4.7549025     4930.445            1 
  534000    1.9926967   -4.8284923    4892.0428            2 
  535000    2.0358147   -4.7822019    4928.8703            1 
  536000     1.990175   -4.7856033    4905.0528            1 
  537000    2.0055843   -4.8231834    4909.8559            1 
  538000    1.9950643   -4.7739954    4888.2273            1 
  539000    2.0006032   -4.8065195    4896.4005            1 
  540000    2.0011939   -4.7908461     4895.725            2 
  541000    2.0284283   -4.7661527    4941.4328            1 
  542000    2.0188921   -4.8432075    4911.5925            1 
  543000    2.0092904   -4.8321836    4896.9495            1 
  544000    2.0259331   -4.8007892     4921.248            1 
  545000    1.9762048   -4.8038384    4953.7573            1 
  546000    2.0040557   -4.7782799    4904.7927            1 
  547000    1.9988184   -4.8281421    4897.1269            1 
  548000    2.0341389    -4.811874    4949.8279            1 
  549000    1.9880948   -4.7979873    4907.6634            1 
  550000    2.0183295   -4.7735008    4944.4615            1 
  551000    1.9940643   -4.7971197    4904.7856            1 
  552000    2.0180341   -4.8215882    4884.4378            1 
  553000    2.0401155   -4.8008823    4929.3249            2 
  554000    1.9976669   -4.8315168    4905.1948       -1e+20 
  555000    1.9975082   -4.7553448      4940.65            1 
  556000     1.987249   -4.7874576    4960.7507            1 
  557000    1.9823809   -4.8135875    4905.5625            1 
  558000    1.9675167   -4.7698895    4929.9313            1 
  559000    1.9976119   -4.8165172    4914.2654            1 
  560000    2.0364306   -4.7891283    4890.7788            1 
  561000    2.0469991   -4.7477501    4939.4269            2 
  562000    1.9461864   -4.8120092    4919.8112            2 
  563000    1.9456609   -4.7848008     4905.742            1 
  564000    1.9808459    -4.762853     4947.408            1 
  565000    1.9553681   -4.7954953    4933.0463            1 
  566000    2.0130577    -4.810987    4928.4246            1 
  567000    1.9958992   -4.8019354    4872.9849            1 
  568000    2.0323448   -4.7885607    4922.7376            2 
  569000    1.9556152   -4.7782279    4914.0715            1 
  570000    2.0397929    -4.839978    4873.1319            4 
  571000     2.010169    -4.780861     4886.318            1 
  572000    2.0072841   -4.7781905    4961.4325            2 
  573000     2.008797   -4.7515502     4967.796            1 
  574000    2.0146611   -4.8111356       4915.8            1 
  575000    1.9811288   -4.8060176    4922.6875       -1e+20 
  576000    2.0347315   -4.8252766     4901.109            2 
  577000    2.0118962   -4.8321318    4917.9946            1 
  578000    2.0155644   -4.8085899    4907.9592            1 
  579000    1.9843481   -4.7780301    4932.6252            1 
  580000    2.0115055   -4.7858548    4920.1521            1 
  581000    1.9901031   -4.8037438    4924.2157            1 
  582000      2.00827   -4.7989785    4927.4689            1 
  583000    1.9819078   -4.7502972    4917.2372            1 
  584000    1.9803461   -4.8279036    4955.3099            2 
  585000    2.0282022   -4.7944786    4895.6519            1 
  586000    1.9868952   -4.8257349    4891.2778            2 
  587000    1.9695189   -4.7633397    4961.0346            1 
  588000    2.0434546   -4.7733124    4919.6459            1 
  589000    2.0172229   -4.8389803    4941.3348            1 
  590000     2.030427   -4.7771468    4924.3464            2 
  591000     2.005141   -4.7668967    4973.8911            2 
  592000    1.9818654    -4.841591    4899.8321            1 
  593000    2.0002849   -4.7702892    4935.6217            1 
  594000     2.025547   -4.8229779     4883.076            2 
  595000     2.025504   -4.7925346    4895.5008       -1e+20 
  596000    2.0248063   -4.7855977    4927.6772            1 
  597000    2.0265868   -4.7857342    4916.9626            1 
  598000    1.9806813   -4.7681362    4932.6652            1 
  599000    1.9923425   -4.8015748    4915.1637            1 
  600000    2.0006147   -4.7647005    4930.3035            1 
  601000     2.024799   -4.7930421    4920.8939            1 
  602000    2.0637048   -4.8099083    4916.5284            2 
  603000     1.958867   -4.7835945    4918.0767            1 
  604000    2.0277399   -4.7470426    4942.0642            1 
  605000    2.0039336   -4.7829791    4911.6877            1 
  606000    2.0178166   -4.7694567    4934.8798            1 
  607000    1.9817041    -4.744636    4921.8904            1 
  608000    1.9803972   -4.7710007    4930.9065            1 
  609000    2.0158164   -4.8463282    4917.2674            1 
  610000    2.0301805   -4.7888747    4910.6147            1 
  611000    1.9901675   -4.8426642    4913.0575            1 
  612000    1.9952598   -4.7922311    4962.1497            1 
  613000    2.0123342   -4.8061075    4926.5508            1 
  614000    2.0265641   -4.8210414    4947.1086       -1e+20 
  615000    2.0395329   -4.7810994    4934.5271            2 
  616000    2.0140205   -4.8497183    4907.2684            2 
  617000    2.0194413   -4.8278854    4947.9884       -1e+20 
  618000    1.9713196   -4.8029367    4910.3638            2 
  619000    2.0255539   -4.7931132    4892.3326            1 
  620000    2.0129001   -4.7880535    4935.7325            1 
  621000    2.0222687   -4.7586982    4892.9832            1 
  622000    2.0035953   -4.7952959    4916.4104            1 
  623000    2.0120001   -4.8093242     4913.958            2 
  624000     2.022101   -4.8465347    4914.1583            1 
  625000    2.0384249   -4.8700343    4901.8028            1 
  626000    2.0024702   -4.8248916      4961.91       -1e+20 
  627000     1.932637   -4.7929863    4919.1861            1 
  628000    1.9741045   -4.7233998    4953.7688            1 
  629000    1.9827783   -4.7737007    4970.0741            1 
  630000     1.977258   -4.8040382    4901.4324       -1e+20 
  631000    1.9779359   -4.7937034    4921.9473            1 
  632000    1.9482362   -4.7682148    4923.7991            1 
  633000    1.9851789   -4.8219281    4886.2969            1 
  634000    1.9779554   -4.8033777    4919.2357       -1e+20 
  635000    2.0173194   -4.8555109    4929.3278            2 
  636000    1.9663592   -4.8014411    4906.1956       -1e+20 
  637000    1.9246823   -4.8251826    4930.2899            1 
  638000    1.9587313   -4.7616889    4919.1142            1 
  639000    1.9646521   -4.7981273    4927.5313            1 
  640000    1.9691285    -4.800604    4901.5364            1 
  641000    1.9810981   -4.7861444    4917.9365            1 
  642000    1.9680266   -4.8018501    4898.4005       -1e+20 
  643000     2.040221   -4.7807461     4911.279            1 
  644000     2.002004    -4.870107    4922.0784       -1e+20 
  645000    1.9760262    -4.793723     4919.353            1 
  646000    2.0237939   -4.8176609    4915.4933            1 
  647000     1.973602   -4.7742604    4945.6655            1 
  648000    2.0117564   -4.7715897    4951.4001            1 
  649000    1.9780662   -4.7971219    4942.7252            1 
  650000    1.9722062   -4.7756349    4928.4847            3 
  651000    1.9795002   -4.8117081    4954.1718            1 
  652000      1.99936   -4.7595956    4966.5911            1 
  653000    1.9975158    -4.791377     4910.693            1 
  654000    1.9962106   -4.8167936    4917.2907            1 
  655000    1.9953806   -4.8059787    4922.4989            1 
  656000    2.0276249   -4.7926642    4915.6967            1 
  657000    2.0036625   -4.7440648    4945.9227            1 
  658000    1.9789101   -4.7999039    4928.9614            1 
  659000    2.0172582   -4.8149715    4906.9834            1 
  660000    2.0143194    -4.756193    4916.2408       -1e+20 
  661000    1.9948248   -4.8245659    4896.0356       -1e+20 
  662000    1.9812328   -4.7920013    4906.3576            1 
  663000    2.0173174   -4.7927685    4937.5146            1 
  664000     2.012665   -4.8221709    4921.1263       -1e+20 
  665000    2.0261402   -4.7875729     4910.509            1 
  666000    1.9953303   -4.8369664    4939.6576            1 
  667000    2.0319216   -4.7864912    4901.8854            1 
  668000    2.0031644   -4.7734695    4911.2314            1 
  669000    1.9621147   -4.7761052    4926.2429            1 
  670000    1.9913706   -4.7711374    4920.2115            1 
  671000    2.0468492   -4.8280134    4923.0369            1 
  672000    1.9830227   -4.7703382    4918.1288            1 
  673000    1.9618578   -4.8301926    4925.9739       -1e+20 
  674000    1.9533127   -4.8036207     4906.221            1 
  675000    2.0758305    -4.794723    4943.6305            1 
  676000    1.9957002   -4.7979928    4947.0421            1 
  677000    2.0080668   -4.8324399    4868.4741            1 
  678000    2.0155332   -4.8379853    4881.0589            1 
  679000     2.027894    -4.862271    4894.5371            1 
  680000     2.009419   -4.8209498    4906.9865            1 
  681000    1.9920043   -4.7669855    4930.7887            1 
  682000     2.006086   -4.7947407    4929.2967            1 
  683000    2.0122085   -4.7448318    4947.1448       -1e+20 
  684000    1.9592069   -4.8178405     4940.338            1 
  685000    2.0087529   -4.8230082    4942.2509            1 
  686000    1.9980207    -4.837094    4943.8476            1 
  687000     1.986828   -4.7567351    4945.3016       -1e+20 
  688000    2.0025912     -4.78931    4930.7729       -1e+20 
  689000    1.9798509    -4.845058    4937.3817            1 
  690000    2.0153904   -4.8253081    4902.1745            1 
  691000    2.0446592   -4.8272438     4885.023            1 
  692000    1.9417969    -4.812919    4925.1643            2 
  693000    2.0167623   -4.7585605    4929.4874            1 
  694000    2.0356453   -4.8334105     4894.923            1 
  695000    1.9540053   -4.8015445    4888.2907            1 
  696000    2.0098807   -4.8214002    4918.4552            1 
  697000    1.9898534   -4.8498591    4910.2864       -1e+20 
  698000    1.9811061   -4.7666939    4946.7315            1 
  699000    1.9868321   -4.8089272    4939.7572            1 
  700000    1.9969095   -4.8391405    4917.8446            1 
  701000    2.0113356   -4.8058402    4901.9165            1 
  702000    1.9842259   -4.8310973    4932.2348            1 
  703000     1.980258   -4.7406381    4932.4104            1 
  704000    2.0009188   -4.7910868    4925.5094       -1e+20 
  705000    1.9883136   -4.8225301    4916.7592            1 
  706000    2.0242001   -4.7750113    4936.5831            1 
  707000    1.9937952   -4.8035064    4915.7823            1 
  708000    2.0094308   -4.8467511    4923.3635            1 
  709000     2.014062   -4.8229875    4895.4893            1 
  710000    2.0185019   -4.8417054    4876.4205            1 
  711000    1.9671528   -4.8126557     4918.831            1 
  712000    2.0034636    -4.792706    4926.3965            1 
  713000    2.0338394   -4.7866266    4892.0451            1 
  714000    1.9878609   -4.8218481    4929.7067            1 
  715000    2.0099103   -4.8161963    4914.7183            2 
  716000    1.9937377   -4.7278267    4922.5824            2 
  717000    2.0223456   -4.7765919    4907.5697            1 
  718000    2.0067859   -4.7901581    4938.7654       -1e+20 
  719000      2.01022   -4.8210469    4883.6703            1 
  720000    2.0129948   -4.8020583    4926.3549            1 
  721000    1.9851377   -4.8698792    4907.3224            1 
  722000    1.9896418   -4.7960058    4903.1763       -1e+20 
  723000    2.0393632   -4.7847867    4950.4587            1 
  724000    1.9805274   -4.7844869    4927.8091            2 
  725000    2.0049331   -4.8337887    4927.5079            1 
  726000    1.9437208   -4.7948473     4910.408            1 
  727000    2.0577706   -4.7852458    4942.9318            1 
  728000    2.0060782   -4.8065389    4933.9067            1 
  729000    1.9967024    -4.795522    4899.4632            1 
  730000    2.0002155    -4.779852     4934.979       -1e+20 
  731000    1.9897075    -4.857468    4916.9926            1 
  732000    1.9898458   -4.7908146    4911.9265            1 
  733000    1.9946833   -4.8223349    4932.2301            1 
  734000    2.0095319   -4.7684402    4972.1691            1 
  735000    2.0222789   -4.7735476    4952.9315            1 
  736000    1.9844235   -4.7911141    4929.0335            1 
  737000     2.023613   -4.8006201    4918.4667       -1e+20 
  738000    1.9638346    -4.873394    4900.8284            1 
  739000    1.9684007   -4.8022942    4934.3534            2 
  740000    2.0414247   -4.8249988    4909.5223            1 
  741000    2.0771051   -4.7577811    4931.4817            1 
  742000    2.0279324   -4.8225624    4905.3947            1 
  743000    1.9981143   -4.7831161    4960.7608            1 
  744000     2.005063    -4.799474    4936.4208            2 
  745000    1.9923172   -4.7773277    4908.8642       -1e+20 
  746000    1.9684822   -4.8352286    4891.6377       -1e+20 
  747000    2.0395124   -4.8390988    4912.5285            1 
  748000    1.9774705   -4.7521921    4943.6194            1 
  749000    1.9476704   -4.8163999    4906.8937       -1e+20 
  750000     2.019492   -4.7644631    4940.2463       -1e+20 
  751000     1.975579    -4.806776    4915.8988            1 
  752000    2.0133029   -4.7792741    4953.2505            1 
  753000    1.9436542   -4.7842478    4924.3175            1 
  754000    1.9991912   -4.7613568      4951.34            1 
  755000    2.0353668   -4.7512094    4929.4276            1 
  756000    1.9873778   -4.8257147    4871.7925            1 
  757000    1.9854719   -4.7623065    4923.8948            1 
  758000    1.9975253   -4.8167238    4906.3107            2 
  759000    1.9587151   -4.7919044    4930.4953       -1e+20 
  760000    1.9964646   -4.7960497    4931.9961            2 
  761000    1.9904167   -4.7806414    4881.4104            1 
  762000    1.9983664   -4.8157008    4913.2926            1 
  763000    2.0216909   -4.7976546    4938.4771            2 
  764000    1.9706015   -4.8091971    4913.6367            1 
  765000      2.02152   -4.8009052    4879.4573            3 
  766000    2.0091624    -4.782335    4941.3797       -1e+20 
  767000    1.9522706   -4.7937369    4939.8116            1 
  768000    1.9837022   -4.8288366    4874.1645            1 
  769000    2.0111102   -4.8436282    4897.6673            1 
  770000    1.9946227   -4.7403853    4939.3135            3 
  771000    1.9928276   -4.7578429    4934.0924            1 
  772000    2.0277821   -4.8290295     4894.382            1 
  773000    2.0297837    -4.808404    4954.9952            1 
  774000    2.0179037   -4.7984711    4940.8725            2 
  775000     1.948929   -4.7971706    4910.1538            1 
  776000    2.0522733   -4.7834182    4953.0835            2 
  777000    2.0155346   -4.8290064    4916.5588            1 
  778000    1.9746009    -4.810558    4904.9353            1 
  779000    2.0033224   -4.8005025    4980.5809            1 
  780000    2.0273455   -4.8274356    4881.4445            1 
  781000    1.9942518   -4.7548135    4929.0136            1 
  782000    2.0107642   -4.8311889    4910.1247            1 
  783000    2.0112363   -4.8067328    4891.9381            1 
  784000    2.0115245   -4.7889465    4910.5535       -1e+20 
  785000    2.0049396    -4.846129     4933.556            1 
  786000    2.0131033   -4.7833976    4928.1341            1 
  787000    2.0094165   -4.8211985    4924.1518            1 
  788000     2.018409   -4.8672811    4881.5918       -1e+20 
  789000    2.0461611   -4.8139531    4954.2923            2 
  790000    2.0224077   -4.7951847    4908.6527            1 
  791000    2.0086538   -4.7561164    4934.5853            1 
  792000    2.0074266   -4.8297979    4939.5633            1 
  793000    1.9549023   -4.7924143    4914.4787            1 
  794000    2.0090616   -4.7644683    4921.4673            2 
  795000    1.9967249    -4.787649    4921.1934            1 
  796000    2.0090955   -4.7604102    4910.7114            1 
  797000    1.9709181   -4.8177723     4923.128            1 
  798000    1.9939689   -4.7921364     4898.779            2 
  799000    2.0638994   -4.8032306    4943.0712            1 
  800000    2.0262286   -4.7854493    4931.0094            2 
  801000    1.9768455   -4.7955035    4896.7743            2 
  802000    1.9735499   -4.8270982    4913.4898            1 
  803000    2.0450767   -4.8430169     4925.676            1 
  804000    2.0362289   -4.7905755    4908.2673            1 
  805000    2.0499368   -4.8411685    4907.8195            1 
  806000     2.010656   -4.8214583    4963.2914            1 
  807000    2.0169942   -4.8006526    4923.6426            1 
  808000    1.9720664   -4.7902216     4935.114            1 
  809000    2.0312251   -4.7646804    4941.9873       -1e+20 
  810000    1.9692965    -4.829757    4921.3309            2 
  811000    1.9896385   -4.8215753    4893.2185            1 
  812000    1.9649556   -4.7753959     4938.904            1 
  813000    2.0082692   -4.8056614    4927.8963            2 
  814000    1.9944816   -4.7957562    4946.3214            1 
  815000    1.9699302   -4.7829895    4952.2314            2 
  816000    1.9835258    -4.804719    4934.8717            2 
  817000     1.982125   -4.7844715    4912.6907            1 
  818000    2.0464754    -4.799947    4874.1014            1 
  819000    1.9597777   -4.8147763    4945.8289            1 
  820000    1.9989154   -4.7737557    4911.0225            1 
  821000    2.0090612   -4.7697153    4919.7169            1 
  822000    2.0035688   -4.7792516    4923.7369            1 
  823000    2.0037821   -4.8146759    4952.2304            1 
  824000    1.9884278   -4.7968512    4884.2954            1 
  825000    2.0195099   -4.7519132    4907.3239       -1e+20 
  826000    1.9884733   -4.8538889    4893.7419            1 
  827000    2.0121642   -4.8208846    4937.7537            1 
  828000    1.9635736   -4.8543896    4904.8094            1 
  829000     1.997069   -4.7878624    4915.6889       -1e+20 
  830000    1.9333599   -4.7715886    4923.4538            2 
  831000    1.9744758   -4.7239966    4970.5596            1 
  832000    2.0051923   -4.7857373    4928.1892            1 
  833000    1.9859851   -4.8083351    4925.9009            1 
  834000      1.99555   -4.7989871    4902.8543            1 
  835000    2.0149328   -4.8104059    4917.6899            1 
  836000    2.0277672   -4.8165514    4928.6276            1 
  837000    1.9896867   -4.7785471    4914.5452            1 
  838000    1.9957092   -4.8406576    4936.1821            1 
  839000    1.9957281   -4.7918647    4892.5351            1 
  840000    1.9817381   -4.7940413    4925.7227            1 
  841000    1.9345581   -4.8684991    4898.2691            2 
  842000    2.0028146   -4.7621411    4926.1514            1 
  843000    1.9925663   -4.7928523     4910.407            1 
  844000    1.9891327   -4.8523611    4898.7594       -1e+20 
  845000    2.0401085   -4.8131928    4936.0967            1 
  846000    2.0076642   -4.8031778    4919.8909       -1e+20 
  847000     1.986745   -4.8084347    4937.1619            1 
  848000     1.978741   -4.8009419     4907.549            1 
  849000    2.0573092   -4.7786977    4909.1759            2 
  850000    2.0454068   -4.8092941    4927.7463            1 
  851000    1.9656419   -4.7825069     4929.143            1 
  852000    1.9675613   -4.7424298    4961.9356            1 
  853000    1.9636813    -4.775862    4899.2277            1 
  854000    2.0231343   -4.8297943    4900.0175            1 
  855000    1.9886562   -4.8269163    4902.5184       -1e+20 
  856000    1.9971451   -4.7691006    4903.1035            1 
  857000    2.0071348   -4.8455964    4911.8811            1 
  858000    1.9827175   -4.7924464    4940.7906       -1e+20 
  859000    2.0154252    -4.778491    4906.5547            1 
  860000    1.9252916    -4.798262    4910.9587            1 
  861000    2.0519961   -4.7951583    4947.2133       -1e+20 
  862000    2.0098192   -4.8130029    4936.8983            1 
  863000    2.0322828   -4.7693418    4934.5116            1 
  864000    2.0133156   -4.7995343    4953.9275            1 
  865000    2.0082471    -4.771031    4943.4653            1 
  866000    2.0140152    -4.841242    4895.0367            2 
  867000    1.9884381   -4.8069566    4948.0052            1 
  868000    2.0077207   -4.7753944    4949.1973            1 
  869000    1.9971975    -4.761944    4935.2264            2 
  870000    2.0009003   -4.8435696    4900.8914            1 
  871000    1.9818318   -4.8348235    4883.4729            1 
  872000    2.0124579   -4.7664582    4920.1262            1 
  873000    2.0135294   -4.7805948    4974.1782            1 
  874000    2.0162091   -4.7888943    4895.0364            1 
  875000    1.9821506   -4.7990396      4924.26            1 
  876000    1.9872908   -4.7750396    4897.7165       -1e+20 
  877000    1.9835419   -4.7726292    4931.7969       -1e+20 
  878000    1.9956081   -4.8482016    4903.8526            1 
  879000    2.0228989   -4.8377446    4896.9484       -1e+20 
  880000    1.9611671   -4.8048502    4939.3137            1 
  881000    1.9869095   -4.8365132    4886.3921            1 
  882000    2.0021284   -4.8144044    4897.8538            1 
  883000    1.9816774   -4.8213905    4905.8086            1 
  884000    2.0040252   -4.8040232    4896.9009            2 
  885000    2.0274197   -4.8135818    4931.6421       -1e+20 
  886000    2.0115201   -4.8380679    4902.2621            1 
  887000    2.0311845    -4.776958    4933.1422            1 
  888000    2.0399006   -4.7685248    4973.1031       -1e+20 
  889000    2.0043338   -4.7899459    4939.4663            1 
  890000     2.005323   -4.8359051    4897.6744            2 
  891000    1.9973077   -4.8093386    4914.8964            1 
  892000    2.0778818   -4.8143766     4975.348            2 
  893000    2.0332105   -4.7868906    4914.7876            1 
  894000    2.0284998   -4.8484633    4902.6453            1 
  895000    1.9576176   -4.7853216    4878.1635            2 
  896000    1.9919763   -4.7973736    4944.3665            1 
  897000    2.0157171   -4.7697072    4915.8561            1 
  898000    1.9861555   -4.8242359    4930.2391       -1e+20 
  899000    1.9935649   -4.8489188    4917.7353            1 
  900000     1.971683   -4.8466167     4925.695            1 
  901000     2.043516   -4.7792161    4905.0404            1 
  902000    2.0498602   -4.8385567    4924.2922            2 
  903000    1.9890507   -4.8631722    4865.8348            1 
  904000    1.9887455   -4.8182518    4963.3866            1 
  905000    1.9828024   -4.7784208    4949.6486       -1e+20 
  906000     2.014226   -4.8001965    4923.4809            1 
  907000    2.0002401   -4.8029787    4934.5004            1 
  908000    1.9821609   -4.7739097    4920.4883            1 
  909000    1.9962563   -4.8656098     4902.963            1 
  910000    2.0531631   -4.7544633    4928.2121            1 
  911000     2.031873   -4.7999438     4918.743            1 
  912000    1.9915738   -4.8094984    4931.2342            1 
  913000    1.9877497   -4.7493089    4961.3429            1 
  914000    1.9826713   -4.7864427    4924.9795            1 
  915000    2.0408933   -4.7975226    4929.9123            1 
  916000    2.0103826   -4.7846012    4931.4964       -1e+20 
  917000    1.9425983   -4.8388165    4906.9471            1 
  918000    2.0094535    -4.780666    4910.4064            1 
  919000     1.989805   -4.7986502    4899.5953            1 
  920000    2.0312124   -4.8390273    4884.8813       -1e+20 
  921000    2.0171593   -4.7753013    4924.6841            2 
  922000    1.9889722   -4.7678214    4919.0505            3 
  923000    1.9996005   -4.7386244    4942.8948            1 
  924000    1.9763397   -4.7910514    4912.5078            1 
  925000    2.0280765   -4.8190477    4941.4035            1 
  926000    2.0070518   -4.7536316    4935.2687            1 
  927000     2.038383    -4.767732    4931.4446            3 
  928000    2.0205502   -4.7712003    4936.9159       -1e+20 
  929000    2.0124376   -4.8231404    4906.1351            1 
  930000      1.99362   -4.8204442    4893.3094            1 
  931000    2.0037916     -4.76205    4948.8993            2 
  932000    2.0241744   -4.7671638    4915.7911            1 
  933000    1.9987888   -4.8151382     4916.281            2 
  934000     1.998758    -4.787108    4942.3925            1 
  935000    2.0576611   -4.7678587    4916.7173            1 
  936000    2.0448488   -4.8003424    4953.0454            1 
  937000    2.0012658   -4.7812225    4918.2101            1 
  938000    1.9892493   -4.7618968    4922.6072            1 
  939000    1.9900954   -4.7806845    4943.7984            4 
  940000     2.070073   -4.7937419    4962.7622            1 
  941000    2.0354247   -4.8026809    4902.5211            1 
  942000    2.0074472    -4.802252    4928.6461            1 
  943000    1.9984309   -4.8101487    4902.9749            1 
  944000    1.9951455   -4.8018576    4903.4006       -1e+20 
  945000    1.9612034   -4.8718697    4897.3955       -1e+20 
  946000    1.9659944   -4.8033721    4891.2311            1 
  947000    2.0363223   -4.7866776    4920.1609            2 
  948000    1.9667289   -4.7660127    4930.1947            1 
  949000    1.9765715   -4.7946398    4932.5307            2 
  950000    2.0317078   -4.7816572     4946.362            1 
  951000    2.0217184   -4.7769396    4970.8876            1 
  952000    2.0217557   -4.7957494    4916.4615            1 
  953000    1.9512507    -4.755568    4964.3726       -1e+20 
  954000    1.9609549   -4.7472382    4931.1924            1 
  955000    1.9682567   -4.7912821    4923.1481            2 
  956000    2.0086585   -4.8181643    4915.0015            1 
  957000    2.0121527   -4.8375364    4937.6006            1 
  958000     1.977511   -4.8626439    4933.4547       -1e+20 
  959000    1.9665665   -4.7342486    4933.3517            1 
  960000    2.0194352   -4.8193061    4897.3407            1 
  961000    2.0129423   -4.7646826     4933.127            2 
  962000    2.0143492   -4.8395499    4912.8969            1 
  963000    1.9921198   -4.7411442    4963.7629            1 
  964000    2.0004726   -4.8054904    4878.8352            1 
  965000    1.9995494   -4.7978121    4948.8189            3 
  966000     2.018344   -4.8265946    4902.6032            1 
  967000    2.0544804   -4.8259102    4915.8565            2 
  968000    2.0397179    -4.824026    4900.7144            1 
  969000    2.0086091   -4.8211296     4895.033            1 
  970000    1.9401653   -4.8609523    4905.5731            1 
  971000    1.9649109   -4.7632871    4926.6322            1 
  972000     2.013043   -4.8202158    4921.5775            1 
  973000    2.0335527    -4.731211    4947.8881       -1e+20 
  974000    1.9978109   -4.8411036    4922.9211            1 
  975000    2.0289605   -4.8368057    4917.2456       -1e+20 
  976000    1.9599736   -4.8085096    4929.1588       -1e+20 
  977000     1.978523   -4.7729372     4928.029            1 
  978000    1.9987904   -4.7937297    4910.8547            1 
  979000    1.9995098   -4.8126225    4917.7332            1 
  980000     1.988794   -4.8423473    4884.9615            1 
  981000    1.9759111   -4.8318446     4866.114            2 
  982000    2.0157401   -4.7791677    4953.1114            1 
  983000    2.0028137   -4.8285397    4905.7151       -1e+20 
  984000     1.965395   -4.7618802    4934.3591            1 
  985000    2.0250516   -4.8623956    4876.7175            1 
  986000    2.0134834   -4.8144052    4947.5515       -1e+20 
  987000    2.0094253   -4.7994529    4912.3873            1 
  988000    2.0150637   -4.7438054    4940.0989            1 
  989000    2.0434532    -4.807512    4913.1029            1 
  990000    2.0094881   -4.7629281    4921.9588            1 
  991000    1.9899662   -4.7776245    4941.2434            1 
  992000    1.9560639   -4.8455613    4890.5374            2 
  993000    2.0476999   -4.8078542    4923.4083            1 
  994000    2.0201522   -4.7497558    4950.1718            1 
  995000    2.0287257   -4.8178322     4932.189            1 
  996000    1.9456512   -4.8222585    4928.3575       -1e+20 
  997000    2.0450768   -4.7563792    4922.7486            1 
  998000    1.9666516   -4.8377866    4907.8437            2 
  999000    2.0294988   -4.7235166     4959.026            3 
 1000000    1.9959714   -4.8638603    4919.7097       -1e+20 
 1001000    1.9442427   -4.7907056    4916.1737            1 
 1002000    2.0037819   -4.7706296    4913.3371            2 
 1003000    2.0248109   -4.8280625    4890.1674            1 
 1004000    1.9624669   -4.7426635    4929.7311       -1e+20 
Loop time of 1976.28 on 48 procs for 1000000 steps with 4000 atoms

Performance: 87437.062 tau/day, 506.002 timesteps/s
99.4% CPU use with 48 MPI tasks x no OpenMP threads

MPI task timing breakdown:
Section |  min time  |  avg time  |  max time  |%varavg| %total
---------------------------------------------------------------
Pair    | 103.06     | 110.24     | 116.75     |  34.4 |  5.58
Neigh   | 20.367     | 20.626     | 21.169     |   3.5 |  1.04
Comm    | 114.28     | 118.74     | 125.97     |  26.2 |  6.01
Output  | 1.3388     | 1.3395     | 1.3556     |   0.2 |  0.07
Modify  | 1708       | 1714.3     | 1720.9     |   7.4 | 86.74
Other   |            | 11.06      |            |       |  0.56

Nlocal:        83.3333 ave          95 max          74 min
Histogram: 1 3 9 10 6 8 8 1 0 2
Nghost:        1433.48 ave        1459 max        1402 min
Histogram: 1 0 1 4 13 10 11 5 2 1
Neighs:        7716.77 ave        8735 max        6706 min
Histogram: 2 2 4 11 4 6 11 6 0 2
FullNghs:      15434.2 ave       17625 max       13436 min
Histogram: 1 3 8 7 7 8 9 3 0 2

Total # of neighbors = 740843
Ave neighs/atom = 185.21075
Neighbor list builds = 83428
Dangerous builds = 2952

#clear
#
#next RN
#
#jump SELF
Total wall time: 0:32:57
