
units lj                  # Use reduced LJ style units
atom_style atomic         # Uncharged point particles
atom_modify map hash      # Needed for indexing of clusters etc
                          # Used to be able to find where atoms are in relation to each other.

lattice fcc 1.0 spacing 1 1 1
Lattice spacing in x,y,z = 1.5874011 1.5874011 1.5874011
region box block 0 10 0 10 0 10 units lattice
create_box 2 box
Created orthogonal box = (0.0000000 0.0000000 0.0000000) to (15.874011 15.874011 15.874011)
  3 by 4 by 4 MPI processor grid
create_atoms 1 box
Created 4000 atoms
  using lattice units in orthogonal box = (0.0000000 0.0000000 0.0000000) to (15.874011 15.874011 15.874011)
  create_atoms CPU = 0.002 seconds
set type 1 type/fraction 2 0.25 78393
Setting atom values ...
  1031 settings made for type/fraction
mass 1 1.0
mass 2 1.0
pair_style lj/cut  3.5
pair_modify tail  yes
pair_coeff 1  1  1.0  1.0   # Intearaction between 1 and 1 set with epsilon = 1 and sigma = 1
pair_coeff 1  2  1.5  0.8
pair_coeff 2  2  0.5  0.88

write_data data.0
System init for write_data ...
Neighbor list info ...
  update every 1 steps, delay 10 steps, check yes
  max neighbors/atom: 2000, page size: 100000
  master list distance cutoff = 3.8
  ghost atom cutoff = 3.8
  binsize = 1.9, bins = 9 9 9
  1 neighbor lists, perpetual/occasional/extra = 1 0 0
  (1) pair lj/cut, perpetual
      attributes: half, newton on
      pair build: half/bin/atomonly/newton
      stencil: half/bin/3d
      bin: standard
WARNING: Not all mixed pair coeffs generated from mixing. Use write_data with 'pair ij' option to store all pair coeffs. (../write_data.cpp:312)


#############################
#   M E L T   S Y S T E M   #
#############################

velocity all create 2.4 6583654 mom yes dist gaussian # Assign velocities
                                                    # Temperature 2.4, random number seed, zero linear momentum
                                                                                # Gaussian distribution

timestep 0.002   # simulation timestep
thermo 1000       # output thermodynamic data every 1000 steps bf 100

# Define a fix  in this case with index 1 applied to all
# particles in the simulation. This fix is for simulations
# in the anisotropic NPT ensemble. Note that we use the MTK
# correction.
fix 1 all npt temp 2.4 2.4 0.1 iso 5.68 5.68 0.5 mtk yes tchain 5 pchain 5 # Use NPT ensemble
                                                                         # Set temperature and pressure and damping
                                                                         # Numbers of thermostats in chain and in barostat
run 10000          # run for 10000 steps
Per MPI rank memory allocation (min/avg/max) = 3.642 | 3.644 | 3.648 Mbytes
Step Temp E_pair E_mol TotEng Press Volume 
       0          2.4   -6.7340002            0   -3.1349002   -3.8290783         4000 
    1000    2.3360965   -4.9418408            0   -1.4385722    5.8204702    4276.1502 
    2000    2.4421272    -4.954683            0    -1.292408    5.7530281    4280.9788 
    3000    2.4105533   -4.9536496            0   -1.3387235    5.8375134    4272.5058 
    4000    2.3872988   -4.9237454            0   -1.3436925    5.8090833    4289.8388 
    5000    2.3153177   -4.9826224            0   -1.5105142    5.2628908    4302.9044 
    6000    2.3384154   -4.8642758            0   -1.3575296     5.789035    4316.2841 
    7000    2.3912532   -4.9338238            0   -1.3478407    5.4181415    4333.0647 
    8000    2.3531429    -4.852907            0    -1.324075    5.8768083    4315.0299 
    9000    2.4528244   -4.9130463            0   -1.2347295    5.6120214    4316.3304 
   10000    2.4196406    -4.889346            0   -1.2607924    6.0084399    4289.7823 
Loop time of 2.32979 on 48 procs for 10000 steps with 4000 atoms

Performance: 741697.623 tau/day, 4292.232 timesteps/s
99.6% CPU use with 48 MPI tasks x no OpenMP threads

MPI task timing breakdown:
Section |  min time  |  avg time  |  max time  |%varavg| %total
---------------------------------------------------------------
Pair    | 1.0245     | 1.0747     | 1.1396     |   2.8 | 46.13
Neigh   | 0.19532    | 0.20758    | 0.22478    |   1.1 |  8.91
Comm    | 0.72035    | 0.8002     | 0.85532    |   3.6 | 34.35
Output  | 0.00024045 | 0.00024541 | 0.00030732 |   0.0 |  0.01
Modify  | 0.20957    | 0.23221    | 0.25554    |   2.4 |  9.97
Other   |            | 0.01488    |            |       |  0.64

Nlocal:        83.3333 ave          90 max          75 min
Histogram: 1 2 6 3 8 3 11 4 4 6
Nghost:        1568.48 ave        1606 max        1535 min
Histogram: 1 1 7 8 12 6 7 4 0 2
Neighs:        8892.98 ave        9834 max        7877 min
Histogram: 2 2 9 5 7 5 4 7 2 5

Total # of neighbors = 426863
Ave neighs/atom = 106.71575
Neighbor list builds = 904
Dangerous builds = 191

# Equilibrate just above the melting temperature to avoid step fn in T

fix 1 all npt temp 1.25 1.25 0.1 iso 5.68 5.68 0.5 mtk yes tchain 5 pchain 5
run 2000
Per MPI rank memory allocation (min/avg/max) = 3.643 | 3.645 | 3.649 Mbytes
Step Temp E_pair E_mol TotEng Press Volume 
   10000    2.4196406    -4.889346            0   -1.2607924    6.0084399    4289.7823 
   11000    1.2164124   -6.7064264            0    -4.882264    5.7028082    3490.3489 
   12000     1.272934   -6.6847049            0   -4.7757812    5.4707271    3514.6572 
Loop time of 0.537376 on 48 procs for 2000 steps with 4000 atoms

Performance: 643125.473 tau/day, 3721.791 timesteps/s
99.6% CPU use with 48 MPI tasks x no OpenMP threads

MPI task timing breakdown:
Section |  min time  |  avg time  |  max time  |%varavg| %total
---------------------------------------------------------------
Pair    | 0.24332    | 0.26036    | 0.28158    |   1.9 | 48.45
Neigh   | 0.035582   | 0.037734   | 0.0403     |   0.5 |  7.02
Comm    | 0.16549    | 0.18754    | 0.2074     |   2.4 | 34.90
Output  | 5.1654e-05 | 5.2936e-05 | 6.7189e-05 |   0.0 |  0.01
Modify  | 0.042703   | 0.046949   | 0.054065   |   1.2 |  8.74
Other   |            | 0.004733   |            |       |  0.88

Nlocal:        83.3333 ave          92 max          74 min
Histogram: 1 0 8 8 4 6 13 5 1 2
Nghost:        1793.17 ave        1831 max        1775 min
Histogram: 6 9 13 7 2 1 7 2 0 1
Neighs:        10881.2 ave       12279 max        9611 min
Histogram: 2 3 7 6 13 6 2 4 1 4

Total # of neighbors = 522299
Ave neighs/atom = 130.57475
Neighbor list builds = 141
Dangerous builds = 9

#############################
# L I N E A R  Q U E N C H  #
#############################

# Define solid atoms. This closely follows ten Wolde  Ruiz-Montero and Frenkel  Faraday Discuss  1996  104  93-110
# Compute components of the per-atom q6 vector
compute q6 all orientorder/atom degrees 1 6 components 6 nnn NULL cutoff 1.3 # compute the Q6 parameter.
                                                                             # Use all neighbours within 1.3 unit cell.

# get number of connections
compute coord_number all coord/atom orientorder q6 0.5

# An atom is solid if it has 8 or more connections (of a possible 14)
variable is_solid atom c_coord_number>=8
group solid dynamic all var is_solid    # Must be dynamic to update
dynamic group solid defined

# do clustering
compute cluster solid cluster/atom 1.3 # Create a cluster where all atoms within are solid and max 1.3 units from another member

# define chunks one chunk per cluster
compute clus_chunks solid chunk/atom c_cluster nchunk every compress yes  # Says which atoms are in which chunk

# count the size of each chunk
compute size_chunks solid property/chunk clus_chunks count


# Find the maximum entry in the vector of chunk sizes
variable max_n equal max(c_size_chunks)


# Thermo style which includes this variable
# thermo_style custom step temp pe vol v_max_n

thermo ${N}  # Print the thermo information every 100 steps
thermo 1000  

# Reset the npt fix at a lower temperature (below freezing)
fix 1  all npt temp  ${temp} ${temp}  0.1  iso  5.68  5.68  0.5  mtk yes tchain  5  pchain  5
fix 1  all npt temp  0.45 ${temp}  0.1  iso  5.68  5.68  0.5  mtk yes tchain  5  pchain  5
fix 1  all npt temp  0.45 0.45  0.1  iso  5.68  5.68  0.5  mtk yes tchain  5  pchain  5

dump dmp2 all dcd ${N} traj.dcd
dump dmp2 all dcd 1000 traj.dcd


compute msd all msd com yes
variable twopoint equal c_msd[4]/6/(step*dt+1.0e-6)
fix 9 all vector 10 c_msd[4]
variable fit equal slope(f_9)/6/(10*dt)
thermo_style custom step temp pe c_msd[4] v_twopoint v_fit v_max_n

fix 1 all npt temp 1.25 ${temp} 0.1 iso 5.68 5.68 0.5 mtk yes tchain 5 pchain 5
fix 1 all npt temp 1.25 0.45 0.1 iso 5.68 5.68 0.5 mtk yes tchain 5 pchain 5
run 2000000 # 5000000  # Run for this many steps
Neighbor list info ...
  update every 1 steps, delay 10 steps, check yes
  max neighbors/atom: 2000, page size: 100000
  master list distance cutoff = 3.8
  ghost atom cutoff = 3.8
  binsize = 1.9, bins = 9 9 9
  4 neighbor lists, perpetual/occasional/extra = 1 3 0
  (1) pair lj/cut, perpetual
      attributes: half, newton on
      pair build: half/bin/atomonly/newton
      stencil: half/bin/3d
      bin: standard
  (2) compute orientorder/atom, occasional
      attributes: full, newton on
      pair build: full/bin/atomonly
      stencil: full/bin/3d
      bin: standard
  (3) compute coord/atom, occasional
      attributes: full, newton on
      pair build: full/bin/atomonly
      stencil: full/bin/3d
      bin: standard
  (4) compute cluster/atom, occasional
      attributes: full, newton on
      pair build: full/bin/atomonly
      stencil: full/bin/3d
      bin: standard
Per MPI rank memory allocation (min/avg/max) = 9.784 | 9.791 | 9.797 Mbytes
Step Temp PotEng c_msd[4] v_twopoint v_fit v_max_n 
   12000     1.272934   -6.6847049  1.11328e-30 7.7311105e-33 8.3333333e+20            3 
   13000    1.2667898   -6.7325699   0.51064985 0.0032733964  0.041742216            1 
   14000    1.2556934   -6.7054755    0.9925321 0.0059079289  0.040318028            1 
   15000     1.229539   -6.7067584    1.4926096 0.0082922754  0.041108199            1 
   16000    1.2375642   -6.7465383    1.9084175 0.0099396742  0.039788945            1 
   17000    1.2419095   -6.7442073    2.4261672  0.011892976  0.039492027            1 
   18000    1.2348363   -6.7152279    2.9381213  0.013602413  0.039727391            3 
   19000    1.2373854   -6.7477438    3.5412306  0.015531713   0.04072724            1 
   20000    1.2507769   -6.7775256    4.0757583  0.016982326  0.041673507            1 
   21000    1.2727201   -6.7661699    4.5975187  0.018244121  0.042272355            2 
   22000     1.257434   -6.7060716    5.1498477  0.019506999  0.042757868            1 
   23000    1.2547138    -6.742935    5.6624676  0.020516187  0.043131057            2 
   24000    1.2487169   -6.7545698    6.1763745  0.021445744  0.043181524            2 
   25000    1.2474942   -6.7737012    6.7471108  0.022490369  0.043400424            1 
   26000    1.2553312   -6.7274536    7.1923637  0.023052447  0.043433666            2 
   27000    1.2528402     -6.75592    7.6785226  0.023699143  0.043364376            2 
   28000    1.2528373   -6.7039062    8.1754368  0.024331657   0.04323926            1 
   29000    1.2637153   -6.7508729    8.6943557   0.02498378  0.043119453            3 
   30000    1.2687736   -6.7791786    9.1930943  0.025536373   0.04304573            1 
   31000    1.2450459   -6.7162408    9.6457885  0.025929539  0.042941088            1 
   32000    1.2510535   -6.7694488    10.111783  0.026332769  0.042814662            2 
   33000    1.2033931   -6.7256772    10.693132  0.027002857  0.042731206            1 
   34000    1.2402259    -6.733761    11.176157  0.027392541  0.042663878            2 
   35000    1.2583012   -6.7314463    11.604838  0.027630566   0.04257157            1 
   36000    1.2446088   -6.7287915    12.109974  0.028032347  0.042478491            1 
   37000    1.2245069   -6.7685407    12.491695  0.028134449  0.042362925            1 
   38000    1.2063022   -6.7188373    12.935144  0.028366543  0.042174596            1 
   39000    1.2419463   -6.7461744    13.501729  0.028849848  0.042036499            1 
   40000    1.2568883   -6.7626439    14.184163   0.02955034  0.042007629            3 
   41000    1.2405643   -6.8088151    14.670767  0.029818632   0.04203557            1 
   42000    1.2550252   -6.7216947    15.159971  0.030079307  0.042050077            2 
   43000    1.2520288   -6.7530051    15.602715  0.030237819  0.042055474            1 
   44000     1.217983   -6.7594866     16.17228  0.030629317  0.042037882            1 
   45000    1.2654488   -6.7490544    16.580792  0.030705169   0.04200896            1 
   46000     1.191912   -6.7700613    17.054437  0.030895719  0.041950873            1 
   47000    1.2383127   -6.7062927    17.501075  0.031030275  0.041881115            3 
   48000     1.245274   -6.7533241    17.979133  0.031213773  0.041824488            1 
   49000    1.2365406   -6.7720365    18.474277  0.031418837  0.041769842            1 
   50000     1.256454   -6.7456914    19.005564   0.03167594  0.041719936            1 
   51000    1.2362482   -6.7474304    19.579799  0.031993135  0.041687819            1 
   52000     1.231707   -6.7639896    20.094227  0.032202287  0.041680381            2 
   53000    1.2293803   -6.7794321    20.436342  0.032132613  0.041679607            3 
   54000    1.2410126   -6.7397322    20.918151  0.032281097  0.041645614            1 
   55000    1.2169325    -6.771297    21.402024  0.032427309  0.041598011            2 
   56000    1.2356539   -6.8068817    21.896808  0.032584535   0.04156187            3 
   57000    1.2119441   -6.7302496     22.28501  0.032580423   0.04150843            2 
   58000    1.2441116   -6.7522698    22.635484  0.032522246  0.041426028            1 
   59000    1.2296076   -6.7619258    22.978424    0.0324554  0.041337289            1 
   60000    1.2255532   -6.7528633    23.448981  0.032568029  0.041233185            1 
   61000    1.2168738   -6.7494617    23.845989  0.032576488  0.041128759            1 
   62000    1.2161186   -6.8071044    24.221666  0.032556002  0.041009653            1 
   63000    1.2429062   -6.7484363    24.700263  0.032672305  0.040888971            3 
   64000    1.2153453   -6.7308497    25.099483  0.032681618  0.040776228            2 
   65000     1.225583   -6.7778256    25.526598  0.032726408   0.04065959            1 
   66000    1.2490849   -6.7434499    26.082793  0.032932819  0.040556687            2 
   67000    1.2165023   -6.7475687    26.544605  0.033015678   0.04046015            2 
   68000    1.2504219    -6.769662    27.185672  0.033315774  0.040390586            3 
   69000    1.2112726   -6.7245423    27.680457  0.033430503  0.040333735            2 
   70000    1.1991185   -6.7558509    28.029042  0.033367907  0.040284112            2 
   71000    1.2309329   -6.7608898    28.318982  0.033238242  0.040212015            1 
   72000    1.2153219   -6.7740826    28.722288  0.033243388  0.040130181            2 
   73000    1.2163143   -6.7833864     29.17286  0.033302352  0.040052221            1 
   74000    1.2276316    -6.777406    29.696205  0.033441672  0.039982432            2 
   75000    1.2433936   -6.7760344    30.186226  0.033540251  0.039920739            3 
   76000    1.2301946   -6.7942935    30.625561  0.033580659  0.039863365            1 
   77000    1.2303717   -6.7828066    31.343751  0.033921808  0.039822272            4 
   78000    1.2109359   -6.7614109    31.949227  0.034133789  0.039801767            3 
   79000    1.2586835   -6.8081701    32.187198   0.03395274  0.039779877            1 
   80000    1.2145928   -6.7386108      32.7307  0.034094479  0.039756965            4 
   81000    1.2362771   -6.7757693     33.40216  0.034364362  0.039745502            1 
   82000    1.2105957   -6.7448388    34.068301  0.034622257  0.039748747            2 
   83000    1.2231005   -6.7609658    34.355429  0.034493402  0.039747415            3 
   84000    1.2235278     -6.75883    34.765911  0.034489991  0.039746403            1 
   85000    1.2062729   -6.7922168    35.220076  0.034529486  0.039732937            2 
   86000    1.2424779   -6.8003581    35.677051  0.034570786  0.039716994            1 
   87000    1.2182669   -6.7935318    36.245962  0.034718354  0.039708317            1 
   88000    1.2319585   -6.7674244    36.435966  0.034503755  0.039686935            2 
   89000     1.197828   -6.7882068    37.051621  0.034692529  0.039668379            2 
   90000    1.2077224   -6.8153106    37.432415  0.034659643  0.039657605            4 
   91000    1.2167787   -6.7611313    37.848463  0.034659765  0.039637544            1 
   92000    1.2507104   -6.8272921    38.170578  0.034574798  0.039613792            1 
   93000    1.2315495   -6.7675232    38.733938  0.034707829   0.03958693            1 
   94000    1.2378216   -6.8236332    39.000045  0.034574508  0.039553786            2 
   95000    1.2260996   -6.7956539    39.312953  0.034485046  0.039509262            2 
   96000    1.2305838   -6.7946984    39.858203  0.034599135  0.039469582            3 
   97000    1.1976115   -6.8276627     40.39031  0.034699579  0.039439165            3 
   98000    1.2170016   -6.7457875    40.930279  0.034804659  0.039413421            1 
   99000    1.1901007    -6.787532    41.195433   0.03467629  0.039382033            2 
  100000    1.1991106   -6.7865577    41.639758  0.034699798  0.039349119            2 
  101000     1.207616   -6.8061629    42.082413  0.034721463  0.039318589            1 
  102000    1.2251889   -6.7924275    42.618952  0.034819405  0.039286891            1 
  103000    1.1938603   -6.7982434    42.926158  0.034729901  0.039256031            2 
  104000     1.229712   -6.7760168    43.474886  0.034835646  0.039224902            1 
  105000    1.2162969     -6.82334     43.85148  0.034802761  0.039195162            2 
  106000    1.1978929   -6.7940725    44.088195  0.034660531  0.039164255            2 
  107000    1.2099637   -6.8056374    44.780308  0.034875629  0.039130074            1 
  108000    1.2055391   -6.7965073    45.091308  0.034792676   0.03910055            2 
  109000    1.2392611   -6.8006287    45.631656  0.034886587   0.03906565            3 
  110000    1.2115288   -6.8023968    46.019306  0.034863111  0.039033061            1 
  111000    1.1950863   -6.8243339    46.344108  0.034792874  0.038996243            2 
  112000    1.1920056   -6.8533106    46.661951  0.034718713  0.038957168            2 
  113000    1.2045489   -6.7547176     47.39209  0.034949919   0.03891893            2 
  114000    1.2332607   -6.7813257    47.903395  0.035017102  0.038887515            1 
  115000    1.2218886   -6.8009724    48.175765  0.034909975  0.038858183            3 
  116000    1.2022345   -6.8362991    48.401994  0.034771548  0.038827821            3 
  117000    1.2079646    -6.802394    48.936318  0.034854928  0.038796038            1 
  118000    1.1980267   -6.8254399    49.508948  0.034963946  0.038766611            2 
  119000    1.1831524   -6.8423186    49.804178  0.034876875  0.038738825            5 
  120000    1.2090918   -6.8009732    50.668675  0.035186579  0.038717569            1 
  121000    1.2160772   -6.8545419    51.154254  0.035230202   0.03869733            1 
  122000    1.1749976   -6.8235843    51.484768  0.035167191  0.038686798            1 
  123000    1.1872398   -6.8420121    52.243769  0.035395508  0.038678596            2 
  124000    1.1820129    -6.803382    52.753043  0.035452314   0.03867627            2 
  125000    1.2008346   -6.8500803    53.111884  0.035407922  0.038670776            1 
  126000    1.2213255   -6.8719078    53.571775  0.035431068  0.038665517            1 
  127000    1.2071867   -6.8672899    53.869997  0.035347767  0.038652921            2 
  128000    1.2225244   -6.8838815    54.297196  0.035349737  0.038640908            1 
  129000    1.2109545     -6.80022    54.935504  0.035488051  0.038633163            1 
  130000    1.2408631   -6.8260298     55.24387  0.035412737   0.03862735            3 
  131000    1.2038243   -6.8020949    55.927959  0.035577582  0.038618306            1 
  132000    1.1934028   -6.7875846    56.363791  0.035583201  0.038609983            2 
  133000    1.1975547   -6.8030725    56.875636  0.035636363    0.0386001            1 
  134000    1.1554762   -6.8435202    57.355469  0.035668824  0.038595849            1 
  135000    1.1950081   -6.8070858    57.732366  0.035637263  0.038593654            1 
  136000    1.1952612   -6.8321433    58.161072  0.035637912   0.03858918            4 
  137000    1.1856445   -6.7885214    58.538287   0.03560723   0.03858159            1 
  138000    1.2155605   -6.7813721    59.127072  0.035704753   0.03856911            2 
  139000     1.208672   -6.8462809     59.07119  0.035414382   0.03855762            2 
  140000    1.1973821   -6.8194533    59.706526  0.035539598   0.03854177            2 
  141000     1.191859    -6.852876    59.903692  0.035404073  0.038524312            2 
  142000    1.2043861   -6.8374671    60.464884  0.035484087  0.038505299            2 
  143000    1.2185148   -6.8456634    61.014171  0.035556043  0.038493908            1 
  144000    1.1849309     -6.84793     61.68424  0.035696898  0.038489044            1 
  145000    1.1555323   -6.8173212    62.288593  0.035798042  0.038487667            1 
  146000    1.2060633   -6.8297532    62.905359  0.035904885  0.038487096            3 
  147000    1.1841512   -6.8086988    63.185033  0.035819179  0.038486557            2 
  148000    1.1748572   -6.7965157    63.538609  0.035776244  0.038479277            1 
  149000    1.1993755   -6.8259679    63.545221  0.035539832  0.038465154            1 
  150000    1.1526887   -6.8222921    64.323106  0.035735059  0.038451301            3 
  151000    1.1946941   -6.8532998    64.587986  0.035644584   0.03843813            1 
  152000    1.1791969   -6.8312091    64.894111  0.035577912  0.038422755            1 
  153000    1.1969516   -6.8339868     65.55804  0.035706993  0.038404165            2 
  154000    1.2144382   -6.8059504    65.815005   0.03561418  0.038390026            2 
  155000    1.1674438    -6.844667    66.310649  0.035650887  0.038373471            2 
  156000    1.2040816   -6.8484357     66.88404  0.035728653  0.038361641            3 
  157000    1.1800773   -6.8479336    67.205846  0.035671893  0.038347615            2 
  158000    1.2082507   -6.8236399    67.418049  0.035558042  0.038330224            2 
  159000    1.1820903   -6.8073147    68.028569  0.035654386   0.03831125            2 
  160000    1.2174181   -6.8662857    68.323509  0.035585161  0.038291549            2 
  161000     1.202038   -6.8844142    68.689769  0.035553711  0.038278256            1 
  162000     1.187455   -6.8480821    69.169789  0.035581167  0.038258401            1 
  163000    1.1727557   -6.8508502     69.44595  0.035504064  0.038239872            1 
  164000    1.1818422   -6.8347321    70.202523  0.035672014  0.038223734            2 
  165000    1.1754595   -6.8466823     70.83863  0.035777086  0.038210131            1 
  166000    1.1784147   -6.8715037    70.973547   0.03562929  0.038197295            1 
  167000    1.2141335   -6.8377132     71.89388  0.035875189  0.038183427            3 
  168000    1.2106472   -6.8134712    72.283707  0.035855013  0.038173352            2 
  169000    1.1744772   -6.8412227    72.470806  0.035735111  0.038162653            1 
  170000    1.2198096   -6.8245137    73.134145  0.035850071  0.038152359            3 
  171000    1.1991799   -6.8234279    73.365251  0.035753046  0.038140639            2 
  172000    1.1637057   -6.8526631    74.010558  0.035857828  0.038131033            2 
  173000    1.1780018   -6.8059027    74.355558  0.035816742  0.038119997            1 
  174000    1.1807393   -6.8521497    74.783278  0.035815746  0.038111877            1 
  175000    1.1770856   -6.8238741    75.110001  0.035766667  0.038101321            1 
  176000    1.1706108    -6.849136    75.377665  0.035690182  0.038089067            1 
  177000    1.1451863   -6.8394824    75.830301  0.035701648  0.038076869            2 
  178000    1.1928048   -6.8955292    76.447732  0.035790136  0.038065236            5 
  179000    1.1832961   -6.8673637    76.910242  0.035805513  0.038054429            1 
  180000    1.2020808   -6.8877362    77.158782  0.035721658  0.038045828            1 
  181000    1.2184209   -6.9022378    78.032295  0.035926471  0.038039644            2 
  182000    1.1666234   -6.8660162    78.371084  0.035884196  0.038030264            1 
  183000    1.1846929   -6.8553491    78.756925  0.035863809  0.038020724            1 
  184000    1.1824854   -6.8418808     79.32004  0.035923931  0.038011937            1 
  185000    1.2188726   -6.8839928    79.525108  0.035822121  0.038002163            1 
  186000    1.1727218   -6.8662706    80.116778  0.035894614  0.037990862            2 
  187000      1.17998   -6.8984196    80.735668  0.035978462  0.037981574            1 
  188000      1.17881   -6.8376459    81.275507  0.036026377  0.037976701            3 
  189000    1.1734711   -6.8362937    81.658052  0.036004432  0.037971222            2 
  190000    1.1782386   -6.8655632    81.554698  0.035769604  0.037962094            2 
  191000    1.1965148   -6.8998511    82.105382  0.035822593  0.037950732            2 
  192000     1.193798   -6.8896438    82.518179  0.035815182  0.037941567            2 
  193000    1.1518624   -6.9145415    83.149419  0.035902167  0.037932232            3 
  194000    1.1687048   -6.8938347    83.150475  0.035717558   0.03792249            1 
  195000    1.1787681   -6.8312282    84.029222  0.035909924   0.03791191            3 
  196000    1.1533538     -6.83265    84.665816  0.035997371  0.037901739            2 
  197000    1.1648742   -6.8573188    84.777928  0.035862068  0.037890625            1 
  198000    1.1913023   -6.8600323    85.174559  0.035847878   0.03787865            2 
  199000    1.1708654   -6.8754421    85.592328  0.035842683  0.037866267            1 
  200000    1.1580304   -6.8764032    85.767896  0.035736623  0.037852877            2 
  201000    1.1253096   -6.8377773    86.241635  0.035755238  0.037837868            2 
  202000    1.1843351   -6.8819843      86.6154  0.035732426  0.037823984            2 
  203000     1.168632   -6.8692904    86.732416   0.03560444  0.037808956            2 
  204000    1.1440922   -6.8963031    87.408077  0.035705914  0.037792636            1 
  205000    1.1810337   -6.9062429    87.745281  0.035668813  0.037775505            1 
  206000    1.1698682   -6.8437285    88.051201  0.035619418  0.037757402            2 
  207000    1.1902388   -6.9045713    88.279564  0.035539277  0.037740402            3 
  208000    1.1800474   -6.9224693    88.632017  0.035509622  0.037720784            1 
  209000    1.1529377    -6.898711    89.136477   0.03554086   0.03770233            1 
  210000    1.1718249   -6.8686246    89.736047  0.035609543  0.037685124            1 
  211000    1.1916253   -6.9077836    90.141555   0.03560093  0.037669208            3 
  212000    1.1481363   -6.8371607     91.04492  0.035788097  0.037656225            1 
  213000    1.1758992   -6.8830485    91.289828  0.035715895   0.03764059            4 
  214000    1.1707949   -6.8633066    91.589382  0.035665647  0.037623628            1 
  215000    1.1868351   -6.9044677    91.536848  0.035479398  0.037609195            2 
  216000     1.173152   -6.9081903    92.346523  0.035627517  0.037592975            1 
  217000    1.1698554   -6.9394587    92.598191  0.035559981  0.037576525            1 
  218000     1.199496   -6.8500475    93.387746   0.03569868  0.037560371            1 
  219000    1.1501483   -6.8588646    93.877475  0.035722023  0.037546696            1 
  220000    1.1769988   -6.9180619    94.584949  0.035827632  0.037535211            1 
  221000    1.1256956    -6.915511    94.807171   0.03574931  0.037524791            1 
  222000    1.1843857   -6.8705579    95.595893  0.035884344  0.037516121            1 
  223000    1.1752598   -6.9058171    95.976191  0.035865542  0.037509863            1 
  224000      1.17572   -6.9183082    96.487166  0.035895523  0.037503166            2 
  225000    1.1712048   -6.9282899    96.745423  0.035831638   0.03749446            1 
  226000    1.1716394   -6.8750349    97.801094   0.03606235  0.037488652            2 
  227000    1.1567879   -6.9207631     98.20819  0.036052933  0.037487012            2 
  228000     1.155834   -6.9066509    98.513855  0.036006526  0.037483909            3 
  229000     1.162079   -6.9233205    98.671311   0.03590659  0.037479618            3 
  230000    1.1834491   -6.9078173    99.042557  0.035884984  0.037472693            1 
  231000    1.1692103   -6.8960902    99.507113  0.035897227  0.037466438            2 
  232000    1.1506959   -6.9244215    99.458506  0.035725038  0.037459888            2 
  233000    1.1732824    -6.891884    100.35091  0.035890882  0.037449481            3 
  234000    1.1594201    -6.916526    100.78272  0.035891283  0.037440532            4 
  235000    1.1610582   -6.9163487    100.68538  0.035704036  0.037429357            1 
  236000    1.1245412   -6.9424244    101.12491   0.03570795  0.037418065            2 
  237000    1.1840502   -6.9226774     101.4043  0.035655519  0.037406432            1 
  238000    1.1785017   -6.8877833    101.74774  0.035625958  0.037393255            3 
  239000    1.1660341   -6.8925473    101.92764  0.035539623  0.037378815            1 
  240000    1.1389085   -6.9369043    102.08715  0.035446925  0.037362495            1 
  241000    1.1776924   -6.9287612      102.652  0.035495159  0.037346436            2 
  242000      1.14839   -6.9066044    103.10574  0.035504733  0.037330701            2 
  243000    1.1480451   -6.9285926    103.22451  0.035399353  0.037313966            2 
  244000    1.1424603   -6.8910204    103.97591  0.035510897  0.037297496            2 
  245000    1.1602308   -6.8852122    104.51191   0.03554827  0.037283404            1 
  246000    1.1838994    -6.923946    104.54538  0.035415102    0.0372696            1 
  247000    1.1621088   -6.9287632    104.88037   0.03538474  0.037253134            2 
  248000    1.1512947   -6.8794986    105.60396    0.0354852  0.037236895            2 
  249000     1.176282   -6.9011555     106.0256    0.0354838  0.037219748            1 
  250000    1.1215044   -6.8797646    106.00438  0.035334792  0.037201163            1 
  251000    1.1229258   -6.8924445    106.39372   0.03532328  0.037182554            1 
  252000     1.143647   -6.9220113    107.16574  0.035438405  0.037164031            1 
  253000    1.1531832   -6.8837439    107.42576  0.035383979  0.037145556            1 
  254000    1.1543856   -6.9360648    107.72976  0.035344411  0.037126211            2 
  255000     1.135173   -6.9235008     107.9064   0.03526353  0.037106054            1 
  256000    1.1285201   -6.9602606    108.18097  0.035215158  0.037085592            1 
  257000    1.1920648   -6.9337348     108.8582  0.035297731  0.037067058            1 
  258000    1.1317191   -6.9123847    109.21573  0.035276399  0.037048516            1 
  259000    1.1513548   -6.9558331    109.84841   0.03534376  0.037030318            1 
  260000    1.1507252   -6.8971605    109.87958  0.035217814  0.037011894            2 
  261000    1.1422174   -6.9444447    109.83819  0.035069666  0.036992549            3 
  262000    1.1831337   -6.8863739    110.02869  0.034996402  0.036970874            3 
  263000    1.1602015   -6.9185766     110.6709  0.035066825  0.036948036            1 
  264000    1.1658406   -6.9112631    110.89616  0.035005103  0.036925206            1 
  265000    1.1434744   -6.8831101     111.4697  0.035053364  0.036901594            2 
  266000    1.1268343   -6.9043834    111.84263  0.035038418  0.036879857            2 
  267000    1.1404775   -6.9114762    112.39007   0.03507805  0.036859286            2 
  268000    1.1453851   -6.9129867    112.91443  0.035110208  0.036839537            2 
  269000    1.1277381   -6.9330543    113.41029  0.035133299  0.036818832            1 
  270000    1.1404173   -6.9016246    113.68329  0.035087436   0.03679901            2 
  271000    1.1462588   -6.8932224    114.25464  0.035133653  0.036780112            1 
  272000    1.1544425    -6.938663    114.15705  0.034974588  0.036760169            2 
  273000    1.1305293   -6.8989008    114.67108  0.035003382  0.036740406            1 
  274000     1.134698   -6.9116412    115.14375  0.035019389  0.036720071            4 
  275000     1.155947   -6.9144574    115.24674  0.034923254    0.0367002            1 
  276000    1.1500411   -6.9273761    115.50479  0.034874635  0.036677915            2 
  277000    1.1441079   -6.9425956    115.95909  0.034885408  0.036656933            2 
  278000    1.1522207   -6.9672083    116.04486  0.034785629  0.036636046            1 
  279000    1.1468236   -6.9362365    116.69521  0.034855201  0.036614605            2 
  280000    1.1481102   -6.9324564    117.34206  0.034923233  0.036593662            3 
  281000    1.1449997   -6.9752339    117.77615  0.034927684  0.036572074            2 
  282000    1.1332997    -6.962641    117.77149  0.034802449  0.036550305            1 
  283000    1.1431521   -6.9186789    118.42456  0.034871777  0.036528056            3 
  284000    1.1306926   -6.9247662    118.64877  0.034814779  0.036507575            2 
  285000    1.1569557   -6.9624316    119.07371  0.034816874  0.036487492            1 
  286000    1.1538546   -6.9719544    119.70231  0.034878297  0.036467047            2 
  287000    1.1209795   -6.9848643    119.52559  0.034705457  0.036447353            2 
  288000    1.1544166   -6.9703501    120.21663  0.034784905  0.036426552            2 
  289000    1.1434747   -6.9202763    120.57923  0.034769098  0.036407214            2 
  290000    1.1062507    -6.954677    121.36807  0.034875882  0.036387557            2 
  291000    1.1247868   -6.9901111      121.972  0.034928982   0.03636863            1 
  292000    1.1370312   -6.9843022    121.93833  0.034799751  0.036350408            2 
  293000    1.1275133   -6.9472117    122.85177  0.034940776  0.036332308            2 
  294000    1.1363642   -6.9432403     123.4976  0.035004988  0.036315681            1 
  295000     1.161174   -6.9313699    123.70108  0.034943808  0.036299796            1 
  296000    1.1320323   -6.9332797    124.27213  0.034986524  0.036284656            1 
  297000    1.1185251   -6.9316513    124.50263  0.034933398  0.036268548            1 
  298000    1.1590289   -6.9588476    124.65697  0.034859332   0.03625139            1 
  299000    1.1484891   -6.9925486     124.9437   0.03482266   0.03623444            1 
  300000    1.1469883   -6.9570675     125.3756  0.034826556  0.036216356            5 
  301000    1.1224536   -6.9472351    125.94028  0.034867187  0.036199964            2 
  302000    1.1448634   -6.9602509    126.18833  0.034820179  0.036183983            2 
  303000    1.1489722   -6.9418696    126.53541  0.034800716  0.036167988            1 
  304000    1.1205494   -6.9373296     127.2129  0.034871957   0.03615112            2 
  305000    1.1437124   -6.9424836    127.44561  0.034821206   0.03613478            2 
  306000    1.1238749   -6.9222767    127.48804  0.034718966  0.036118579            3 
  307000    1.1255615   -6.9743264    128.19994  0.034799114  0.036103556            3 
  308000    1.1289502   -6.9517153    128.57101  0.034786528  0.036088057            1 
  309000     1.127816   -6.9626172    128.83331  0.034744689  0.036073893            3 
  310000    1.1200889   -6.9568443    129.11671  0.034708792  0.036058504            1 
  311000    1.1198275   -6.9320102    129.89652  0.034806142  0.036043515            2 
  312000    1.1312541   -6.9716726    129.88397  0.034691232  0.036027794            1 
  313000    1.1282099   -7.0046014    129.87669  0.034578459  0.036011811            2 
  314000    1.1155995   -6.9585986    130.56556  0.034651158  0.035994747            4 
  315000    1.1388973   -6.9946822    130.57425  0.034543453  0.035977506            2 
  316000    1.1276586   -6.9552717    131.15193  0.034586479  0.035959815            3 
  317000    1.1140397   -6.9981793    131.33675  0.034525958  0.035941392            4 
  318000    1.1032886    -6.977136    131.99704  0.034590419  0.035923814            1 
  319000    1.1199528   -6.9561428    132.15345  0.034522844  0.035906498            2 
  320000    1.1062276   -6.9738523    132.33775  0.034462955  0.035889305            1 
  321000    1.1324517   -6.9690402    133.15008   0.03456648  0.035871972            2 
  322000    1.1033916   -6.9555912    133.09447   0.03444474  0.035854476            2 
  323000    1.1487878   -6.9208673    133.82457  0.034526463  0.035836746            1 
  324000     1.123597   -7.0042984    133.75711  0.034402549  0.035818304            6 
  325000    1.1155497    -7.003237    134.28493  0.034432033  0.035799952            2 
  326000     1.146393   -6.9802304    134.21302  0.034308032  0.035780735            1 
  327000    1.1137359   -6.9879652    134.78255  0.034348254   0.03576205            2 
  328000    1.1452969   -6.9965108    135.01565  0.034302758  0.035741706            2 
  329000    1.1207585   -6.9699496    135.32414  0.034276631  0.035723439            2 
  330000     1.122227   -6.9937756    135.36848  0.034183959   0.03570304            2 
  331000    1.1244733    -6.993666    135.85224  0.034202479  0.035682386            1 
  332000    1.1154779   -6.9995243    135.83455  0.034095016  0.035660191            1 
  333000    1.1175677   -7.0288069    136.29877  0.034108801   0.03563727            1 
  334000    1.1499677   -6.9943955    136.63493  0.034090552  0.035616067            1 
  335000    1.1415156   -7.0083729     137.3038  0.034155173  0.035594061            2 
  336000    1.1411767   -7.0247078    137.43211  0.034085344  0.035572442            1 
  337000    1.1381131   -7.0061755    137.79949  0.034075047  0.035551369            3 
  338000    1.0919356   -7.0022193    138.10581  0.034049756  0.035530376            3 
  339000     1.114049   -7.0084015    138.36284  0.034012499  0.035508307            2 
  340000    1.1032966   -6.9977782    138.72179  0.034000439  0.035486383            2 
  341000    1.1334034   -6.9697677    139.26571  0.034033653  0.035464839            3 
  342000    1.1257907    -7.007957    140.22291  0.034167377  0.035442913            1 
  343000    1.1286437   -6.9940594    139.92314  0.033994931  0.035421539            3 
  344000    1.1327545   -7.0141451    139.72313  0.033847657  0.035398596            1 
  345000    1.1291967   -6.9765613    140.44481  0.033923867  0.035375761            2 
  346000    1.1010182   -6.9933287    140.87537   0.03392952  0.035353617            2 
  347000    1.1080334   -6.9842587    140.72239  0.033795003  0.035331299            2 
  348000    1.1243841   -7.0188064     141.1694  0.033804934  0.035307849            1 
  349000    1.0910798    -7.055836     140.8877  0.033640808  0.035284044            1 
  350000    1.1393929   -6.9804417    141.96299  0.033800711  0.035259448            1 
  351000    1.1118529   -7.0285976    142.01658  0.033717137  0.035235254            2 
  352000    1.1263204   -6.9884413    142.60906  0.033761614  0.035211165            1 
  353000     1.105389   -6.9648352    142.75036   0.03369933  0.035187638            3 
  354000    1.0919341   -7.0073328    142.71805  0.033596528  0.035163621            3 
  355000    1.1351378   -7.0033376    142.83108  0.033528423   0.03513926            1 
  356000    1.0974596   -6.9899331    143.40673  0.033568991   0.03511441            3 
  357000    1.1111178   -6.9950958    143.43756  0.033482157  0.035089658            3 
  358000    1.1086973   -7.0159061    143.77806  0.033467892  0.035064053            2 
  359000      1.12361   -7.0329121    144.30455  0.033496879  0.035037793            2 
  360000    1.1100719   -6.9924201    144.61748  0.033476268  0.035012304            2 
  361000    1.1249716   -7.0108551    144.42802  0.033339802  0.034985244            3 
  362000    1.1062182   -6.9956504    144.93756     0.033365  0.034959098            2 
  363000    1.0903924   -6.9839755    145.72365  0.033453547  0.034932374            2 
  364000    1.0753003   -6.9928736    145.62984  0.033340166  0.034906318            1 
  365000    1.1225641   -7.0124046    146.09216  0.033354374   0.03488113            1 
  366000    1.1065652   -7.0065064    146.56175  0.033370162  0.034854541            2 
  367000     1.097105     -7.03357    146.14816  0.033185323  0.034828881            2 
  368000    1.0746212   -7.0380583     146.6499  0.033208762  0.034802022            3 
  369000    1.1146511   -7.0320715    147.07971  0.033215834  0.034774744            2 
  370000    1.1145961   -7.0220663    147.10763  0.033132349   0.03474815            3 
  371000    1.1282605   -7.0071074    147.67291  0.033170016  0.034721001            2 
  372000    1.1104957     -7.00916    147.55717  0.033054922   0.03469311            2 
  373000    1.1156299   -7.0018293    147.57198  0.032969611  0.034664155            3 
  374000    1.0914497   -7.0025237    147.84034  0.032941252  0.034636081            1 
  375000    1.0942429   -6.9418757    148.78616  0.033063592  0.034608691            1 
  376000     1.096272   -7.0131406    149.28763  0.033086797  0.034581867            2 
  377000    1.1228374   -7.0113246    149.67739  0.033085187  0.034555069            2 
  378000    1.0991516   -7.0562397    149.60291  0.032981241  0.034528425            3 
  379000    1.1180567   -7.0594776    150.08246  0.032999662    0.0345014            1 
  380000    1.0929064   -7.0366641    150.69276  0.033046657  0.034475711            1 
  381000    1.0792738   -7.0196294    150.99823  0.033026735  0.034449843            3 
  382000    1.0883118   -7.0498732    151.45483  0.033039884  0.034424581            2 
  383000    1.0976828   -7.0306534    151.19241  0.032896522  0.034398998            1 
  384000    1.1146274    -6.999184    151.82488  0.032948107  0.034373621            1 
  385000    1.1040654   -7.0411629    152.00688  0.032901922  0.034348224            2 
  386000    1.0813621   -6.9950904    152.58207  0.032940862  0.034322985            2 
  387000    1.0956017    -7.001743    152.65027  0.032870428  0.034298241            2 
  388000    1.1198678   -7.0572083      153.146  0.032892181  0.034272718            2 
  389000     1.104608   -6.9938059    154.15168  0.033023067  0.034247945            2 
  390000    1.1201877   -7.0124039    153.60337  0.032821234  0.034223746            1 
  391000    1.0871528   -7.0107577    153.91964  0.032804697  0.034198846            2 
  392000    1.1173523   -7.0579874    154.06058  0.032750973   0.03417373            2 
  393000    1.1050134   -7.0218909    154.50936  0.032762798  0.034148688            1 
  394000    1.0990554   -7.0235772    154.91976  0.032766446  0.034123859            1 
  395000    1.0946618   -7.0427716    155.48612  0.032802978  0.034098586            2 
  396000    1.1005157   -7.0540553    155.57208  0.032738231  0.034074533            2 
  397000    1.1059092   -7.0294131    156.51618  0.032853943  0.034051468            4 
  398000    1.0938419    -7.032083    156.38105  0.032743101  0.034027947            2 
  399000    1.1016264    -7.061439    156.94685  0.032779209  0.034003993            3 
  400000      1.11591   -7.0054932    157.51965  0.032816594  0.033980646            2 
  401000     1.083644     -7.08798    157.09663  0.032646847  0.033956587            2 
  402000    1.0805481   -7.0536412     158.2375  0.032802135  0.033933338            2 
  403000    1.0909642   -7.1026523    157.78655  0.032627491  0.033910455            1 
  404000    1.1027228   -7.0581489    159.02702  0.032802602  0.033887613            1 
  405000    1.0656649   -7.0432889    158.81287  0.032677546  0.033864674            1 
  406000    1.0885752   -7.0569732     159.1512  0.032666503  0.033841476            2 
  407000    1.1150361   -7.0341561    160.10038  0.032780585  0.033817985            4 
  408000    1.0879906   -7.0539719    159.75537  0.032629774  0.033794852            2 
  409000    1.0923682   -7.0695749    160.05614  0.032611275  0.033771701            2 
  410000    1.0910823   -7.0437635    160.42354  0.032606411  0.033749235            5 
  411000    1.0763196   -7.0328545    161.21556  0.032687665  0.033727173            3 
  412000    1.0986235   -7.0024749    162.06099  0.032779327  0.033705568            3 
  413000    1.0702654   -7.0398873    161.32237  0.032550923   0.03368397            1 
  414000    1.0771642   -7.0361783    162.06007  0.032620788  0.033662151            4 
  415000    1.0739753   -7.0835545    162.25575  0.032581476   0.03364046            2 
  416000     1.091385   -7.0692024    162.22799  0.032497593  0.033618958            1 
  417000    1.0847406    -7.063963    162.92286  0.032558525  0.033597801            2 
  418000    1.0995269   -7.0751608    163.46196   0.03258811  0.033576981            4 
  419000    1.0829665   -7.0526353    164.08124  0.032633501  0.033557077            1 
  420000    1.0900747   -7.0615742    163.92459  0.032524721  0.033536497            1 
  421000    1.1047887   -7.0571972    163.57714   0.03237869   0.03351561            4 
  422000    1.0951621   -7.0495008    164.86387  0.032556056  0.033494716            2 
  423000    1.0913246   -7.0871771     164.0769  0.032324054  0.033473737            1 
  424000    1.0966144   -7.0598657    165.14686   0.03245811  0.033452987            1 
  425000    1.0869527   -7.0648142    165.36974   0.03242544  0.033431972            3 
  426000    1.0852645   -7.0602423    165.89319  0.032451719  0.033410974            1 
  427000    1.1084845   -7.0261546    166.18392   0.03243246  0.033390392            3 
  428000    1.0831418   -7.0565859    166.64308  0.032446082  0.033369782            3 
  429000    1.0901733   -7.0733276    166.81184  0.032403233  0.033349005            2 
  430000    1.0687965   -7.0896502    166.81861  0.032329188   0.03332849            3 
  431000     1.062967   -7.1063932    166.88643  0.032267291  0.033306893            3 
  432000    1.0734841   -7.0828386    167.08839  0.032231557  0.033285267            3 
  433000    1.0656159   -7.0637109    168.00013  0.032332588  0.033264117            1 
  434000    1.0749768   -7.0758443    168.14616  0.032286129   0.03324332            1 
  435000    1.0652099   -7.0549298    168.91983   0.03236012  0.033222992            2 
  436000    1.0788625    -7.049542    169.09402  0.032319193  0.033203527            2 
  437000    1.0529026    -7.083056    169.04874  0.032236603  0.033183366            2 
  438000    1.0719107   -7.1069412    169.24594  0.032200521  0.033163045            1 
  439000    1.0862111   -7.0832439    170.10898  0.032290999  0.033142276            2 
  440000    1.0650237   -7.0833924    169.94551  0.032186649  0.033121387            5 
  441000    1.0997973   -7.0418954    170.38888  0.032197445  0.033101178            5 
  442000    1.0940229   -7.0953392    170.14143  0.032077946   0.03308046            2 
  443000     1.082094   -7.0813589    170.43004  0.032059827  0.033059417            1 
  444000     1.099828   -7.0576315    171.09558  0.032112534  0.033039132            5 
  445000    1.1071929   -7.0799599    171.26786  0.032072633  0.033018634            2 
  446000    1.0813441   -7.0845626    171.90485   0.03211974  0.032997689            2 
  447000    1.0772564   -7.0829981    171.84326  0.032036402  0.032976573            3 
  448000    1.0741752   -7.0665729    172.38438  0.032065546  0.032956015            5 
  449000    1.0771445   -7.0868773    172.75609   0.03206312  0.032935419            4 
  450000     1.079657   -7.0455101    173.15282  0.032065337  0.032914966            2 
  451000    1.0679588   -7.0605666    173.02176  0.031970022  0.032894789            1 
  452000    1.0553216   -7.0615814    173.54522  0.031995801  0.032874192            1 
  453000    1.0503369   -7.0905987    173.56457  0.031928728  0.032853809            3 
  454000    1.0800068   -7.1280282    173.25619  0.031801796  0.032832525            1 
  455000    1.0608076   -7.0576665    174.19717  0.031904243  0.032811381            2 
  456000    1.0589005   -7.0608543    175.19404  0.032016455  0.032790564            1 
  457000    1.0576845   -7.1010364    175.34312  0.031973581  0.032770677            4 
  458000    1.0873661   -7.1112739    174.95955  0.031833979  0.032750017            1 
  459000    1.0429472   -7.1008408    175.48817  0.031860596  0.032729137            2 
  460000    1.0453366   -7.0773433    175.90099  0.031866121  0.032708445            1 
  461000     1.051876   -7.0659534    176.10701   0.03183424  0.032687555            2 
  462000    1.0873985   -7.1172576    175.56167  0.031666967  0.032666524            1 
  463000    1.0952441   -7.0674616    176.30342  0.031732077  0.032644862            5 
  464000    1.0519974   -7.0582768    176.81149  0.031754938  0.032623487            3 
  465000    1.0717421    -7.083453    176.76582  0.031678462  0.032602195            2 
  466000    1.0799099   -7.0924168    177.45432  0.031733606  0.032580633            4 
  467000    1.0441021   -7.0805749    177.27354  0.031633393  0.032559042            2 
  468000    1.0894113   -7.1411257    177.13482    0.0315411  0.032537571            2 
  469000    1.0705387   -7.1106848    177.94677  0.031618118  0.032516778            6 
  470000    1.0552603   -7.1068491    178.10243  0.031578444  0.032495774            3 
  471000    1.0746844   -7.1140502    177.86949  0.031470185  0.032474349            3 
  472000    1.0475615    -7.101462    178.59069  0.031530842  0.032453429            2 
  473000    1.0528803   -7.1049149    178.93552  0.031524933  0.032432565            2 
  474000    1.0935176    -7.096161    179.38645  0.031537701  0.032411623            4 
  475000    1.0578817   -7.1296655    180.14103  0.031603689  0.032391309            2 
  476000    1.0554175   -7.1175071     179.9007  0.031495221  0.032370887            3 
  477000    1.0710633    -7.116815    180.22533  0.031485907  0.032350249            1 
  478000    1.0351033   -7.1048187    180.26648  0.031427211  0.032329655            2 
  479000    1.0826537    -7.105104    180.60086  0.031419773  0.032308563            3 
  480000    1.0861893   -7.1190014    181.00982  0.031425316  0.032287706            3 
  481000    1.0659197   -7.1217661    181.66292  0.031473132  0.032266629            2 
  482000     1.066758   -7.0747822    182.88774  0.031619596  0.032246117            3 
  483000    1.0781934   -7.1107177    182.48443  0.031484547  0.032226262            1 
  484000    1.0686452   -7.1471798    182.26386  0.031381518  0.032206296            2 
  485000    1.0603107   -7.1215605    182.67353  0.031387205  0.032186095            2 
  486000    1.0667339   -7.1323762    182.72018   0.03133062  0.032165983            3 
  487000    1.0469679    -7.146883    182.83035  0.031285138  0.032145945            2 
  488000    1.0411904   -7.1062721     183.5507   0.03134404  0.032125815            3 
  489000    1.0611716   -7.1187855    184.04509  0.031364194  0.032105958            2 
  490000    1.0289626   -7.1294291    183.82463  0.031262692  0.032085333            1 
  491000    1.0481692   -7.0969628    184.56995  0.031325518  0.032065243            2 
  492000     1.030893   -7.1269418    184.49339   0.03124888  0.032045173            1 
  493000    1.0436782   -7.1373353    184.70003  0.031220425  0.032024719            5 
  494000    1.0817125   -7.1164059    185.25419  0.031250707  0.032003776            2 
  495000    1.0550418   -7.1482281    185.31205  0.031197315  0.031982746            1 
  496000    1.0517203   -7.1094764    185.45405  0.031158274  0.031962724            2 
  497000    1.0554295   -7.1503339    186.28391  0.031234727  0.031942573            1 
  498000    1.0762858   -7.1210279    186.42904  0.031196292  0.031922258            3 
  499000    1.0410408   -7.1080387     186.5738  0.031157948  0.031902387            2 
  500000     1.048506   -7.1576512    186.29854  0.031049757  0.031881833            2 
  501000    1.0458205   -7.1412028    186.96115  0.031097995  0.031861481            2 
  502000    1.0229041   -7.1279606    187.12704  0.031063586  0.031841095            3 
  503000    1.0389327   -7.0805606    187.36723  0.031041622  0.031820513            2 
  504000     1.035869   -7.1185626    188.03895  0.031091097  0.031799909            4 
  505000    1.0470991   -7.1023707    187.57331  0.030952691  0.031779385            1 
  506000    1.0314197   -7.1272948    187.84864  0.030936864  0.031758914            2 
  507000    1.0232942   -7.1531013    188.42064  0.030969861  0.031738345            5 
  508000    1.0494476   -7.1055495    188.79981  0.030971097  0.031718188            2 
  509000     1.034745   -7.1652794    188.56517  0.030871836   0.03169749            3 
  510000    1.0448926   -7.1307223    189.21031  0.030916717  0.031676684            1 
  511000    1.0452906   -7.1373314    189.28829  0.030868932  0.031656375            4 
  512000    1.0648154   -7.1811056    189.39274  0.030825642  0.031635497            1 
  513000    1.0349787   -7.1206406    190.36167  0.030922949   0.03161484            2 
  514000    1.0434676   -7.1649578    189.86933  0.030782965  0.031594048            3 
  515000    1.0511964   -7.1630489    189.79169   0.03071063  0.031573459            1 
  516000    1.0385018   -7.1309146    190.81232  0.030815943  0.031552855            2 
  517000    1.0576406   -7.1671291    190.48275  0.030703215   0.03153178            2 
  518000    1.0539518   -7.1429206    190.63021  0.030667665  0.031510474            2 
  519000    1.0452054   -7.1466811    190.54056  0.030594181  0.031489173            2 
  520000     1.052127   -7.1497247    191.52474  0.030693067  0.031467639            2 
  521000    1.0613551   -7.1729488    191.64239  0.030652973  0.031446489            2 
  522000    1.0713682   -7.1578928    191.47921  0.030568201  0.031425312            1 
  523000    1.0385353   -7.1310931    192.32674  0.030644796  0.031404784            3 
  524000    1.0141244   -7.1384646    192.71631  0.030648268  0.031384731            2 
  525000    1.0403609   -7.1334957    192.83467  0.030608678   0.03136421            2 
  526000    1.0438038    -7.144812    193.01813  0.030579552  0.031343173            1 
  527000    1.0492675   -7.1370457     192.7767  0.030483348  0.031322177            1 
  528000     1.037968    -7.135326    192.67468  0.030409514  0.031300256            3 
  529000    1.0504311   -7.1636939    193.56964  0.030493012  0.031278582            1 
  530000     1.035661   -7.1552487    193.72391  0.030459734  0.031256892            9 
  531000    1.0208765   -7.1845256    193.58172  0.030380056   0.03123518            1 
  532000    1.0632243   -7.1691043    194.60352  0.030483008  0.031213753            1 
  533000    1.0269589   -7.1617221    194.67399  0.030436833  0.031192464            2 
  534000    1.0285147   -7.1776104    195.06979  0.030441603  0.031171413            2 
  535000    1.0340139   -7.1495381    195.63713  0.030473074  0.031150886            2 
  536000    1.0486322   -7.1502913    196.06545  0.030482812  0.031130183            2 
  537000    1.0585253   -7.1466451    196.00573  0.030416779  0.031109365            1 
  538000    1.0045321   -7.1546272    195.83155  0.030333264  0.031088267            2 
  539000    1.0404443   -7.1832495    196.30147   0.03034964  0.031067456            2 
  540000    1.0081639   -7.1203799    196.62613  0.030343538  0.031046812            3 
  541000    1.0400201   -7.1610584    197.02308  0.030348595  0.031026247            6 
  542000    1.0194959   -7.1779853     197.3793  0.030347371  0.031005207            1 
  543000    1.0189824   -7.1844064    196.31335  0.030127893  0.030984217            3 
  544000    1.0198756   -7.1465048    197.49537  0.030253579  0.030962861            2 
  545000    1.0057225   -7.1399943     197.8089  0.030246009  0.030941644            1 
  546000    1.0367564   -7.1512402    198.06473   0.03022966   0.03092049            2 
  547000    1.0356262   -7.1604608    197.34777  0.030065169  0.030899152            1 
  548000    1.0442102   -7.1696378    198.10506  0.030125465  0.030877591            2 
  549000     1.058198   -7.1591864    198.12035  0.030072912  0.030856056            1 
  550000    1.0189649   -7.1485201    198.49226  0.030074584  0.030834466            5 
  551000    1.0135231   -7.1642126    198.48294  0.030018594  0.030813047            3 
  552000    1.0412641   -7.1309468    199.83372  0.030168134  0.030791812            1 
  553000    1.0120148   -7.1509095    199.48699   0.03006133  0.030770582            2 
  554000    1.0524141   -7.1567332    199.71697  0.030041662  0.030749619            2 
  555000    1.0224834   -7.1637475    199.35284  0.029932858  0.030728561            5 
  556000    1.0244333   -7.1865142    199.67851  0.029927835  0.030706759            1 
  557000    1.0287846   -7.1580309     200.3548  0.029975285  0.030685195            2 
  558000    1.0524173   -7.1812551     200.5217   0.02994649  0.030663733            2 
  559000    1.0200492     -7.19937    200.12746  0.029834148  0.030642329            2 
  560000    1.0299231   -7.1930307    200.90728  0.029896916  0.030620927            2 
  561000    1.0140986   -7.1786803     200.3924  0.029767142  0.030599488            2 
  562000    1.0261299    -7.176691    201.60199  0.029893534  0.030577895            2 
  563000    1.0301181   -7.1809576    201.39542  0.029809861  0.030556546            2 
  564000    1.0450702   -7.1685407    202.38586  0.029903348  0.030535579            2 
  565000    1.0402194   -7.1674385    202.18322  0.029820534  0.030514449            2 
  566000     1.052468   -7.2039526    202.58492  0.029826991  0.030493759            2 
  567000     1.027691   -7.2120265    202.15462  0.029711144  0.030473035            1 
  568000    1.0187621   -7.1998184    202.80568  0.029754355  0.030452131            1 
  569000    1.0173314   -7.1602485    202.69457   0.02968579  0.030431292            2 
  570000    1.0081432   -7.2034947    202.96513  0.029673265  0.030410376            1 
  571000    1.0166246   -7.1743539    203.00088  0.029626515  0.030389241            3 
  572000    1.0179715   -7.2101756    204.08314  0.029732392  0.030367975            4 
  573000     1.004681   -7.1808824    204.23281   0.02970227  0.030346818            3 
  574000    1.0409943   -7.1961402    203.91261  0.029604038  0.030325628            2 
  575000    1.0193461   -7.1751448    204.85735  0.029689471  0.030304569            3 
  576000    1.0018453   -7.1888229    204.53497  0.029591286  0.030283911            3 
  577000     1.020616   -7.2130134     205.0089  0.029608448  0.030263048            2 
  578000    1.0216957   -7.1987912     205.3942  0.029612774  0.030242036            2 
  579000    1.0275036   -7.1907291    205.56385  0.029586047  0.030221293            2 
  580000    1.0167423   -7.1793664    205.97627  0.029594291  0.030200853            1 
  581000    1.0258413   -7.2181487    206.46853   0.02961396  0.030180144            2 
  582000    1.0175841    -7.224409    205.34662  0.029402437  0.030158764            1 
  583000    1.0296777   -7.2186333    206.13566  0.029464789  0.030137219            2 
  584000    1.0016241   -7.2292511    205.92704  0.029384566  0.030116121            2 
  585000    1.0059903    -7.213882    206.98364  0.029484849  0.030094895            2 
  586000    1.0187819   -7.2374798    205.97263  0.029290761  0.030073291            1 
  587000    1.0078383   -7.1943622    206.76063  0.029352731   0.03005202            2 
  588000    1.0103363   -7.1926526    207.60538  0.029422532  0.030030958            2 
  589000    1.0299018   -7.2100466    207.70706  0.029386964  0.030009505            3 
  590000    1.0138767   -7.1911048    207.57519   0.02931853  0.029988132            2 
  591000    1.0099634    -7.187897    207.83841  0.029306036  0.029967053            2 
  592000     0.990081   -7.1783208    207.63338  0.029227671   0.02994584            2 
  593000     1.030235   -7.2021911    207.92634  0.029219554  0.029924597            3 
  594000    1.0262957   -7.2288387    208.37795  0.029233719  0.029903277            1 
  595000    1.0222848   -7.1997662    209.49258  0.029340697  0.029882295            2 
  596000    1.0198618    -7.211017     208.8128   0.02919642  0.029860886            5 
  597000    1.0320387   -7.1711145    209.12684  0.029191352  0.029839815            4 
  598000    1.0302099   -7.1972133    209.60192   0.02920874   0.02981889            1 
  599000    1.0215344   -7.2117886    209.61866  0.029162307   0.02979795            3 
  600000    1.0406549   -7.2146265    209.62971  0.029115237  0.029776968            2 
  601000    1.0119798   -7.2553509    210.22117  0.029148804   0.02975592            2 
  602000   0.99769901   -7.1967648    210.26917  0.029107028  0.029734798            2 
  603000    1.0183752     -7.22514     210.2435   0.02905521  0.029713636            3 
  604000    1.0250338   -7.2253078    210.47978  0.029039704   0.02969243            3 
  605000    1.0371124    -7.207403    210.70423  0.029022621  0.029671349            6 
  606000    1.0013886   -7.2158222    210.59923   0.02896029  0.029649869            2 
  607000    1.0215803   -7.2498645    210.12277  0.028847167  0.029628214            4 
  608000   0.99723645   -7.1953609    212.12187  0.029073722  0.029607307            1 
  609000   0.99822075    -7.199159    211.84781   0.02898848  0.029586302            2 
  610000    1.0102686   -7.2091443    211.76137  0.028929149  0.029565326            3 
  611000   0.99349448   -7.1956037    211.51593  0.028848326  0.029543832            2 
  612000    1.0256634   -7.2474084    211.14031  0.028750042  0.029521864            2 
  613000   0.98999788   -7.2389358    211.90692  0.028807358   0.02949986            3 
  614000   0.99850492   -7.2409364    211.18667  0.028662686  0.029477606            3 
  615000    1.0148167   -7.2038283    212.34278  0.028772735   0.02945538            1 
  616000    1.0284799   -7.2607671    211.82282  0.028655684  0.029433014            2 
  617000    1.0330354   -7.2200249    212.55798  0.028708534  0.029410522            1 
  618000   0.99435703   -7.2609086    212.16719  0.028609384   0.02938817            2 
  619000    1.0001908   -7.2200671    212.58915  0.028619971  0.029365284            3 
  620000   0.99495104   -7.2516894    212.56061  0.028569975  0.029342763            1 
  621000   0.98587569    -7.258464    212.94613  0.028575702  0.029320669            2 
  622000    1.0188197   -7.2407403    213.91799  0.028659967  0.029298853            2 
  623000    1.0234604   -7.2419861    213.84156  0.028603741  0.029276875            2 
  624000   0.99736847   -7.2457493    213.59266  0.028524661  0.029254444            3 
  625000    1.0017337   -7.2448358     214.4004   0.02858672  0.029232471            3 
  626000    1.0236544   -7.2269372    214.34741     0.028534  0.029210912            4 
  627000    1.0001085   -7.2516254    214.85295  0.028555681  0.029189516            2 
  628000    1.0019068    -7.258437    215.13759  0.028547981  0.029167923            2 
  629000     1.028195   -7.2238944    215.37997  0.028534708  0.029146589            1 
  630000   0.99769672   -7.2104956    215.29558  0.028478251  0.029125223            2 
  631000     0.967028   -7.2740664    215.41991  0.028449539  0.029103525            6 
  632000   0.99366748   -7.2841651    215.53389  0.028419553  0.029081678            2 
  633000   0.98948369   -7.2480651    215.35733  0.028351413  0.029059813            1 
  634000   0.98016876   -7.2167256    215.75196  0.028358564  0.029037848            2 
  635000   0.98844904   -7.2533344    215.94177  0.028338815  0.029015645            2 
  636000   0.97952598   -7.2520964    215.59611  0.028248967  0.028993074            2 
  637000    1.0167728   -7.2278768    216.24494  0.028289501  0.028970843            2 
  638000   0.97180431   -7.2736899    215.63305  0.028165236  0.028948314            2 
  639000   0.99837703   -7.2410121    216.08575  0.028180197  0.028925874            2 
  640000    1.0062012   -7.2605921    216.28506  0.028162117  0.028903556            3 
  641000   0.98212589   -7.2544599    216.02126  0.028083887  0.028881417            4 
  642000   0.99425128   -7.2433788     216.8636  0.028149481  0.028859147            6 
  643000    1.0021133   -7.2504564    217.34223  0.028167734  0.028837122            1 
  644000    1.0060334   -7.2622001    217.32329  0.028121543  0.028815318            4 
  645000   0.99747769   -7.2397416    217.73443  0.028131063  0.028793532            2 
  646000   0.99052572   -7.3132598    217.42765  0.028047942  0.028771356            2 
  647000   0.99223848   -7.2313676    218.50031   0.02814275  0.028749898            2 
  648000   0.96863213   -7.2831143    218.43187  0.028090519  0.028728641            4 
  649000   0.99666779   -7.2382694    219.36158  0.028166612  0.028707191            1 
  650000    1.0015074   -7.2677062    219.19565  0.028102006  0.028685695            3 
  651000    1.0038042   -7.2292374    219.33781  0.028077036  0.028664246            3 
  652000    0.9768801    -7.265802    219.00538  0.027991485  0.028642726            2 
  653000   0.99450496   -7.3011042    219.05512  0.027954967  0.028620922            2 
  654000     1.006752   -7.2449236     219.7597     0.028002  0.028599179            3 
  655000    1.0002067   -7.2628803     220.0828  0.028000356  0.028577941            2 
  656000   0.96976371   -7.2172806    220.33155  0.027989272  0.028556744            2 
  657000   0.99716083   -7.2449134    221.06795  0.028040075  0.028535338            3 
  658000   0.98107004   -7.2579942    220.52629  0.027928862  0.028514167            5 
  659000   0.99997155   -7.2456732    220.52335  0.027886109  0.028492648            2 
  660000   0.98945201   -7.2526751    221.22543  0.027932504  0.028471052            1 
  661000   0.97978534   -7.2502056    221.13338  0.027878641  0.028449406            1 
  662000   0.98541528   -7.2767495    221.08096  0.027829929  0.028427579            1 
  663000   0.98201494   -7.2903153    221.11483  0.027792211  0.028405955            3 
  664000    1.0019756   -7.2493761    221.56476  0.027806822   0.02838464            3 
  665000    0.9521361   -7.2644131    222.59936  0.027894656  0.028363746            3 
  666000   0.98952745   -7.2626846    221.86538  0.027760933  0.028342698            3 
  667000    1.0033548   -7.2773476    222.57533  0.027808012  0.028321476            2 
  668000   0.97695097   -7.2489346    223.11386  0.027833565  0.028300399            3 
  669000   0.99137976   -7.2734221    222.00347  0.027653646  0.028278998            2 
  670000     1.010925   -7.2563565    222.77174  0.027707927  0.028257629            2 
  671000   0.98890401   -7.2839051    222.88132  0.027680244  0.028236473            1 
  672000   0.99813821   -7.2806616    223.37707  0.027700529  0.028215508            1 
  673000    1.0075086   -7.2974795    223.91006  0.027725366  0.028194511            1 
  674000    0.9961462   -7.2636213    223.65344  0.027652502  0.028173645            4 
  675000    0.9898955   -7.2535066    224.22407  0.027681984  0.028152735            2 
  676000   0.98187147   -7.2943593    224.01892  0.027615745  0.028131945            4 
  677000   0.97960854   -7.2548068     224.5555  0.027641002  0.028110983            1 
  678000   0.97033721   -7.2647546    223.98998  0.027530725  0.028090242            7 
  679000   0.94129088   -7.2827539    224.50105  0.027552902  0.028069456            4 
  680000   0.98280239   -7.2900568    224.54637  0.027517937  0.028048659            5 
  681000    1.0133761   -7.2868403    224.45055  0.027465804   0.02802791            1 
  682000   0.98723825   -7.3218013    224.88422  0.027478522  0.028006811            2 
  683000   0.99881894   -7.2879935     224.9914  0.027451367  0.027985951            2 
  684000    0.9876416   -7.3140081    225.72592  0.027500721  0.027964939            2 
  685000   0.97790869   -7.2697227    226.25521  0.027524965  0.027944309            4 
  686000   0.97789556   -7.2830932    225.77441  0.027426435  0.027923722            3 
  687000   0.97942096   -7.2370508    226.73592  0.027503144  0.027903243            1 
  688000    0.9761175   -7.2822697    226.41341  0.027424105  0.027882957            3 
  689000    0.9631094   -7.3063377    225.54659  0.027279462  0.027862004            5 
  690000   0.97113411   -7.2764382    226.68378  0.027377268  0.027841508            1 
  691000   0.98291764   -7.2910308    226.60712  0.027328403  0.027821032            2 
  692000   0.95315198     -7.28425    227.51269  0.027397964  0.027800469            4 
  693000   0.99201994   -7.3091514     227.4608  0.027352188  0.027780168            3 
  694000   0.95599035   -7.3148449    227.91754   0.02736762  0.027760005            2 
  695000    1.0005833   -7.3274357    227.50723  0.027279045  0.027740067            1 
  696000   0.97258472    -7.281419    228.57531  0.027367734  0.027719961            3 
  697000    0.9854407   -7.2624682    229.03735   0.02738371  0.027700171            1 
  698000   0.97908827   -7.3269664    228.57874  0.027289725  0.027680336            2 
  699000   0.97168189   -7.3080882    228.75638  0.027271862  0.027660656            3 
  700000   0.96203216   -7.3060627    229.31769  0.027299725   0.02764127            3 
  701000   0.99131048   -7.3109228    229.29439  0.027258011  0.027621909            3 
  702000   0.97544238   -7.2866296    229.80426  0.027279708  0.027602089            3 
  703000   0.96146231   -7.3026832    229.70486   0.02722912  0.027582552            5 
  704000   0.98357102   -7.3224905    230.27517  0.027257951  0.027563304            2 
  705000   0.97864426   -7.3037951    230.79533  0.027280772  0.027544023            4 
  706000   0.98014487   -7.3027042    231.07201  0.027274789   0.02752512            2 
  707000   0.98707432   -7.3222364    231.33632  0.027267365   0.02750605            2 
  708000   0.98435196   -7.2969135    231.32732  0.027227792  0.027487086            3 
  709000   0.97283201   -7.3373506    231.50399  0.027210154  0.027468452            2 
  710000   0.96823639    -7.325985    231.76946  0.027202988  0.027449731            2 
  711000   0.96859412   -7.2643174    233.12046  0.027323074  0.027431483            2 
  712000   0.98012298   -7.3214595    233.40785  0.027318335  0.027413489            3 
  713000   0.96258294    -7.331054     232.8411   0.02721378  0.027395357            2 
  714000   0.98568084   -7.3073317    234.11493  0.027324338  0.027377332            3 
  715000   0.97209655   -7.2844178    233.50261  0.027214756  0.027359466            2 
  716000   0.94571513   -7.3043311    233.73789   0.02720413  0.027341631            2 
  717000    0.9740079   -7.2980968    234.13252  0.027212055  0.027323828            2 
  718000   0.97480401   -7.2976515    234.39806  0.027204975  0.027305948            1 
  719000   0.96037756   -7.3223098    234.39624  0.027166926  0.027288112            1 
  720000   0.96105986   -7.3242674    234.40161  0.027129816  0.027270321            2 
  721000   0.95953907   -7.3226994    234.92822  0.027153054   0.02725252            1 
  722000   0.96013955   -7.3290937    234.50525  0.027066626  0.027234753            3 
  723000   0.97975598   -7.3287578    235.09331   0.02709697  0.027216724            2 
  724000   0.97451905   -7.3396788    234.67813  0.027011755  0.027198643            4 
  725000    0.9651881    -7.311824    235.06743  0.027019245  0.027180547            2 
  726000   0.95312016   -7.3326137    235.00332   0.02697467  0.027162441            1 
  727000   0.96072633   -7.2977154    235.52367  0.026997211  0.027144155            1 
  728000   0.96315525   -7.3225616    234.87608  0.026885998  0.027125751            5 
  729000   0.97509707   -7.3256694    235.30684  0.026898359  0.027107409            2 
  730000   0.95983856   -7.3349995    235.68526   0.02690471  0.027088893            4 
  731000    0.9456996   -7.3006524    235.87189   0.02688918  0.027070374            2 
  732000   0.96724286   -7.3470129     235.6581  0.026828108  0.027051755            4 
  733000   0.93991146   -7.3612664    235.75792  0.026802856  0.027033141            1 
  734000   0.97978696     -7.30853    236.66109  0.026868879  0.027014698            1 
  735000   0.96141814   -7.2966447    236.60776  0.026826277  0.026996414            3 
  736000   0.96637582   -7.3219673    236.86257  0.026818679   0.02697807            1 
  737000   0.96504364   -7.3564707    237.01947   0.02680003  0.026959742            2 
  738000   0.94186999   -7.3380641     236.8234  0.026741577  0.026941266            1 
  739000   0.94227877   -7.3584893    236.76702  0.026699032  0.026923088            2 
  740000   0.93047702   -7.3661786    237.98916  0.026800581  0.026904953            2 
  741000   0.95730095   -7.3469765    237.84794  0.026748531  0.026886815            2 
  742000   0.97151646   -7.3741752    238.26331  0.026759132  0.026868903            2 
  743000   0.95210908   -7.3151287     238.7539   0.02677814  0.026851024            2 
  744000   0.98031609   -7.3312555    238.43086  0.026705966  0.026832941            2 
  745000   0.95589734   -7.3541173    238.50821  0.026678771  0.026814678            1 
  746000    0.9545873   -7.3186268    238.72033  0.026666704  0.026796731            1 
  747000   0.97393976   -7.3437791    239.02616  0.026665123  0.026778853            2 
  748000   0.93001177   -7.3361299    239.52952  0.026685553  0.026761035            3 
  749000   0.92770216   -7.3284716     239.1637  0.026609223  0.026743093            3 
  750000   0.94451785   -7.3517887    240.01938   0.02666882  0.026725462            1 
  751000    0.9570595   -7.3615862    239.40382  0.026565004  0.026708026            2 
  752000   0.94059357   -7.3488867    240.52341  0.026653747  0.026690797            3 
  753000   0.97178111   -7.2963537    241.22883  0.026696418  0.026673357            2 
  754000   0.97986894    -7.354318    241.16194  0.026653619  0.026656301            1 
  755000   0.94803983   -7.3542499    240.79075  0.026577345  0.026639224            1 
  756000    0.9470482   -7.3722942    241.33695  0.026602397   0.02662223            1 
  757000   0.92785441   -7.3266672    242.27991   0.02667106  0.026605289            2 
  758000   0.97376295   -7.3043891    241.91289  0.026595525  0.026588244            4 
  759000   0.95910056   -7.3599142    241.74853  0.026542439  0.026571017            1 
  760000   0.95305132   -7.3749913    241.81366  0.026514655  0.026553869            5 
  761000   0.96935681   -7.3686892    241.72771  0.026470402  0.026536513            5 
  762000   0.94992903    -7.364037    242.22552  0.026490105  0.026519295            3 
  763000   0.92693556   -7.3850176    242.35993  0.026470067  0.026502209            2 
  764000   0.94383462   -7.3242421    242.62066  0.026463859  0.026485132            2 
  765000   0.94890341    -7.373904    243.22424  0.026495016  0.026467755            3 
  766000   0.94421875   -7.3836129    242.19224  0.026348155  0.026450395            2 
  767000   0.93695412   -7.3504479     242.9601   0.02639723  0.026433343            2 
  768000   0.94660957   -7.3328391     243.8126   0.02645536  0.026416394            2 
  769000   0.96071972   -7.3316945    244.16381  0.026459018  0.026399411            2 
  770000   0.94638267   -7.3841912    243.39678  0.026341643  0.026382116            3 
  771000   0.92147361   -7.3560853    243.46699  0.026315066   0.02636464            2 
  772000    0.9471133   -7.3605928    244.07241   0.02634633  0.026347417            4 
  773000   0.94277377     -7.38923     244.3505  0.026342227  0.026330277            3 
  774000   0.95417565    -7.371694    243.76612  0.026245276  0.026312996            1 
  775000   0.95864461   -7.3741312      244.511  0.026291505  0.026295628            1 
  776000   0.94932727   -7.3600549    243.67834  0.026168206  0.026278249            2 
  777000   0.93960289   -7.3607315    244.95724  0.026271691  0.026261041            2 
  778000   0.92863513   -7.3605992    244.58928  0.026198509  0.026243933            2 
  779000   0.94418125   -7.3422031    244.80317  0.026187759  0.026226744            1 
  780000   0.96065553   -7.3906227    244.48612  0.026120312  0.026209601            2 
  781000   0.94050772   -7.3481294    245.17806  0.026160698  0.026192364            2 
  782000    0.9306167   -7.3739071    245.23802  0.026133634  0.026174988            2 
  783000   0.92776535    -7.415021    244.69925  0.026042917  0.026157422            4 
  784000   0.95313482   -7.3765341    245.39171  0.026083303  0.026139788            3 
  785000   0.92726809   -7.3386166    246.07448  0.026122556   0.02612235            3 
  786000   0.94735284   -7.3862947     246.0064  0.026082103  0.026105029            5 
  787000   0.94117843   -7.4196132    246.20486  0.026069976  0.026087612            2 
  788000   0.92605391   -7.3937299    245.63653  0.025976791  0.026070211            2 
  789000   0.94313823   -7.4028908    246.24559  0.026008195  0.026052592            3 
  790000   0.94230842    -7.399981    246.93267   0.02604775  0.026035052            3 
  791000   0.94328249   -7.4004178     246.3851  0.025957132  0.026017397            1 
  792000   0.93247924   -7.3902202    246.64058  0.025951239   0.02599976            3 
  793000   0.92791194   -7.3862046    246.42448  0.025895805  0.025982404            2 
  794000   0.92591531   -7.3972819    246.84942   0.02590779  0.025964918            1 
  795000   0.95114615     -7.39245    247.17988  0.025909841  0.025947305            2 
  796000    0.9455513   -7.4037178    246.93068  0.025851202  0.025929774            2 
  797000   0.93939369   -7.3801434    246.86523  0.025811923  0.025912187            4 
  798000   0.93931416   -7.4506109    246.50604  0.025742068  0.025894246            2 
  799000   0.94316072   -7.3772825    247.18698   0.02578087  0.025876093            2 
  800000   0.93014471   -7.3732388    247.58375  0.025789973  0.025858043            1 
  801000   0.91489691   -7.3955496    247.40876  0.025739571  0.025840123            2 
  802000   0.92562254   -7.3847343    247.65724  0.025733296  0.025822167            2 
  803000   0.93613119   -7.3751465    247.30545  0.025664742  0.025804215            2 
  804000   0.93780914   -7.3968967    247.74229  0.025678098  0.025786311            4 
  805000   0.93864666   -7.3824314    248.48035  0.025722603  0.025768283            2 
  806000    0.9348598   -7.4070323    248.12129  0.025653565  0.025750532            3 
  807000   0.94526961   -7.4213936    248.32243  0.025642547  0.025732657            1 
  808000   0.91815599   -7.3776592    248.15967  0.025594025  0.025715004            5 
[...]
 1800000   0.53075613   -8.3176656    292.59449  0.013546041  0.012337865            6 
 1801000   0.53364284   -8.3240024    293.60112  0.013585097  0.012327877            5 
 1802000   0.53717531   -8.3334214    292.95071   0.01354748  0.012317884            3 
 1803000   0.53157414   -8.3306892    293.19084  0.013551065  0.012307908            4 
 1804000   0.52423562    -8.318811    293.06425  0.013537706  0.012297935            3 
 1805000   0.52750236   -8.3176415    293.55062   0.01355266  0.012287974            3 
 1806000   0.52844352   -8.3410128    293.28114  0.013532721  0.012278034            2 
 1807000   0.53008559   -8.3370947    293.02982  0.013513642  0.012268093            4 
 1808000   0.53526664   -8.3245741    292.62127  0.013487337  0.012258166            2 
 1809000   0.51087589   -8.3221313    292.70322  0.013483657  0.012248244            3 
 1810000   0.53674925   -8.3329115    293.20509  0.013499314  0.012238331            3 
 1811000   0.52499333   -8.3181956    292.98532  0.013481747  0.012228424            4 
 1812000   0.53230318   -8.3312104    293.15992  0.013482336  0.012218528            4 
 1813000   0.54078652   -8.3310746    293.41526  0.013486636  0.012208654            4 
 1814000    0.5441675   -8.3462665    293.21896  0.013470184  0.012198774            2 
 1815000   0.54001802   -8.3281133    293.44682  0.013473224  0.012188898            2 
 1816000   0.52707665   -8.3188963    292.84652  0.013438258   0.01217904            3 
 1817000   0.53260932   -8.3379565    293.06471  0.013440869  0.012169193            3 
 1818000   0.52950108   -8.3579985    292.61671   0.01341294  0.012159337            2 
 1819000     0.525251   -8.3448769    293.16451  0.013430663  0.012149495            4 
 1820000   0.52681658   -8.3382571    292.93209  0.013412642  0.012139668            3 
 1821000   0.53283403   -8.3388817    292.66232  0.013392931  0.012129855            4 
 1822000   0.53041247   -8.3483504    292.92521  0.013397604  0.012120045            4 
 1823000   0.51891936   -8.3249093    293.20308  0.013402957  0.012110248            4 
 1824000    0.5277878   -8.3275722    293.35469  0.013402535  0.012100465            5 
 1825000   0.52721546   -8.3484723    292.74802  0.013367489  0.012090686            4 
 1826000   0.52425391   -8.3422711    292.98702  0.013371076  0.012080923            7 
 1827000   0.51983656   -8.3362264    292.60841  0.013346488  0.012071169            2 
 1828000   0.53544313   -8.3394313    292.74335  0.013345339  0.012061416            2 
 1829000    0.5172837   -8.3376705    292.60244  0.013331622  0.012051668            2 
 1830000   0.51797879    -8.356217    293.24178  0.013353451  0.012041932            4 
 1831000   0.52836001   -8.3508892    293.01068   0.01333564  0.012032195            3 
 1832000   0.51859295   -8.3461264    293.17848  0.013335994  0.012022472            2 
 1833000   0.54347548   -8.3464239    292.77611  0.013310425  0.012012759            4 
 1834000   0.52442676   -8.3439109    293.10547  0.013318133  0.012003059            3 
 1835000   0.50420983   -8.3397701    292.93231  0.013303011  0.011993364            5 
 1836000   0.52754457   -8.3374109     292.7018  0.013285303  0.011983668            5 
 1837000   0.50906054   -8.3366924    292.50012  0.013268922  0.011973983            3 
 1838000   0.52631292   -8.3493389    292.24525  0.013250147  0.011964311            4 
 1839000   0.51139499   -8.3308819    292.51462  0.013255149  0.011954645            4 
 1840000    0.5191589   -8.3553619    292.73567  0.013257956  0.011944996            4 
 1841000    0.5137883   -8.3325892    292.86157  0.013256453  0.011935346            3 
 1842000   0.51723177   -8.3561116    292.95872  0.013253652    0.0119257            2 
 1843000   0.51338025   -8.3322548    292.82639  0.013240477  0.011916067            3 
 1844000    0.5200043   -8.3784757    292.98222  0.013240339  0.011906447            3 
 1845000   0.51438705   -8.3442466    292.70297   0.01322055  0.011896832            3 
 1846000    0.5167306   -8.3555612    292.16173  0.013188955  0.011887218            3 
 1847000    0.5206972   -8.3577564    292.68895  0.013205602  0.011877609            5 
 1848000   0.51747263   -8.3528853     292.4991  0.013189895  0.011868018            4 
 1849000   0.51522059   -8.3547126    292.33071  0.013175172  0.011858441            3 
 1850000   0.51065117    -8.357043    292.54798  0.013177837  0.011848869            4 
 1851000   0.51225176    -8.332464    292.48498  0.013167881  0.011839304            2 
 1852000   0.52596377   -8.3766377    292.56841  0.013164525  0.011829765            4 
 1853000    0.5158864   -8.3595022    292.36902  0.013148454  0.011820219            5 
 1854000   0.51048828   -8.3695461    292.82306   0.01316177  0.011810676            5 
 1855000   0.51637005   -8.3550098     292.9043  0.013158324  0.011801156            3 
 1856000   0.51413286   -8.3608755    292.51666   0.01313383  0.011791644            5 
 1857000   0.51631477   -8.3340191     293.0346      0.01315  0.011782148            2 
 1858000   0.51839367   -8.3556544    292.45578  0.013116962  0.011772658            3 
 1859000   0.50893625   -8.3472797    292.81761  0.013126126  0.011763173            4 
 1860000   0.50505682   -8.3584265    292.78638  0.013117669  0.011753681            3 
 1861000    0.5033328   -8.3605335    291.76192  0.013064746  0.011744202            3 
 1862000   0.50924575   -8.3603498    292.67223  0.013098471  0.011734732            3 
 1863000   0.51150862   -8.3633843    292.29933   0.01307476  0.011725271            5 
 1864000   0.50902487    -8.364461    292.73002     0.013087  0.011715819            3 
 1865000   0.51273557   -8.3354321    292.10804  0.013052191  0.011706387            3 
 1866000   0.51850567   -8.3434385    292.32627  0.013054943  0.011696964            2 
 1867000   0.50690112   -8.3507091    292.26636  0.013045276  0.011687547            4 
 1868000   0.51027238   -8.3473461    292.73481  0.013059191  0.011678136            2 
 1869000   0.51093006   -8.3612101    292.38701  0.013036696  0.011668728            4 
 1870000   0.51513202   -8.3630258    291.97715   0.01301146  0.011659328            3 
 1871000   0.49366739   -8.3700403    292.54175  0.013029652  0.011649942            2 
 1872000   0.51073415   -8.3624604    292.40586  0.013016642  0.011640557            2 
 1873000    0.5077429   -8.3671408    292.62309  0.013019358  0.011631189            2 
 1874000   0.51234111   -8.3598406    292.57043  0.013010069  0.011621832            4 
 1875000   0.50300331   -8.3700896    292.59245  0.013004109  0.011612476            2 
 1876000   0.50506009   -8.3680847     292.0386  0.012972575  0.011603131            4 
 1877000   0.50303932   -8.3812887    292.20785  0.012973177  0.011593794            4 
 1878000   0.51534155   -8.3718939    292.32357  0.012971404  0.011584466            4 
 1879000    0.4935853   -8.3652242     292.2371  0.012960666  0.011575135            2 
 1880000   0.50207916    -8.370448     291.9959  0.012943081  0.011565821            2 
 1881000   0.50104557   -8.3699456    292.61424  0.012963594   0.01155651            3 
 1882000   0.50545262   -8.3676423    292.14041  0.012935725  0.011547209            3 
 1883000   0.49518427   -8.3799201    292.09049  0.012926646   0.01153792            4 
 1884000    0.5085794   -8.3606034     291.9212  0.012912296  0.011528641            3 
 1885000   0.50393959   -8.3914698    292.09285  0.012913035  0.011519353            4 
 1886000   0.49850577   -8.3713225    291.89414  0.012897408  0.011510086            6 
 1887000   0.50249656   -8.3820821    292.22746  0.012905293  0.011500833            2 
 1888000   0.49180043   -8.3894489    292.20319  0.012897386   0.01149158            4 
 1889000   0.49363065   -8.3675579    291.68557  0.012867724  0.011482338            3 
 1890000   0.49059094   -8.3619423    292.35583  0.012890469  0.011473111            2 
 1891000   0.49965784   -8.3843628    292.40692  0.012885903  0.011463893            3 
 1892000   0.49350489   -8.3745853    292.10811  0.012865931  0.011454672            3 
 1893000   0.49731331   -8.3794145    292.06073  0.012857049   0.01144546            3 
 1894000    0.4923989    -8.372264    291.61811  0.012830786  0.011436247            4 
 1895000   0.50027949   -8.3885846     291.9608  0.012839085  0.011427049            3 
 1896000   0.48850668   -8.4028123    292.42544  0.012852735  0.011417853            3 
 1897000   0.49299639   -8.3781849    292.49173  0.012848873  0.011408666            2 
 1898000   0.48667537   -8.3947723    292.27795  0.012832717  0.011399484            3 
 1899000   0.49290354   -8.3834104    292.30192  0.012827011  0.011390312            5 
 1900000   0.49433982   -8.3792716    291.83018  0.012799569  0.011381155            5 
 1901000   0.49833794   -8.3744361    291.91182  0.012796415  0.011372002            2 
 1902000   0.48845827   -8.3928796    292.42495  0.012812169   0.01136287            3 
 1903000   0.49332376   -8.4058417    292.12741  0.012792407  0.011353739            2 
 1904000   0.51072457   -8.3910573    291.87713  0.012774734  0.011344613            4 
 1905000   0.49185076   -8.3977592    292.21455  0.012782789    0.0113355            3 
 1906000   0.49935866   -8.3808742    291.92097  0.012763247  0.011326401            2 
 1907000   0.49537089   -8.4008402    292.30535   0.01277335  0.011317311            2 
 1908000   0.48633183   -8.3788734    291.62928  0.012737128  0.011308219            3 
 1909000   0.49971288   -8.4039773    291.83109  0.012739265  0.011299145            5 
 1910000   0.48685811   -8.3989892     291.6926  0.012726553  0.011290072            3 
 1911000   0.48685139   -8.3901057    291.43939  0.012708852  0.011281009            3 
 1912000   0.48829702   -8.4085236    291.99996  0.012726637  0.011271959            4 
 1913000   0.49312467   -8.3979924    291.73649  0.012708507  0.011262915            3 
 1914000   0.49670629   -8.4042551     291.5969   0.01269579  0.011253874            3 
 1915000   0.48813826   -8.4032401    292.08202  0.012710271  0.011244842            4 
 1916000   0.49394932   -8.3897675    291.92938  0.012696998  0.011235824            4 
 1917000   0.48293303   -8.3913992    292.25217  0.012704407  0.011226812            5 
 1918000   0.48415181   -8.3937992    292.12114   0.01269209  0.011217808            5 
 1919000   0.49182107   -8.4078561    291.90399  0.012676046  0.011208815            4 
 1920000   0.48692884   -8.3933469    291.83787  0.012666574  0.011199831            5 
 1921000   0.48814713   -8.3989765    291.99404  0.012666755  0.011190857            3 
 1922000   0.48206267     -8.41525    291.64043  0.012644833  0.011181896            3 
 1923000   0.48734813   -8.4016478    291.84445  0.012647099  0.011172936            4 
 1924000    0.4837282    -8.391449    292.26352  0.012658676  0.011163989            4 
 1925000   0.48343611   -8.4064294    291.72193  0.012628655  0.011155051            4 
 1926000   0.48354657   -8.3998852    291.63667  0.012618409  0.011146117            3 
 1927000   0.47440401     -8.40233    291.53984  0.012607673  0.011137197            3 
 1928000    0.4828749   -8.4053318    291.85191  0.012614623   0.01112829            4 
 1929000   0.48337468   -8.4013826    291.82004  0.012606706   0.01111939            3 
 1930000   0.48587097   -8.4154306    291.65097  0.012592874  0.011110492            3 
 1931000    0.4981102   -8.3993283    291.65784   0.01258665  0.011101602            5 
 1932000   0.48058059   -8.4079748    291.45956  0.012571582  0.011092727            3 
 1933000   0.48147873   -8.4275783    291.63766  0.012572756  0.011083861            4 
 1934000    0.4774822   -8.4073207    291.36549  0.012554528  0.011074996            3 
 1935000   0.47942734   -8.4188486    291.81032  0.012567197  0.011066152            4 
 1936000   0.47859499   -8.4301104    291.94696  0.012566588  0.011057308            6 
 1937000   0.48093645   -8.4154981    292.06641  0.012565239  0.011048482            2 
 1938000    0.4735229   -8.4017828      291.414  0.012530702  0.011039657            4 
 1939000   0.48368127   -8.4245777    291.93745  0.012546736   0.01103085            4 
 1940000   0.47765662   -8.4147246    291.65401  0.012528093  0.011022048            3 
 1941000   0.47942058   -8.4109014    291.80895  0.012528291  0.011013249            4 
 1942000   0.48120436   -8.4042257    291.29184   0.01249965  0.011004461            5 
 1943000   0.47665281   -8.4058123    291.50712   0.01250245  0.010995681            4 
 1944000    0.4724377   -8.4252959    291.64006  0.012501717   0.01098691            4 
 1945000   0.47680683   -8.4187472    291.42971  0.012486277  0.010978139            4 
 1946000   0.47328409   -8.4279408    291.54916  0.012484976  0.010969376            3 
 1947000   0.46990016   -8.4198043     291.5266  0.012477598  0.010960628            3 
 1948000    0.4756124    -8.403828    291.91993  0.012488019  0.010951889            3 
 1949000   0.47062268   -8.4034265    291.14525  0.012448489  0.010943153            3 
 1950000   0.47436832   -8.4258474      291.584  0.012460855  0.010934431            3 
 1951000   0.47241383   -8.4315495    291.62168  0.012456077  0.010925729            4 
 1952000   0.47394238   -8.4172215    291.67958  0.012452168  0.010917019            3 
 1953000   0.47095914    -8.431252    291.83749   0.01245253  0.010908321            3 
 1954000   0.46666105   -8.4338718    291.65991  0.012438584  0.010899635            3 
 1955000   0.47301047   -8.4211806     291.6852  0.012433299   0.01089096            6 
 1956000   0.48100544    -8.449424    291.49482  0.012418832  0.010882284            3 
 1957000   0.48547012   -8.4281396    291.77041  0.012424221  0.010873624            3 
 1958000   0.46813183   -8.4285616    291.54991  0.012408491  0.010864962            4 
 1959000   0.47891906   -8.4159231    291.38026   0.01239494  0.010856314            4 
 1960000   0.47635815   -8.4260986    291.34959  0.012387312  0.010847671            3 
 1961000   0.46719462    -8.419081    291.54296  0.012389213  0.010839038            2 
 1962000   0.46397491   -8.4278407     291.8473  0.012395825  0.010830413            4 
 1963000   0.47577012   -8.4315662    291.24427   0.01236391  0.010821804            5 
 1964000   0.46712079   -8.4282285    291.74127  0.012378703  0.010813201            3 
 1965000   0.47502326   -8.4146682    291.38734  0.012357393  0.010804604            4 
 1966000   0.47365755   -8.4516845    291.90609  0.012373096  0.010796011            3 
 1967000   0.46482559   -8.4293563    291.46888  0.012348283  0.010787423            3 
 1968000   0.46453052   -8.4425434    291.74896  0.012353869  0.010778841            3 
 1969000   0.46294592    -8.431414    291.48172  0.012336284  0.010770273            5 
 1970000   0.45592243   -8.4303967    291.42925  0.012327802  0.010761715            5 
 1971000   0.47145057   -8.4471629    291.70618  0.012333256  0.010753161            4 
 1972000   0.47222609   -8.4479159    291.97543   0.01233838  0.010744605            2 
 1973000   0.46336611   -8.4294074    291.31169  0.012304092  0.010736072            2 
 1974000   0.46247008   -8.4302196     291.3841  0.012300916  0.010727535            2 
 1975000   0.45496827   -8.4352268      291.502  0.012299663  0.010719011            4 
 1976000   0.47041937   -8.4274262    291.54713  0.012295341  0.010710498            6 
 1977000    0.4575022   -8.4462565     291.1074  0.012270587  0.010701993            3 
 1978000   0.47757148   -8.4552129    291.47487  0.012279865  0.010693495            4 
 1979000   0.46559481   -8.4240855    291.27526  0.012265254  0.010685009            3 
 1980000   0.45974802   -8.4352982    290.85769  0.012241485  0.010676528            3 
 1981000   0.46427492      -8.4528    291.38162  0.012257346  0.010668058            3 
 1982000   0.46188597   -8.4226134    291.45291  0.012254158  0.010659596            3 
 1983000   0.46190895   -8.4561882    290.92889  0.012225958  0.010651144            3 
 1984000   0.45346329   -8.4501842    290.93935  0.012220235  0.010642695            6 
 1985000   0.47285736    -8.443849    290.93119  0.012213736   0.01063425            5 
 1986000    0.4698577   -8.4353045    290.97699  0.012209508  0.010625823            3 
 1987000   0.46151407   -8.4439194    290.95154  0.012202296  0.010617401            3 
 1988000   0.45634315   -8.4413694    291.16494  0.012205103  0.010608986            6 
 1989000   0.46149591   -8.4481814    291.35456  0.012206911  0.010600577            5 
 1990000   0.45762992   -8.4628891     291.2325  0.012195666  0.010592169            4 
 1991000   0.45974455   -8.4602541    291.63721  0.012206479  0.010583776            4 
 1992000   0.45727501    -8.426782    290.86458  0.012168029  0.010575391            3 
 1993000   0.44651248   -8.4632108    291.32041  0.012180984   0.01056702            3 
 1994000   0.45395706   -8.4596746    291.44398  0.012180039   0.01055865            3 
 1995000   0.45822578   -8.4460708    291.18817  0.012163249  0.010550282            4 
 1996000   0.44705626   -8.4416418    290.87189   0.01214395  0.010541931            3 
 1997000    0.4752913   -8.4349338    291.71035  0.012172857  0.010533586            3 
 1998000   0.44670275   -8.4564382    290.83258  0.012130154  0.010525261            2 
 1999000   0.45217045   -8.4593275    291.17817  0.012138493  0.010516931            6 
 2000000   0.44845326   -8.4600948    291.37141  0.012140475   0.01050861            4 
 2001000   0.45018987   -8.4512605    291.07485  0.012122058  0.010500291            4 
 2002000   0.45707603   -8.4525044    291.31694   0.01212608  0.010491989            5 
 2003000   0.44890977    -8.449951    291.09216  0.012110674  0.010483695            4 
 2004000   0.45624329   -8.4544138    290.86968  0.012095379  0.010475411            4 
 2005000    0.4475355   -8.4432527    291.20029  0.012103088  0.010467125            2 
 2006000   0.45543084   -8.4580583    291.18189   0.01209629   0.01045886            3 
 2007000   0.45239403   -8.4373288    290.43573  0.012059281  0.010450597            3 
 2008000   0.46054191   -8.4635369    291.01255  0.012077214  0.010442339            6 
 2009000   0.46069116   -8.4690816    290.79513  0.012062184  0.010434082            4 
 2010000   0.45275965    -8.441791    291.18089  0.012072176  0.010425841            3 
 2011000   0.45483133   -8.4494226    291.19641  0.012066816  0.010417611            3 
 2012000   0.45476049   -8.4655399     290.7718  0.012043232  0.010409388            3 
Loop time of 4709.76 on 48 procs for 2000000 steps with 4000 atoms

Performance: 73379.605 tau/day, 424.650 timesteps/s
99.4% CPU use with 48 MPI tasks x no OpenMP threads

MPI task timing breakdown:
Section |  min time  |  avg time  |  max time  |%varavg| %total
---------------------------------------------------------------
Pair    | 296.51     | 312.43     | 328.34     |  52.2 |  6.63
Neigh   | 30.714     | 31.989     | 33.236     |  11.6 |  0.68
Comm    | 295.11     | 315.53     | 337.72     |  59.8 |  6.70
Output  | 4.0377     | 4.0394     | 4.0694     |   0.2 |  0.09
Modify  | 3991.5     | 4003.9     | 4013.5     |   7.4 | 85.01
Other   |            | 41.83      |            |       |  0.89

Nlocal:        83.3333 ave          89 max          75 min
Histogram: 1 1 6 2 3 12 7 5 5 6
Nghost:        2000.23 ave        2029 max        1976 min
Histogram: 3 3 6 8 5 10 10 1 0 2
Neighs:        12802.6 ave       14164 max       11040 min
Histogram: 2 3 2 1 12 7 5 9 4 3
FullNghs:      25605.9 ave       27489 max       22613 min
Histogram: 1 1 3 4 3 9 11 5 6 5

Total # of neighbors = 1229082
Ave neighs/atom = 307.27050
Neighbor list builds = 107249
Dangerous builds = 1

#clear
#
#next RN
#
#jump SELF
Total wall time: 1:18:32
