
units lj                  # Use reduced LJ style units
atom_style atomic         # Uncharged point particles
atom_modify map hash      # Needed for indexing of clusters etc
                          # Used to be able to find where atoms are in relation to each other.

# Define a lattice with which to populate the simulation cell. With units
# set to 'lj' the second argument to the lattice command is the reduced
# density rho* and the spacings are multiples of that required to acheive
# that density. Also define a simulation cell called 'box' in lattice units
# and fill it with atoms. Here we're creating a box which is ten lattice
# constants in each direction.
lattice fcc 1.0 spacing 1 1 1                 # All equal sizes - gives the right reduced density.
Lattice spacing in x,y,z = 1.5874011 1.5874011 1.5874011

region box block 0 10 0 10 0 10 units lattice # Defines a region, "box", in lattice units
create_box 1 box                              # Creates a simulation box as specified above,
Created orthogonal box = (0.0000000 0.0000000 0.0000000) to (15.874011 15.874011 15.874011)
  3 by 4 by 4 MPI processor grid
                                              # with one type of atom
create_atoms 1 box                            # Creates particles on lattice points
Created 4000 atoms
  using lattice units in orthogonal box = (0.0000000 0.0000000 0.0000000) to (15.874011 15.874011 15.874011)
  create_atoms CPU = 0.002 seconds


# Set the mass of the first (and only) atom type.
mass 1 1.0

# Lennard-Jones interactions between particles, 3.5 sigma cut-off. Apply
# long range tail corrections to energy and pressure and set all coefficients
# to unity since we work in reduced units here. Note that this doesn't shift
# the potential such that it goes to zero at the cutoff. That would require
# pair_modify('shift', 'yes').
pair_style lj/cut  3.5      # non-GPU version
pair_modify tail  yes
pair_coeff 1  1  1.0  1.0   # Intearaction between 1 and 1 set with epsilon = 1 and sigma = 1

write_data data.*
System init for write_data ...
Neighbor list info ...
  update every 1 steps, delay 10 steps, check yes
  max neighbors/atom: 2000, page size: 100000
  master list distance cutoff = 3.8
  ghost atom cutoff = 3.8
  binsize = 1.9, bins = 9 9 9
  1 neighbor lists, perpetual/occasional/extra = 1 0 0
  (1) pair lj/cut, perpetual
      attributes: half, newton on
      pair build: half/bin/atomonly/newton
      stencil: half/bin/3d
      bin: standard

#############################
#   M E L T   S Y S T E M   #
#############################

velocity all create 2.4 2750902 mom yes dist gaussian # Assign velocities
                                                    # Temperature 2.4, random number seed, zero linear momentum
						                                                        # Gaussian distribution

timestep 0.002   # simulation timestep
thermo 1000       # output thermodynamic data every 1000 steps

# Define a fix  in this case with index 1 applied to all
# particles in the simulation. This fix is for simulations
# in the anisotropic NPT ensemble. Note that we use the MTK
# correction.
fix 1 all npt temp 2.4 2.4 0.1 iso 5.68 5.68 0.5 mtk yes tchain 5 pchain 5 # Use NPT ensemble
                                                                         # Set temperature and pressure and damping
                                                                         # Numbers of thermostats in chain and in barostat
run 1000         # run for 10000 steps
Per MPI rank memory allocation (min/avg/max) = 3.642 | 3.644 | 3.648 Mbytes
Step Temp E_pair E_mol TotEng Press Volume 
       0          2.4   -8.3859253            0   -4.7868253   -2.2405722         4000 
    1000    2.3434012   -4.4238704            0  -0.90964738    5.8682558    5151.8188 
Loop time of 0.246822 on 48 procs for 1000 steps with 4000 atoms

Performance: 700100.608 tau/day, 4051.508 timesteps/s
99.1% CPU use with 48 MPI tasks x no OpenMP threads

MPI task timing breakdown:
Section |  min time  |  avg time  |  max time  |%varavg| %total
---------------------------------------------------------------
Pair    | 0.092074   | 0.10114    | 0.11555    |   1.5 | 40.98
Neigh   | 0.017373   | 0.01888    | 0.021182   |   0.6 |  7.65
Comm    | 0.064073   | 0.077068   | 0.091662   |   2.1 | 31.22
Output  | 2.5536e-05 | 2.6533e-05 | 3.5172e-05 |   0.0 |  0.01
Modify  | 0.043925   | 0.048147   | 0.051361   |   1.0 | 19.51
Other   |            | 0.001562   |            |       |  0.63

Nlocal:        83.3333 ave          95 max          78 min
Histogram: 8 10 8 7 5 5 2 1 1 1
Nghost:        1391.50 ave        1422 max        1362 min
Histogram: 4 2 3 6 11 8 4 3 2 5
Neighs:        7406.25 ave        8468 max        6555 min
Histogram: 2 6 8 5 10 4 6 2 1 4

Total # of neighbors = 355500
Ave neighs/atom = 88.875000
Neighbor list builds = 87
Dangerous builds = 20

# Equilibrate just above the melting temperature to avoid step fn in T

fix 1 all npt temp 1.25 1.25 0.1 iso 5.68 5.68 0.5 mtk yes tchain 5 pchain 5
run 1000
Per MPI rank memory allocation (min/avg/max) = 3.642 | 3.644 | 3.648 Mbytes
Step Temp E_pair E_mol TotEng Press Volume 
    1000    2.3434012   -4.4238704            0  -0.90964738    5.8682558    5151.8188 
    2000    1.2429145   -5.8542389            0   -3.9903333    5.7194736    4334.1532 
Loop time of 0.215787 on 48 procs for 1000 steps with 4000 atoms

Performance: 800789.744 tau/day, 4634.200 timesteps/s
99.6% CPU use with 48 MPI tasks x no OpenMP threads

MPI task timing breakdown:
Section |  min time  |  avg time  |  max time  |%varavg| %total
---------------------------------------------------------------
Pair    | 0.094323   | 0.10033    | 0.10982    |   1.0 | 46.50
Neigh   | 0.015563   | 0.016288   | 0.018014   |   0.3 |  7.55
Comm    | 0.066092   | 0.07382    | 0.080427   |   1.4 | 34.21
Output  | 2.359e-05  | 2.46e-05   | 3.1003e-05 |   0.0 |  0.01
Modify  | 0.019169   | 0.023389   | 0.026699   |   1.3 | 10.84
Other   |            | 0.001935   |            |       |  0.90

Nlocal:        83.3333 ave          91 max          76 min
Histogram: 2 0 6 7 12 2 13 2 2 2
Nghost:        1559.08 ave        1579 max        1541 min
Histogram: 2 2 8 11 4 8 3 5 3 2
Neighs:        8794.40 ave        9967 max        8047 min
Histogram: 4 3 11 7 11 7 2 2 0 1

Total # of neighbors = 422131
Ave neighs/atom = 105.53275
Neighbor list builds = 75
Dangerous builds = 8


# Small amount of linear quench

fix 1 all npt temp 1.25 ${temp} 0.1 iso 5.68 5.68 0.5 mtk yes tchain 5 pchain 5
fix 1 all npt temp 1.25 0.09 0.1 iso 5.68 5.68 0.5 mtk yes tchain 5 pchain 5
run 2000
Per MPI rank memory allocation (min/avg/max) = 3.643 | 3.645 | 3.648 Mbytes
Step Temp E_pair E_mol TotEng Press Volume 
    2000    1.2429145   -5.8542389            0   -3.9903333    5.7194736    4334.1532 
    3000    0.7774344   -6.5150715            0   -5.3492115    5.8465696    4040.4651 
    4000   0.22637373   -7.3590571            0   -7.0195814    5.7565608    3745.5688 
Loop time of 0.465219 on 48 procs for 2000 steps with 4000 atoms

Performance: 742876.115 tau/day, 4299.052 timesteps/s
99.7% CPU use with 48 MPI tasks x no OpenMP threads

MPI task timing breakdown:
Section |  min time  |  avg time  |  max time  |%varavg| %total
---------------------------------------------------------------
Pair    | 0.20715    | 0.22712    | 0.26407    |   2.0 | 48.82
Neigh   | 0.02216    | 0.02375    | 0.027525   |   0.6 |  5.11
Comm    | 0.12318    | 0.16154    | 0.18637    |   2.9 | 34.72
Output  | 4.9013e-05 | 5.038e-05  | 6.1777e-05 |   0.0 |  0.01
Modify  | 0.039007   | 0.047264   | 0.061008   |   2.8 | 10.16
Other   |            | 0.005492   |            |       |  1.18

Nlocal:        83.3333 ave          90 max          78 min
Histogram: 4 7 5 4 5 10 7 2 1 3
Nghost:        1714.81 ave        1737 max        1695 min
Histogram: 3 3 4 7 9 6 10 3 2 1
Neighs:        10277.7 ave       11028 max        9526 min
Histogram: 4 1 8 6 4 8 7 3 2 5

Total # of neighbors = 493331
Ave neighs/atom = 123.33275
Neighbor list builds = 103
Dangerous builds = 0

#############################
# F R E E Z E  S Y S T E M  #
#############################

# Define solid atoms. This closely follows ten Wolde  Ruiz-Montero and Frenkel  Faraday Discuss  1996  104  93-110
# Compute components of the per-atom q6 vector
compute q6 all orientorder/atom degrees 1 6 components 6 nnn NULL cutoff 1.3 # compute the Q6 parameter.
                                                                             # Use all neighbours within 1.3 unit cell.

# get number of connections
compute coord_number all coord/atom orientorder q6 0.5

# An atom is solid if it has 8 or more connections (of a possible 14)
variable is_solid atom c_coord_number>=8
group solid dynamic all var is_solid    # Must be dynamic to update
dynamic group solid defined

# do clustering
compute cluster solid cluster/atom 1.3 # Create a cluster where all atoms within are solid and max 1.3 units from another member

# define chunks one chunk per cluster
compute clus_chunks solid chunk/atom c_cluster nchunk every compress yes  # Says which atoms are in which chunk

# count the size of each chunk
compute size_chunks solid property/chunk clus_chunks count


# Find the maximum entry in the vector of chunk sizes
variable max_n equal max(c_size_chunks)


# Thermo style which includes this variable
thermo_style custom step temp pe vol v_max_n

thermo ${N}  # Print the thermo information every 100 steps
thermo 1000  

# Reset the npt fix at a lower temperature (below freezing)
fix 1  all npt temp  ${temp} ${temp}  0.1  iso  5.68  5.68  0.5  mtk yes tchain  5  pchain  5
fix 1  all npt temp  0.09 ${temp}  0.1  iso  5.68  5.68  0.5  mtk yes tchain  5  pchain  5
fix 1  all npt temp  0.09 0.09  0.1  iso  5.68  5.68  0.5  mtk yes tchain  5  pchain  5

dump dmp2 all dcd ${N} traj_${rand}.dcd
dump dmp2 all dcd 1000 traj_${rand}.dcd
dump dmp2 all dcd 1000 traj_462431.dcd


# fix rnuntil all halt ${N} v_max_n >= 3980 error soft message no   # Stop when solidified


run 1000000 # 5000000  # Run for this many steps
Neighbor list info ...
  update every 1 steps, delay 10 steps, check yes
  max neighbors/atom: 2000, page size: 100000
  master list distance cutoff = 3.8
  ghost atom cutoff = 3.8
  binsize = 1.9, bins = 9 9 9
  4 neighbor lists, perpetual/occasional/extra = 1 3 0
  (1) pair lj/cut, perpetual
      attributes: half, newton on
      pair build: half/bin/atomonly/newton
      stencil: half/bin/3d
      bin: standard
  (2) compute orientorder/atom, occasional
      attributes: full, newton on
      pair build: full/bin/atomonly
      stencil: full/bin/3d
      bin: standard
  (3) compute coord/atom, occasional
      attributes: full, newton on
      pair build: full/bin/atomonly
      stencil: full/bin/3d
      bin: standard
  (4) compute cluster/atom, occasional
      attributes: full, newton on
      pair build: full/bin/atomonly
      stencil: full/bin/3d
      bin: standard
Per MPI rank memory allocation (min/avg/max) = 9.392 | 9.397 | 9.401 Mbytes
Step Temp PotEng Volume v_max_n 
    4000   0.22637373   -7.3590571    3745.5688           31 
    5000  0.090078265   -7.5757314    3681.3983           25 
    6000  0.089441205   -7.6056651    3675.8018           75 
    7000  0.090264485   -7.6110902    3669.4141           62 
    8000  0.089021978   -7.6226707     3667.235           65 
    9000  0.089523969   -7.6391127    3672.4516           56 
   10000    0.0897852   -7.6366582    3661.9181           43 
   11000   0.09166243    -7.643676     3661.678           60 
   12000  0.088190297   -7.6504979    3663.3311          159 
   13000  0.090147976   -7.6443975    3657.1011          187 
   14000  0.089259276   -7.6494379    3660.3039          295 
   15000  0.088707534   -7.6559913    3660.4704          286 
   16000   0.08972721   -7.6525977    3655.7641          225 
   17000   0.09005304   -7.6581986    3657.8083          326 
   18000  0.090336451   -7.6624352    3658.8414          195 
   19000  0.089751828   -7.6560326    3656.7652          299 
   20000  0.090680672   -7.6628125     3659.891          163 
   21000   0.09138544   -7.6619024    3657.7328          372 
   22000   0.08936338   -7.6579659    3655.9312          322 
   23000  0.087693635   -7.6679769    3660.8837          371 
   24000  0.090288372   -7.6634023    3656.4099          268 
   25000  0.091131906   -7.6597891    3655.5026          320 
   26000  0.088350768   -7.6646268     3658.891          350 
   27000   0.09058899   -7.6599574    3653.9927          370 
   28000  0.089110861   -7.6651936    3655.2138          395 
   29000  0.090079885   -7.6686709    3660.5282          309 
   30000  0.089960361   -7.6617031    3655.3009          343 
   31000  0.089587303   -7.6639202    3655.9909          309 
   32000  0.090218317   -7.6629965    3657.1537          329 
   33000  0.091639688   -7.6600417    3654.8851          314 
   34000   0.09114446   -7.6699039    3658.0293          351 
   35000   0.08917559   -7.6647287    3655.8948          320 
   36000  0.089104022   -7.6605885    3654.0535          386 
   37000  0.089899129   -7.6651356    3657.0764          285 
   38000  0.089872119   -7.6641551    3655.2853          383 
   39000  0.087467053    -7.664562    3655.5045          330 
   40000  0.092272892   -7.6673702    3658.5117          420 
   41000  0.090851602   -7.6650419    3655.0775          300 
   42000  0.089118373   -7.6649956     3656.141          358 
   43000  0.089935356   -7.6656783    3657.7017          308 
   44000   0.08927374   -7.6611072    3654.4382          286 
   45000  0.088558691   -7.6667983    3657.3588          385 
   46000  0.090652953   -7.6635026    3656.6916          417 
   47000  0.091087527   -7.6625741    3655.1812          314 
   48000  0.087877483   -7.6679655    3657.3546          351 
   49000  0.088462314   -7.6629219    3655.2612          251 
   50000  0.089175793   -7.6620204    3655.1048          259 
   51000  0.090271534    -7.663496    3656.8901          275 
   52000  0.091323402   -7.6617431      3654.42          418 
   53000  0.093412509   -7.6648044    3656.3616          373 
   54000  0.090499657   -7.6703812     3660.055          300 
   55000   0.09022653   -7.6637287    3654.3866          386 
   56000  0.089897304   -7.6682382    3655.9133          375 
   57000  0.090944051   -7.6685524    3656.5922          360 
   58000  0.088320801   -7.6623825    3653.3292          339 
   59000  0.090635437   -7.6680621    3657.4794          323 
   60000   0.08970391   -7.6641422    3655.6614          410 
   61000  0.089209492   -7.6571976    3652.8914          311 
   62000  0.089698771   -7.6657666    3658.5581          355 
   63000  0.088418485   -7.6627526    3655.4939          381 
   64000  0.090880221   -7.6616985    3655.7441          327 
   65000  0.092038159   -7.6706202    3660.1421          251 
   66000  0.092766523   -7.6620664    3654.3698          426 
   67000  0.090131913   -7.6670099    3655.5259          382 
   68000  0.089277165   -7.6686149     3658.354          306 
   69000  0.088093712   -7.6661209    3653.7252          263 
   70000  0.092888571   -7.6674484    3657.1417          457 
   71000  0.091635393   -7.6659982    3655.8793          258 
   72000  0.090595208   -7.6598133    3652.4221          362 
   73000  0.088520186    -7.666185    3656.1652          282 
   74000  0.089161163   -7.6639546    3656.9552          433 
   75000   0.09073815   -7.6584748    3652.8911          406 
   76000  0.089297687   -7.6636298     3657.565          370 
   77000  0.089146907   -7.6635771     3655.116          440 
   78000  0.089915274   -7.6642127    3655.3215          384 
   79000  0.089110513   -7.6682932    3657.6762          307 
   80000  0.088079068    -7.664493    3655.1264          278 
   81000  0.089800693   -7.6655294    3656.2258          377 
   82000  0.089673549   -7.6665771    3656.4184          315 
   83000  0.089967278   -7.6613005    3653.5198          394 
   84000  0.089022653   -7.6698371    3657.9517          239 
   85000  0.091023574   -7.6663569    3655.3196          394 
   86000  0.090000063   -7.6633199    3654.5906          312 
   87000  0.091905703   -7.6698765    3659.5102          403 
   88000  0.089325607    -7.665125    3654.5819          445 
   89000  0.090593313   -7.6619754    3655.3561          405 
   90000  0.090264887   -7.6724828    3660.3769          296 
   91000  0.091407158   -7.6639918    3653.7383          238 
   92000  0.089673289   -7.6633236    3656.1547          405 
   93000  0.089385152   -7.6670914    3658.1376          333 
   94000  0.089570732   -7.6577175    3651.5166          320 
   95000  0.090292236   -7.6660528    3657.0181          436 
   96000  0.089363736   -7.6682904    3656.5313          272 
   97000  0.089855087   -7.6596834    3654.9775          447 
   98000  0.088654495   -7.6674741    3658.9615          358 
   99000  0.092422174   -7.6657503    3656.4456          416 
  100000  0.091233446   -7.6648928    3654.4337          428 
  101000  0.091927679   -7.6684975    3657.5306          447 
  102000  0.089688691   -7.6643451    3655.5702          408 
  103000  0.088796718   -7.6644276    3655.1341          231 
  104000  0.089360086   -7.6678466    3657.8537          435 
  105000  0.090832399   -7.6643419    3654.8015          235 
  106000  0.088594281    -7.664396    3655.1961          323 
  107000  0.092939296    -7.669911    3658.9748          439 
  108000  0.090595581   -7.6643714    3655.1647          236 
  109000  0.090152659   -7.6684063    3655.1144          364 
  110000  0.089699537   -7.6662749    3656.3664          391 
  111000  0.089684263   -7.6629892    3655.5722          364 
  112000  0.090006059   -7.6666604    3657.9343          310 
  113000  0.089097434   -7.6667224    3655.3682          295 
  114000  0.090596848   -7.6630847    3653.7169          427 
  115000  0.090917341   -7.6667367    3656.4023          417 
  116000  0.090864909   -7.6623618    3655.2937          343 
  117000  0.090240996   -7.6636813    3655.4465          384 
  118000  0.088376932   -7.6690972    3657.8092          236 
  119000  0.089253036   -7.6645746    3654.6765          402 
  120000  0.090565757   -7.6659568    3655.7289          201 
  121000  0.092290362   -7.6685188    3657.3277          413 
  122000  0.091160961   -7.6632305    3652.8475          384 
  123000  0.087587752   -7.6670459    3655.6045          414 
  124000  0.091108055   -7.6675959    3658.1192          376 
  125000  0.089009346   -7.6649145    3654.9374          265 
  126000  0.090817469   -7.6690104    3656.3266          331 
  127000  0.089916382   -7.6652177    3656.1489          444 
  128000  0.089456595   -7.6638218    3652.9352          334 
  129000  0.091005548   -7.6662859    3656.5295          449 
  130000  0.091829107   -7.6631698    3655.6364          406 
  131000  0.090466227   -7.6629737    3654.1594          450 
  132000  0.090269427   -7.6718513    3660.2993          408 
  133000   0.08979551   -7.6649969    3654.5369          293 
  134000  0.089942773   -7.6630966    3655.8813          367 
  135000  0.088832673   -7.6697613    3658.3401          418 
  136000  0.089801364   -7.6636039    3654.4479          410 
  137000   0.08960301   -7.6672603    3655.8329          447 
  138000  0.089549385   -7.6672987    3658.0098          289 
  139000  0.089935725   -7.6572538     3652.047          433 
  140000  0.090767341   -7.6670618    3657.7385          426 
  141000  0.087368154    -7.666087     3655.382          318 
  142000  0.089664557   -7.6634843    3653.8454          358 
  143000  0.090492365   -7.6708517    3659.7238          425 
  144000  0.088770796   -7.6632894     3655.282          281 
  145000  0.087938324   -7.6641125    3654.6709          446 
  146000  0.091867709   -7.6696229    3657.4806          425 
  147000  0.089178577   -7.6662571    3654.0482          363 
  148000  0.089034531   -7.6663945    3656.8577          378 
  149000  0.089726038   -7.6689091    3656.3952          254 
  150000  0.088954736   -7.6616751    3652.7705          322 
  151000  0.090123531   -7.6684605    3656.6219          430 
  152000  0.089941659   -7.6673655    3655.0877          498 
  153000  0.090207374   -7.6626258    3651.9657          459 
  154000  0.089475088   -7.6690362    3657.2179          261 
  155000  0.090128273   -7.6683522    3653.5358          531 
  156000  0.087200277   -7.6642134    3654.7461          502 
  157000  0.089478764   -7.6710075    3657.4768          414 
  158000  0.090401059   -7.6666013    3653.3163          407 
  159000  0.089967069    -7.667687    3654.7689          354 
  160000  0.087824518   -7.6711348    3658.7698          388 
  161000  0.088562474    -7.665241    3654.9612          314 
  162000  0.089548322    -7.666077    3655.5206          428 
  163000   0.09089067   -7.6687549    3655.3815          430 
  164000  0.088732461   -7.6616397    3652.4642          308 
  165000  0.089775452   -7.6681778    3655.1749          392 
  166000  0.089661748    -7.669137    3656.4191          354 
  167000  0.089921604    -7.665945    3653.5061          332 
  168000   0.09109944   -7.6700796    3655.9044          280 
  169000  0.090953766   -7.6657456    3655.6475          463 
  170000  0.090953325   -7.6642893     3653.212          298 
  171000  0.089418916   -7.6668764    3656.6926          299 
  172000  0.087606427   -7.6672964    3654.4867          287 
  173000  0.089217081   -7.6685197    3655.1884          463 
  174000  0.090428206   -7.6684638    3656.5791          329 
  175000  0.090933802   -7.6666356    3654.3085          445 
  176000  0.089219657   -7.6693864    3656.5119          431 
  177000  0.088534306   -7.6675569    3655.4269          249 
  178000  0.089914031   -7.6635501     3652.386          309 
  179000  0.089176492   -7.6670015    3655.8491          460 
  180000  0.087744174   -7.6659085    3655.2362          422 
  181000  0.089731531   -7.6680508    3654.3022          322 
  182000  0.091134828   -7.6708917    3658.4148          422 
  183000  0.091547607    -7.667129    3654.9148          442 
  184000  0.090947626   -7.6678583    3654.3617          449 
  185000  0.089489961    -7.668051    3656.3454          352 
  186000  0.091860803   -7.6641926    3652.4716          487 
  187000  0.089565873   -7.6699791    3655.3828          382 
  188000  0.088336507   -7.6688986    3656.5311          497 
  189000  0.089462609   -7.6610956    3650.2875          465 
  190000  0.089040696   -7.6699979    3656.5639          460 
  191000  0.089182688   -7.6680502    3655.4693          485 
  192000  0.088737714   -7.6621993    3654.4748          419 
  193000  0.090256045    -7.671796    3659.2654          468 
  194000  0.088966782    -7.667068    3654.2701          424 
  195000  0.091046792    -7.666387    3654.9137          343 
  196000  0.090529144    -7.671939    3658.5398          235 
  197000  0.091340912   -7.6676754    3653.9737          474 
  198000  0.089896763   -7.6706105      3655.84          355 
  199000  0.089746946   -7.6687927    3656.4529          370 
  200000  0.088539263   -7.6639066    3652.6564          507 
  201000  0.090421941   -7.6676578    3656.6393          475 
  202000  0.090109952   -7.6699737    3654.3726          217 
  203000  0.091980804   -7.6662015    3655.0026          299 
  204000  0.091176642   -7.6720857    3658.0816          454 
  205000  0.088643837   -7.6639661    3654.3809          427 
  206000  0.088710232   -7.6683671    3655.0276          456 
  207000  0.087282735   -7.6774062    3658.7248          433 
  208000  0.090761632   -7.6655056    3653.0614          322 
  209000  0.089239467   -7.6663644    3656.4453          482 
  210000   0.09107438   -7.6711187    3656.6485          492 
  211000  0.089970609   -7.6634947     3650.984          354 
  212000  0.087927734    -7.670462     3656.644          370 
  213000  0.089355606   -7.6670363    3655.5252          238 
  214000  0.089084653   -7.6642972    3652.0245          234 
  215000  0.090554859   -7.6738872    3658.4808          492 
  216000  0.088853459   -7.6667493    3653.9184          246 
  217000  0.090312646   -7.6658014    3654.4098          328 
  218000  0.090592098   -7.6713863     3656.298          418 
  219000  0.088786054   -7.6662543    3654.0857          381 
  220000  0.089708083   -7.6704596    3655.9908          287 
  221000  0.089827739   -7.6703527    3655.2545          491 
  222000  0.090394864   -7.6668142    3654.8463          305 
  223000  0.090174197   -7.6727034    3657.8127          315 
  224000  0.089367987   -7.6669421    3654.5175          427 
  225000  0.088151595    -7.668129    3654.9224          462 
  226000  0.089891021   -7.6728711    3657.9578          304 
  227000   0.08866885   -7.6699714    3653.3747          426 
  228000  0.089252433   -7.6691535    3655.8743          417 
  229000  0.089867142   -7.6704454    3655.2693          377 
  230000  0.091046264   -7.6679907    3654.6802          526 
  231000  0.090942117    -7.672167    3657.7073          440 
  232000  0.088948335   -7.6686303    3654.7142          350 
  233000  0.089564163   -7.6635631    3652.4659          444 
  234000  0.091030602   -7.6716744    3656.7781          429 
  235000  0.090519075   -7.6671234     3653.966          397 
  236000  0.090176146   -7.6705201    3653.2628          394 
  237000  0.092187158   -7.6725307    3657.9361          263 
  238000   0.09004666   -7.6683662    3654.0989          417 
  239000  0.090142708   -7.6678392     3655.254          437 
  240000  0.090195193   -7.6721827    3657.5542          370 
  241000  0.086900757    -7.665824    3651.9581          345 
  242000  0.093097248   -7.6699737    3656.0855          250 
  243000  0.090439526   -7.6675796     3655.048          391 
  244000  0.090294977   -7.6666076    3654.5924          298 
  245000  0.088951254   -7.6680936    3656.4079          392 
  246000  0.089250969   -7.6675463    3652.5478          497 
  247000  0.090067459    -7.668543    3654.8774          332 
  248000  0.091699863   -7.6718938    3657.3095          496 
  249000  0.088867188   -7.6681709      3654.54          271 
  250000  0.090095722   -7.6669493    3655.7774          417 
  251000  0.090892019   -7.6711357    3655.5233          257 
  252000  0.088868668   -7.6666229    3651.6316          392 
  253000  0.089310027   -7.6686493    3655.9056          450 
  254000  0.090261954   -7.6713014    3656.0057          442 
  255000  0.089254061   -7.6668134    3653.9572          488 
  256000  0.090535253   -7.6746326    3657.4464          394 
  257000  0.088651929   -7.6693298    3654.6475          307 
  258000  0.091841517   -7.6695091    3653.3499          239 
  259000  0.091851817   -7.6722639    3657.4137          343 
  260000  0.088290549   -7.6625488    3651.6317          510 
  261000  0.089945081   -7.6716927    3654.2566          339 
  262000  0.091173651   -7.6705267     3656.431          442 
  263000   0.08950104   -7.6644237    3653.0819          460 
  264000  0.088907054   -7.6732589    3657.7094          427 
  265000  0.088660199   -7.6678732     3655.688          438 
  266000  0.089958398   -7.6657177    3652.9426          281 
  267000  0.087843474   -7.6755568    3659.5432          431 
  268000    0.0898302   -7.6666742    3654.1325          433 
  269000  0.089750191   -7.6679576    3654.1488          385 
  270000  0.089883362    -7.670949    3656.8619          421 
  271000  0.090870025   -7.6629826     3650.843          379 
  272000  0.088785487   -7.6693385    3655.9734          380 
  273000   0.09128223   -7.6707157    3656.1617          430 
  274000  0.090813532   -7.6632982    3652.0327          394 
  275000  0.087935863   -7.6680869    3657.2884          411 
  276000  0.092159421   -7.6660519     3655.518          427 
  277000  0.090561756   -7.6642771    3651.4469          457 
  278000  0.090840352    -7.670558    3656.9398          427 
  279000  0.092290445   -7.6686801    3654.4704          420 
  280000  0.092271477   -7.6671249    3654.1203          304 
  281000  0.091063356   -7.6702356    3657.5436          243 
  282000  0.090821871   -7.6646326    3654.2674          289 
  283000  0.089464985   -7.6703811    3654.9359          461 
  284000    0.0889219   -7.6704055    3656.1492          464 
  285000  0.089906152   -7.6656817    3654.8999          465 
  286000  0.091350901   -7.6722026    3658.5151          375 
  287000  0.090920574    -7.667394    3654.9592          381 
  288000  0.089420009   -7.6671233    3653.0467          340 
  289000  0.090929348   -7.6728363    3656.0537          466 
  290000  0.090249339   -7.6664703    3653.1657          435 
  291000  0.089650299   -7.6680344    3655.5854          295 
  292000  0.090894124   -7.6725348    3656.7676          494 
  293000  0.089987613   -7.6686644    3653.6946          455 
  294000  0.089385201   -7.6696842    3655.5454          440 
  295000  0.090563671   -7.6691402    3656.0991          424 
  296000   0.08762515   -7.6633754    3651.1564          440 
  297000  0.091382161   -7.6704246    3655.2994          461 
  298000  0.090178735   -7.6682924    3655.4261          463 
  299000  0.091678895   -7.6633445    3651.9347          301 
  300000  0.089727264   -7.6719661    3657.2902          459 
  301000  0.090830914   -7.6663762     3654.968          417 
  302000  0.090172099   -7.6662947    3654.0058          443 
  303000  0.089276154   -7.6753091    3657.4786          331 
  304000   0.09005418   -7.6668726    3652.8852          458 
  305000   0.08991057   -7.6690011     3655.039          345 
  306000  0.091792155   -7.6707115    3658.0747          298 
  307000  0.088803052   -7.6684966    3653.5283          342 
  308000  0.089766019   -7.6701029    3656.1214          426 
  309000   0.09032757   -7.6668469    3655.8959          288 
  310000  0.090512779   -7.6641866    3651.9391          413 
  311000  0.090972144   -7.6699163    3655.6802          301 
  312000  0.089692991   -7.6695786    3653.7111          366 
  313000  0.087919683    -7.667222    3654.4027          417 
  314000   0.08916158   -7.6717942    3655.4689          492 
  315000  0.090571385   -7.6626351     3651.974          431 
  316000  0.091322182   -7.6698342    3655.0057          405 
  317000  0.089552635   -7.6712807     3655.859          455 
  318000  0.091172585   -7.6638496    3652.1021          346 
  319000  0.088910496   -7.6725281    3655.5821          268 
  320000  0.088940131   -7.6706072    3655.4631          427 
  321000  0.091911251   -7.6669625    3653.0143          439 
  322000  0.090882217   -7.6726452    3657.5639          368 
  323000  0.092118998   -7.6697449    3655.4033          410 
  324000  0.089245838   -7.6653207    3653.9752          391 
  325000  0.089359603   -7.6753277    3659.4224          435 
  326000  0.087487382   -7.6668295    3653.9603          332 
  327000  0.088204973    -7.665806    3655.2635          452 
  328000  0.090979354   -7.6728968    3657.8729          238 
  329000  0.090391975   -7.6647679     3652.806          356 
  330000   0.09106516   -7.6713947    3655.1098          393 
  331000  0.090191578   -7.6698739    3655.0228          393 
  332000  0.089572445   -7.6645229    3651.8463          454 
  333000  0.089086052   -7.6704537    3656.0655          496 
  334000  0.089495539   -7.6694587    3654.1597          381 
  335000  0.090943154   -7.6667064    3653.9385          477 
  336000  0.089473552   -7.6710061    3657.1655          439 
  337000  0.090619886   -7.6647831    3653.7607          472 
  338000   0.08970267   -7.6676526    3655.4472          361 
  339000  0.090264754   -7.6706539    3656.1333          333 
  340000  0.089251878   -7.6598625    3651.0666          409 
  341000  0.091585325   -7.6714062    3655.7396          430 
  342000  0.091899048   -7.6701568    3655.5906          399 
  343000  0.089238455   -7.6650546    3650.9937          351 
  344000  0.088433706   -7.6747536    3657.0938          462 
  345000  0.090143964   -7.6699747    3654.4365          306 
  346000  0.089041194    -7.661745     3654.226          432 
  347000  0.090491644   -7.6724163    3657.2564          275 
  348000  0.090660919   -7.6679905    3654.0673          458 
  349000  0.089229586   -7.6695122    3655.0084          337 
  350000  0.091931858   -7.6689786    3655.5983          399 
  351000  0.088434389   -7.6656851     3652.713          354 
  352000  0.090231944   -7.6704727    3655.2583          406 
  353000  0.089532601   -7.6716691    3655.8422          384 
  354000  0.090601154   -7.6637604    3651.6392          277 
  355000  0.091791707   -7.6700824    3657.3407          287 
  356000  0.091735504   -7.6651346    3655.3559          293 
  357000  0.089619852   -7.6651784    3651.5359          467 
  358000  0.091301248    -7.669544     3657.331          419 
  359000   0.08998647   -7.6680516    3653.8477          416 
  360000  0.090667503   -7.6675915    3654.7938          265 
  361000  0.090304217   -7.6703481    3656.0285          423 
  362000  0.090991537   -7.6672119    3652.5897          305 
  363000    0.0900898   -7.6728288    3655.6346          490 
  364000  0.088790356   -7.6701207    3656.3385          428 
  365000   0.09015297   -7.6647834    3653.4312          469 
  366000  0.088861807   -7.6728549    3658.4884          507 
  367000   0.09015833   -7.6671501    3655.7202          278 
  368000  0.088917692   -7.6654328     3654.449          483 
  369000  0.090509792   -7.6743264    3658.8719          288 
  370000  0.088910399   -7.6650858    3655.2601          477 
  371000  0.090869827   -7.6672477    3654.6757          252 
  372000  0.091282147   -7.6747276    3657.2451          472 
  373000  0.089130599   -7.6626994    3650.0354          420 
  374000  0.089734605    -7.667062    3656.0645          454 
  375000  0.090523372   -7.6693911    3655.3529          226 
  376000  0.089232069   -7.6632293    3652.5435          394 
  377000  0.089719657   -7.6723149    3656.0335          299 
  378000  0.090709633   -7.6678552    3655.2985          313 
  379000  0.090413849   -7.6635006     3652.099          258 
  380000   0.09122798   -7.6691502    3658.0236          353 
  381000  0.090599474   -7.6699458     3653.638          418 
  382000  0.090145149   -7.6655064    3654.2053          436 
  383000   0.08729134   -7.6734197    3658.0978          318 
  384000  0.091686766   -7.6681642    3653.8174          367 
  385000  0.090032105   -7.6693782    3655.8725          369 
  386000  0.089725472   -7.6721789    3656.3811          394 
  387000  0.089634319   -7.6662265     3653.731          255 
  388000  0.087477792   -7.6687264    3656.8853          233 
  389000  0.090867966   -7.6708397    3655.3611          438 
  390000   0.08959394   -7.6676097    3654.2985          266 
  391000  0.087789006   -7.6717377      3658.54          440 
  392000  0.091223296   -7.6680977    3654.9856          495 
  393000  0.090815887   -7.6683091    3654.2298          421 
  394000  0.088817314   -7.6744622     3657.815          432 
  395000  0.091577725   -7.6680267    3654.2932          404 
  396000   0.09203265    -7.668449    3655.3204          450 
  397000  0.090884067   -7.6712991     3658.462          311 
  398000  0.089166964    -7.668094    3652.6713          458 
  399000  0.091431917   -7.6695084    3654.9531          495 
  400000  0.089328147   -7.6698249    3656.3073          333 
  401000  0.090372274   -7.6653901    3652.5636          321 
  402000  0.089497114   -7.6696353    3656.1333          372 
  403000  0.089700455   -7.6708114    3657.4482          468 
  404000  0.090487878   -7.6650992    3652.8002          393 
  405000  0.090000754   -7.6694667    3656.2533          457 
  406000  0.089835609   -7.6671442    3654.3973          378 
  407000  0.091275235   -7.6667906    3652.7256          424 
  408000  0.088253044   -7.6727799    3656.6714          459 
  409000  0.089371475   -7.6677126    3653.8589          319 
  410000   0.08864332   -7.6694486    3654.8198          484 
  411000  0.091401487   -7.6746517    3659.4566          445 
  412000  0.089198794   -7.6690517    3652.9057          472 
  413000  0.087243943   -7.6700316    3655.6031          477 
  414000  0.090707569   -7.6680067    3656.0853          362 
  415000  0.089097652    -7.663267    3653.4887          402 
  416000  0.090766326    -7.669644    3656.6123          276 
  417000  0.090626941   -7.6683549    3654.2054          423 
  418000  0.089909199   -7.6668293    3655.0358          446 
  419000  0.090494882   -7.6736315     3657.096          255 
  420000  0.087909389   -7.6663604    3653.1664          342 
  421000  0.090389811   -7.6671566    3655.0141          330 
  422000  0.092333181   -7.6725545    3656.7739          281 
  423000  0.090872929   -7.6663956    3653.7981          403 
  424000  0.089418251   -7.6702324    3656.1879          374 
  425000  0.090925497   -7.6699776     3656.015          458 
  426000  0.089679065   -7.6650692    3653.1067          463 
  427000   0.08915616   -7.6720089    3657.1201          432 
  428000  0.091639227    -7.665575    3654.4036          446 
  429000  0.087767272   -7.6683831    3653.5126          404 
  430000  0.089009154   -7.6707063    3655.7251          363 
  431000  0.089595858   -7.6662029    3653.6086          316 
  432000  0.090213097   -7.6722662    3655.7408          469 
  433000  0.088326229   -7.6691972    3656.5022          326 
  434000  0.088834429    -7.667586    3652.4122          509 
  435000  0.091134514   -7.6719778     3657.232          354 
  436000  0.091101846   -7.6674243    3655.6205          452 
  437000  0.089593713   -7.6674685    3654.0601          431 
  438000  0.090067813   -7.6708267    3658.8839          325 
  439000  0.091078377   -7.6676623    3654.9019          418 
  440000  0.089670621   -7.6663251    3653.7738          431 
  441000  0.089154617   -7.6702165    3655.6441          291 
  442000  0.090291737   -7.6662941    3651.9776          417 
  443000  0.089925142   -7.6682366    3655.0865          475 
  444000  0.089861159   -7.6708946    3656.7868          310 
  445000  0.089689602   -7.6655018    3654.1724          431 
  446000  0.091183017   -7.6697362     3658.597          388 
  447000  0.089508217   -7.6686897    3655.1899          378 
  448000  0.089419798   -7.6680921    3654.0558          226 
  449000  0.089373023   -7.6725538    3657.9603          412 
  450000  0.092089295   -7.6684207    3654.7345          506 
  451000   0.08965417   -7.6696506    3654.3888          475 
  452000  0.089680367   -7.6712648     3656.054          463 
  453000  0.090402048   -7.6645813    3651.5998          454 
  454000  0.090248188   -7.6686151    3655.3288          390 
  455000  0.087862228   -7.6688405    3655.0264          437 
  456000  0.089794787   -7.6659267    3652.6362          320 
  457000  0.092220961   -7.6680517    3656.5015          413 
  458000  0.089048156   -7.6657403    3652.7628          457 
  459000  0.089466403   -7.6677448    3655.4463          394 
  460000  0.091405998   -7.6703488    3657.1187          461 
  461000  0.091039079   -7.6667812    3654.3414          489 
  462000  0.092328543   -7.6696573    3657.5968          387 
  463000  0.089645516   -7.6719084    3654.5562          391 
  464000  0.090813153   -7.6677279    3653.0807          269 
  465000  0.090296158    -7.668889    3655.5468          374 
  466000  0.088373807   -7.6645875    3654.4975          454 
  467000   0.09019479   -7.6674387    3654.9927          257 
  468000  0.091110062   -7.6724267    3658.4511          294 
  469000  0.092458052   -7.6668621     3654.537          313 
  470000  0.091106614   -7.6683806    3655.8967          480 
  471000  0.090215626   -7.6697407    3655.8786          447 
  472000  0.089215328   -7.6631611     3654.426          246 
  473000  0.088378564   -7.6694578    3655.3638          503 
  474000  0.090051184   -7.6676981    3655.0357          454 
  475000  0.089947505   -7.6680494    3653.8201          500 
  476000  0.089629555   -7.6730205    3657.3113          463 
  477000  0.088918283   -7.6633224    3654.0399          359 
  478000  0.088945589   -7.6676465    3654.5528          504 
  479000  0.089896532   -7.6740945    3656.7376          442 
  480000  0.090059617   -7.6624389    3652.7482          376 
  481000  0.091174669   -7.6722743     3653.944          403 
  482000  0.088188014   -7.6692445    3656.9506          349 
  483000  0.091608055   -7.6634926    3651.5831          395 
  484000  0.087996393   -7.6701191    3655.8432          434 
  485000  0.087448285   -7.6709538    3655.4623          295 
  486000  0.091584416   -7.6678385    3654.5513          318 
  487000  0.091734938   -7.6701745    3656.3091          280 
  488000  0.090804828   -7.6654257    3653.0502          486 
  489000  0.091248337   -7.6704523    3655.5927          425 
  490000  0.089942211   -7.6669753    3656.6531          294 
  491000   0.08924873   -7.6648343    3653.7887          443 
  492000  0.089680317   -7.6719002    3656.5656          489 
  493000  0.088861052   -7.6681462    3655.9046          407 
  494000  0.090906988    -7.669071    3653.4934          468 
  495000  0.091353053    -7.669275    3655.8938          235 
  496000  0.088793951   -7.6666915    3655.3647          348 
  497000  0.087746426   -7.6685546    3654.1364          448 
  498000  0.091162184   -7.6705334    3656.8816          397 
  499000  0.090982446   -7.6669506    3653.4659          387 
  500000  0.090458709   -7.6678955    3655.5731          327 
  501000  0.090147263   -7.6717569    3657.7416          220 
  502000  0.090651816   -7.6662957     3653.008          322 
  503000  0.090990564   -7.6717811    3656.5825          303 
  504000  0.089429515    -7.671787    3655.7168          411 
  505000   0.08892624   -7.6658716    3653.7269          447 
  506000  0.089808484   -7.6702137    3657.7817          263 
  507000  0.090493699   -7.6674431    3655.1937          431 
  508000  0.089699759   -7.6667999    3651.7698          267 
  509000  0.090921808   -7.6685676    3656.3618          366 
  510000  0.092987436   -7.6657189    3653.9535          427 
  511000  0.088839628   -7.6683627    3653.8757          431 
  512000  0.088654035   -7.6707353    3658.8583          296 
  513000  0.089598374   -7.6657572    3651.5136          467 
  514000  0.091040118    -7.668203    3655.5849          232 
  515000  0.090555573    -7.668767    3656.5954          419 
  516000  0.089754149   -7.6665623    3652.3166          423 
  517000  0.090775111   -7.6725748    3656.0153          487 
  518000  0.089996454   -7.6678485    3654.6992          476 
  519000  0.089451813   -7.6683694     3652.928          437 
  520000    0.0873543    -7.670815    3656.0217          479 
  521000  0.090145473   -7.6650448    3652.9039          505 
  522000  0.089381909   -7.6691283    3654.5613          439 
  523000  0.091171731    -7.669731    3657.0801          375 
  524000  0.094035473   -7.6647718    3652.8151          426 
  525000  0.088675317   -7.6726584    3656.9984          327 
  526000  0.089386315   -7.6710201     3655.329          421 
  527000  0.089320203   -7.6679332    3652.7057          374 
  528000   0.08909408   -7.6753458    3657.8757          419 
  529000    0.0906196   -7.6656505    3654.9216          431 
  530000  0.089940888     -7.66525    3654.7328          463 
  531000  0.089639892   -7.6718872    3659.4083          440 
  532000  0.088533653   -7.6645647     3652.568          390 
  533000  0.089883411   -7.6703142    3655.1066          489 
  534000  0.090596804   -7.6717876    3656.1644          465 
  535000  0.090593905   -7.6616623    3651.9311          420 
  536000  0.090477262   -7.6708479    3658.5724          482 
  537000  0.090733666   -7.6669666    3656.1708          342 
  538000  0.091986345   -7.6634709    3651.2074          451 
  539000  0.090893459   -7.6704083    3657.0464          417 
  540000    0.0892972   -7.6706309    3653.8422          398 
  541000  0.091034322   -7.6661033    3654.2967          333 
  542000  0.091652277   -7.6721176    3656.3038          472 
  543000  0.089412186    -7.666546    3653.5313          447 
  544000  0.088843367   -7.6708136    3654.6742          460 
  545000  0.089290112   -7.6699969    3657.7465          407 
  546000  0.089042323   -7.6667652    3653.5336          400 
  547000  0.089096309   -7.6701621    3656.1526          273 
  548000  0.088979762   -7.6706755    3657.4553          435 
  549000  0.090608691   -7.6669347    3653.0943          233 
  550000  0.091890099   -7.6685763    3657.6571          346 
  551000  0.090927662   -7.6705152    3654.4669          374 
  552000  0.088690042   -7.6669114    3652.6687          222 
  553000  0.091505269   -7.6697227    3656.7919          385 
  554000  0.091172984   -7.6675481      3653.83          454 
  555000  0.089424715   -7.6673848    3654.3356          474 
  556000  0.090080711   -7.6721439    3656.2229          418 
  557000  0.090220161   -7.6670238    3652.7878          435 
  558000   0.08889216   -7.6686322    3656.3965          356 
  559000  0.089372455   -7.6710822    3655.5347          496 
  560000  0.088815108   -7.6661942     3653.842          406 
  561000  0.088501882   -7.6714053    3657.9638          316 
  562000  0.090001619   -7.6687821    3655.3136          433 
  563000  0.088322141   -7.6649877    3653.9698          504 
  564000  0.090885011   -7.6756672    3657.8142          454 
  565000  0.090723317   -7.6649376    3653.6239          339 
  566000  0.089817163   -7.6670108    3654.4402          402 
  567000  0.091777542   -7.6714648    3656.7869          370 
  568000  0.089414205   -7.6654794    3652.8237          483 
  569000  0.091177473   -7.6700148    3655.2369          379 
  570000  0.089851792   -7.6715251    3656.1261          231 
  571000  0.089981547   -7.6668727    3653.8056          423 
  572000  0.087156901   -7.6705744    3657.3047          382 
  573000  0.088669942   -7.6710599    3654.6414          479 
  574000  0.092238874    -7.662763    3654.1635          435 
  575000  0.091682978   -7.6682894    3656.1225          426 
  576000  0.089366985   -7.6676137    3653.8948          237 
  577000  0.089879577   -7.6655139    3655.1357          301 
  578000  0.090307179    -7.672251    3657.5147          356 
  579000   0.09099478   -7.6643176    3651.8457          476 
  580000  0.089587186   -7.6685187    3655.2442          395 
  581000  0.089419308   -7.6695166    3656.7237          411 
  582000  0.091213298   -7.6661473    3651.1527          454 
  583000  0.090864647    -7.668816    3656.0814          384 
  584000  0.089568594   -7.6688557    3655.9176          442 
  585000  0.089807806   -7.6613979    3651.2218          429 
  586000  0.091699716   -7.6712084    3656.8414          457 
  587000  0.091114998   -7.6677912    3654.9546          454 
  588000   0.08937295   -7.6642341    3654.1615          379 
  589000  0.090625314   -7.6673879    3655.8754          394 
  590000  0.088733503   -7.6683779    3653.8529          359 
  591000  0.090472619   -7.6678768    3654.8612          429 
  592000  0.090197564    -7.671162    3658.2636          355 
  593000    0.0906026   -7.6663765    3654.5046          393 
  594000  0.091412209   -7.6710435     3654.324          403 
  595000  0.089683904   -7.6670021    3653.9905          437 
  596000  0.089487175   -7.6678718    3655.7634          292 
  597000  0.089208818   -7.6706942    3655.2919          478 
  598000  0.092080938   -7.6631273     3652.719          330 
  599000   0.08833626   -7.6694223    3655.0837          379 
  600000  0.088806531     -7.66728    3654.8075          456 
  601000  0.090633976   -7.6656196     3654.893          437 
  602000  0.089210849   -7.6701348    3657.5676          475 
  603000  0.090328443   -7.6717895    3653.5742          456 
  604000  0.088440134   -7.6671234    3654.1247          447 
  605000  0.090625856   -7.6688227    3655.7004          489 
  606000  0.090198151   -7.6651242    3652.2098          508 
  607000  0.089620385   -7.6701925    3654.6633          443 
  608000  0.089525129   -7.6709442    3655.7718          497 
  609000  0.090654719    -7.663811    3652.9002          265 
  610000  0.090517601   -7.6719251    3658.0137          436 
  611000   0.08889619   -7.6696327    3655.9401          441 
  612000   0.09040137   -7.6653744    3653.5263          360 
  613000  0.088712679   -7.6707818    3658.7221          327 
  614000  0.090160571   -7.6679281    3654.5495          459 
  615000  0.091574504   -7.6680637    3653.7299          378 
  616000  0.089577997   -7.6703184    3658.4511          401 
  617000  0.091852209   -7.6669477    3653.7038          453 
  618000  0.088813738   -7.6669037    3654.8059          283 
  619000  0.090633737   -7.6699613    3657.6091          496 
  620000  0.089417131   -7.6603221    3649.9152          466 
  621000  0.092204631   -7.6710467    3655.3593          503 
  622000  0.088405809   -7.6670352    3656.2804          366 
  623000  0.090848249   -7.6616745    3653.3641          332 
  624000  0.088043048   -7.6707473    3657.2553          250 
  625000  0.089101466   -7.6677914    3654.9012          416 
  626000  0.090469746   -7.6689841    3653.4845          354 
  627000  0.089571474   -7.6724465     3659.877          431 
  628000  0.090716051   -7.6672446    3654.6058          442 
  629000  0.090082809   -7.6670166    3653.8062          475 
  630000  0.091112222   -7.6712273    3655.9989          307 
  631000  0.088362249   -7.6669166    3653.1602          330 
  632000  0.089568523   -7.6651778    3655.8775          430 
  633000  0.089692622   -7.6709906    3656.1978          434 
  634000  0.092286689   -7.6620748    3653.5505          385 
  635000  0.090484383   -7.6712587    3656.7069          463 
  636000  0.089140582   -7.6686137    3656.3219          369 
  637000  0.089413359   -7.6633835    3651.6712          231 
  638000  0.091100997   -7.6704907    3656.4378          463 
  639000  0.088247768    -7.667688    3654.2359          473 
  640000  0.087574402   -7.6702279    3653.9049          425 
  641000  0.089478178   -7.6730669    3657.4629          450 
  642000  0.089737713   -7.6694376    3654.1464          454 
  643000  0.090413089   -7.6708811    3655.2059          469 
  644000  0.089277304   -7.6674729    3655.6596          458 
  645000  0.089212038   -7.6672625    3653.3454          359 
  646000  0.090897354   -7.6698077    3656.6899          492 
  647000   0.09012858   -7.6656255    3654.6963          507 
  648000  0.089068766   -7.6675538    3653.3476          426 
  649000  0.090132633   -7.6722235    3657.1091          451 
  650000  0.090311624   -7.6655405    3653.5102          408 
  651000  0.087693843   -7.6666264    3655.3284          340 
  652000  0.092054117   -7.6682129    3656.5338          236 
  653000  0.090649655   -7.6624292    3653.3342          492 
  654000  0.089175638   -7.6679787    3655.7897          402 
  655000  0.090368644   -7.6697989    3655.8309          429 
  656000  0.088499215    -7.670011    3653.5538          499 
  657000  0.090434453   -7.6720762    3656.0287          423 
  658000  0.089812212   -7.6682722    3654.2155          457 
  659000  0.088714964   -7.6705904    3652.9977          460 
  660000  0.089980119   -7.6749199    3657.8588          296 
  661000  0.089661919   -7.6654632    3652.8647          335 
  662000  0.088636523   -7.6699901    3653.9918          400 
  663000  0.089776548   -7.6745389    3655.5192          417 
  664000  0.089270988   -7.6650599    3650.2035          501 
  665000  0.092169387   -7.6701164    3655.8777          420 
  666000  0.091709175   -7.6725028    3654.7312          525 
  667000  0.089908329   -7.6663569    3652.8073          366 
  668000  0.090925351   -7.6762153    3659.2753          321 
  669000  0.089590882   -7.6684411    3653.6534          494 
  670000  0.090137487   -7.6694741     3653.429          520 
  671000  0.090353006   -7.6721349    3657.7111          478 
  672000  0.089008849   -7.6666431    3651.2944          523 
  673000  0.090513249   -7.6721602    3654.8045          547 
  674000  0.089439602   -7.6699689    3655.1758          442 
  675000  0.088509023    -7.664802    3651.8453          403 
  676000  0.089872753   -7.6701935    3655.9506          231 
  677000  0.090842247   -7.6686175    3654.8153          441 
  678000  0.091475157   -7.6673998    3652.0184          465 
  679000  0.090093066   -7.6750846    3654.8945          389 
  680000  0.091021362   -7.6686887     3652.935          497 
  681000  0.088858224   -7.6722623    3653.7246          441 
  682000  0.089480517   -7.6718518    3657.4576          475 
  683000  0.090051556   -7.6701688    3654.5919          254 
  684000  0.090528299   -7.6720502    3655.0861          430 
  685000  0.089978232   -7.6727824    3656.4839          499 
  686000  0.088512641   -7.6652867    3651.0385          479 
  687000  0.089129626   -7.6725864    3656.3926          327 
  688000  0.089893138    -7.669999    3654.5514          450 
  689000  0.087268023   -7.6686903    3653.7436          353 
  690000  0.089371734   -7.6728364     3655.706          375 
  691000  0.089457103   -7.6698307     3653.701          480 
  692000  0.090768684   -7.6690115    3656.2674          505 
  693000  0.089285143   -7.6731522    3654.6203          347 
  694000   0.08865609   -7.6668006    3651.8952          448 
  695000  0.091308702   -7.6741581    3655.3031          535 
  696000  0.090308691    -7.669648    3654.6227          352 
  697000  0.090327443   -7.6694959    3655.0382          459 
  698000  0.091035642   -7.6692024    3656.4005          429 
  699000  0.091190394   -7.6676784    3652.7385          451 
  700000  0.091379872   -7.6710627    3654.9074          521 
  701000  0.088956782   -7.6712846    3655.3507          493 
  702000  0.088111016   -7.6682094    3653.0079          514 
  703000  0.089666476   -7.6717466    3655.6489          493 
  704000  0.089132521    -7.670438    3654.2053          414 
  705000  0.089555416   -7.6665144    3652.7207          445 
  706000  0.089120276   -7.6745686    3656.2058          491 
  707000  0.090283184   -7.6663591    3652.3334          471 
  708000  0.090276479   -7.6700602    3654.3036          469 
  709000  0.092687098   -7.6738394    3656.6152          497 
  710000  0.089756849   -7.6693983    3654.1644          483 
  711000  0.089518892   -7.6708121    3654.9815          425 
  712000  0.089654887   -7.6724627    3654.8838          477 
  713000   0.09113503   -7.6659822    3651.5241          534 
  714000  0.090237332   -7.6720568     3655.228          459 
  715000  0.089266311   -7.6706161    3654.0467          483 
  716000  0.089649993   -7.6718638    3653.5545          398 
  717000  0.089332236   -7.6728661     3655.542          375 
  718000   0.08874955   -7.6679862    3652.8942          375 
  719000  0.091437566   -7.6692626    3655.4153          396 
  720000  0.090756547    -7.670198    3655.1427          413 
  721000  0.087765955   -7.6687314     3653.759          508 
  722000  0.089543616   -7.6733346    3656.1073          406 
  723000  0.091723913   -7.6684656    3652.7258          326 
  724000  0.089647469    -7.670229     3653.932          407 
  725000  0.089101174   -7.6725141    3656.8916          455 
  726000   0.08962046   -7.6679136    3651.6354          402 
  727000  0.089944987   -7.6728486    3655.8223          458 
  728000  0.089097473   -7.6712028    3655.5704          509 
  729000  0.089064333   -7.6703521    3652.5105          530 
  730000  0.088990293   -7.6770267    3658.6215          423 
  731000  0.088749752   -7.6706667    3654.5076          475 
  732000  0.088991497   -7.6672434    3653.3123          413 
  733000  0.090934814   -7.6760147    3659.5583          482 
  734000  0.091188118   -7.6684192    3653.8686          476 
  735000  0.090154835   -7.6710543    3653.9756          466 
  736000  0.091755261   -7.6726023    3655.5296          414 
  737000  0.090073408   -7.6678746    3652.3713          465 
  738000  0.091242103   -7.6750255     3656.429          425 
  739000  0.091014306   -7.6725715    3654.7235          512 
  740000  0.092103672   -7.6698918    3652.4557          431 
  741000  0.089701011   -7.6746442    3658.2591          400 
  742000  0.088934092   -7.6693472    3653.3687          466 
  743000  0.090142278   -7.6689627     3654.014          397 
  744000  0.088968503   -7.6762145    3658.3335          437 
  745000  0.092226786   -7.6672246    3651.9193          391 
  746000  0.090059241   -7.6712045    3654.8442          454 
  747000  0.089839033   -7.6727661    3655.8098          438 
  748000  0.090756832   -7.6657759    3653.2908          256 
  749000  0.089610265   -7.6726525    3658.1152          503 
  750000  0.089912494   -7.6696598    3654.7084          324 
  751000  0.091754258    -7.670175    3653.3135          410 
  752000   0.09021603   -7.6699092    3655.3753          441 
  753000  0.090839998   -7.6696123    3653.8824          464 
  754000  0.089822111   -7.6704961    3653.8808          500 
  755000  0.089882898   -7.6714404    3656.1654          442 
  756000  0.089563206   -7.6684941    3653.2349          427 
  757000  0.087628972   -7.6716214    3654.4982          422 
  758000  0.089259759   -7.6708846     3656.605          411 
  759000  0.091082567   -7.6688382    3654.3802          466 
  760000  0.089814974   -7.6735762    3656.9685          499 
  761000  0.091742752   -7.6705736     3654.986          435 
  762000  0.090576101   -7.6684686      3652.36          409 
  763000  0.089157623   -7.6717756    3654.7067          433 
  764000  0.088168278   -7.6667564    3654.3197          532 
  765000  0.088435785   -7.6682443    3655.0823          415 
  766000  0.088860463   -7.6744807    3657.2771          400 
  767000  0.090950939    -7.668981     3654.694          455 
  768000  0.092073073   -7.6721777    3655.1486          398 
  769000  0.088700923   -7.6690751    3655.2727          457 
  770000  0.090121587   -7.6688566    3651.3055          438 
  771000  0.089379554    -7.671366    3655.0315          469 
  772000  0.091663888    -7.668084    3653.3853          474 
  773000  0.087202384   -7.6722341    3653.4263          417 
  774000  0.088939557    -7.671055    3656.3115          428 
  775000  0.091192556   -7.6694516    3653.2491          443 
  776000  0.089815685   -7.6721736    3654.8093          440 
  777000  0.088431189   -7.6739523    3654.2494          533 
  778000  0.090027971   -7.6634559    3651.5629          342 
  779000  0.088572925   -7.6711212    3655.3373          362 
  780000  0.090693278   -7.6699602    3655.1545          379 
  781000  0.089068827   -7.6701474    3653.5823          509 
  782000  0.089129735   -7.6712925    3657.5641          522 
  783000   0.09050899    -7.666902     3652.229          441 
  784000  0.092040663   -7.6698416    3653.6208          510 
  785000  0.089514305   -7.6741648    3655.7838          378 
  786000  0.092005005   -7.6673133    3653.1306          442 
  787000  0.092544558   -7.6696966    3655.5887          409 
  788000  0.090720113   -7.6707309    3655.3895          447 
  789000  0.089705188   -7.6690846    3652.5852          447 
  790000  0.093288232    -7.672331    3655.0937          418 
  791000   0.08969675   -7.6719333     3655.491          478 
  792000  0.089520522   -7.6695659    3653.6369          472 
  793000   0.08920654   -7.6711682    3655.5296          442 
  794000  0.090366538   -7.6654592    3653.0488          467 
  795000  0.091408025   -7.6696057    3654.2403          454 
  796000  0.088378203   -7.6716378    3656.2189          418 
  797000  0.091311063   -7.6656893    3652.6999          437 
  798000  0.089885273   -7.6725062     3656.739          452 
  799000  0.090465021   -7.6701535    3655.4512          412 
  800000  0.091410752   -7.6688639     3653.212          432 
  801000  0.090280016   -7.6764054    3658.2782          502 
  802000  0.089771321   -7.6694953    3653.6902          443 
  803000  0.090941031   -7.6718908    3654.3633          445 
  804000  0.091626156   -7.6737224    3657.1477          286 
  805000  0.091007067    -7.669867    3652.1698          456 
  806000  0.089146774   -7.6726389    3655.2988          411 
  807000  0.089608307   -7.6694265    3654.5827          355 
  808000  0.089505252   -7.6672228    3653.0576          360 
  809000  0.090119332   -7.6726962    3655.6944          478 
  810000  0.091103068   -7.6680524    3653.5051          245 
  811000  0.088430422   -7.6708425    3654.5199          457 
  812000  0.090167149    -7.670819    3655.9931          442 
  813000  0.089535839   -7.6695105    3654.6587          465 
  814000  0.089719888   -7.6723985    3654.8687          483 
  815000  0.089291828   -7.6715973    3656.5511          424 
  816000  0.091696619    -7.665788    3652.5375          463 
  817000  0.089306075   -7.6712559    3655.6548          366 
  818000  0.089764941   -7.6738633    3654.6799          364 
  819000  0.090072062   -7.6645547    3653.5609          444 
  820000  0.090071549    -7.671581    3656.2914          462 
  821000  0.088867437   -7.6713253    3651.4831          511 
  822000  0.092804816   -7.6691265    3654.1949          486 
  823000  0.093414598   -7.6719596    3657.2894          459 
  824000  0.089494373   -7.6663803    3651.3275          474 
  825000  0.091087974   -7.6728433    3654.1575          467 
  826000  0.089671438   -7.6713905     3655.583          407 
  827000  0.091597073   -7.6665885    3650.3242          432 
  828000   0.08971492   -7.6707795    3655.7692          473 
  829000  0.089381399   -7.6697865    3655.1201          514 
  830000  0.089337243   -7.6646958    3651.2553          374 
  831000  0.089296722   -7.6708243    3656.3224          505 
  832000  0.091606145   -7.6699456    3654.2356          503 
  833000  0.089492739   -7.6681855    3653.0607          414 
  834000   0.08950054   -7.6723099    3654.5962          496 
  835000  0.088703658   -7.6704991    3653.1502          551 
  836000  0.090252688   -7.6700555    3654.1276          471 
  837000  0.089572735   -7.6758362    3656.9732          276 
  838000  0.090962229   -7.6648951    3653.4694          378 
  839000  0.091427646   -7.6724549    3656.8487          525 
  840000  0.090356415   -7.6697782    3655.8186          547 
  841000  0.091860431   -7.6685079    3652.6557          418 
  842000  0.090722462   -7.6711413    3657.2586          442 
  843000   0.08968361    -7.670924    3654.0071          509 
  844000   0.08956167   -7.6675869    3653.7841          327 
  845000  0.090892542   -7.6719536    3655.2663          360 
  846000  0.090327195   -7.6675237    3652.8878          457 
  847000   0.09135604   -7.6727986    3654.2463          433 
  848000  0.089915131   -7.6727547     3657.453          518 
  849000  0.089790526   -7.6708499    3654.0191          501 
  850000  0.090774166   -7.6722171    3655.5539          469 
  851000  0.089668129   -7.6725471    3654.5179          468 
  852000  0.089477776   -7.6642782    3651.6055          380 
  853000  0.090272811   -7.6720006    3656.1504          372 
  854000  0.089319594   -7.6709084    3653.3479          498 
  855000  0.088885776   -7.6691909    3653.2698          456 
  856000  0.089147361   -7.6721202    3656.4995          507 
  857000  0.092468097   -7.6694965    3652.4248          412 
  858000   0.08903313   -7.6725377    3656.1812          503 
  859000  0.090517979   -7.6727705    3655.0701          463 
  860000  0.087559526   -7.6686296    3653.4965          468 
  861000  0.088478163   -7.6735369     3657.313          460 
  862000  0.091963301   -7.6706359    3653.8299          455 
  863000  0.089474863   -7.6648005     3652.669          357 
  864000  0.089382041    -7.670607    3656.6935          482 
  865000  0.090674567   -7.6671412    3653.0828          281 
  866000  0.090076339   -7.6702953    3654.4999          459 
  867000  0.090155759   -7.6715192     3657.642          492 
  868000  0.088712732   -7.6686926    3653.0451          423 
  869000  0.090044147   -7.6730424    3656.9436          435 
  870000  0.089722167   -7.6700426    3655.2347          449 
  871000  0.089632061   -7.6705879    3653.0505          295 
  872000  0.087680033   -7.6731131    3657.3842          456 
  873000  0.090693868   -7.6647954    3651.8281          419 
  874000  0.090460782    -7.669917    3654.1254          264 
  875000   0.08994223   -7.6711696    3656.0354          346 
  876000  0.092687169   -7.6653589    3652.2058          446 
  877000  0.088572847   -7.6737997    3654.7907          263 
  878000  0.091025448   -7.6701429    3655.7037          420 
  879000  0.089292342   -7.6662817    3649.9424          490 
  880000  0.090064674    -7.675328    3656.9658          496 
  881000  0.089948358   -7.6721324    3653.8033          370 
  882000  0.088686894   -7.6679616    3653.9531          484 
  883000  0.090381421    -7.675289    3657.1406          468 
  884000  0.090992686   -7.6667393    3654.3616          294 
  885000  0.091526797   -7.6710244    3654.4001          535 
  886000  0.090186438   -7.6766126    3658.4201          470 
  887000  0.088426099   -7.6689211     3651.675          310 
  888000  0.090911327    -7.671847    3655.2917          533 
  889000   0.08993878   -7.6723825    3656.1671          495 
  890000  0.090797378   -7.6655922    3652.7928          491 
  891000  0.088308737   -7.6752545    3657.9425          426 
  892000  0.090082492   -7.6692168    3655.0385          371 
  893000  0.089121304   -7.6656627    3652.7675          390 
  894000  0.088949412   -7.6738709    3654.8206          540 
  895000  0.088919432   -7.6667052    3652.1729          518 
  896000  0.091063185   -7.6701084    3654.1835          489 
  897000   0.08957198   -7.6748649    3655.4574          529 
  898000  0.091286071    -7.664319    3650.1862          541 
  899000  0.090847408   -7.6731152    3654.8465          402 
  900000  0.091166934   -7.6718591    3655.3501          512 
  901000  0.090289572   -7.6684118    3652.3468          412 
  902000  0.091275526   -7.6736598    3658.0885          549 
  903000  0.089113801   -7.6701013     3653.519          458 
  904000  0.089449838   -7.6713795    3652.8611          520 
  905000  0.089906531   -7.6738491    3656.1065          481 
  906000  0.089801432   -7.6661668    3652.1372          277 
  907000  0.089717459   -7.6696711    3654.3061          272 
  908000  0.087661007   -7.6744207    3656.6012          486 
  909000  0.091318584    -7.669938     3653.503          385 
  910000  0.091949791   -7.6746086    3655.6548          418 
  911000  0.090453606   -7.6715434    3654.4251          447 
  912000  0.090822606   -7.6705076     3651.425          486 
  913000  0.090439796   -7.6707148    3655.8516          527 
  914000  0.088532913   -7.6714012    3654.8423          456 
  915000  0.089965996   -7.6683471    3653.8288          545 
  916000  0.089275859   -7.6733402    3655.9495          433 
  917000  0.089242054   -7.6713492    3653.4734          389 
  918000  0.089042971   -7.6683902     3654.316          485 
  919000  0.091627526   -7.6699071    3655.2726          420 
  920000  0.090644682   -7.6670782    3651.4114          431 
  921000  0.090745592   -7.6734817    3654.1395          488 
  922000  0.088312202   -7.6722544     3655.698          501 
  923000  0.090692396   -7.6673063    3654.4173          439 
  924000  0.090368217   -7.6731352    3656.8334          501 
  925000  0.091414968   -7.6710211    3654.6045          423 
  926000  0.091994541   -7.6675337    3654.0991          333 
  927000  0.090113494   -7.6722926    3657.8907          548 
  928000  0.088531095    -7.669385    3653.0156          464 
  929000  0.088115565   -7.6675542    3653.4586          408 
  930000  0.088385712   -7.6721803    3655.8428          425 
  931000  0.090226891   -7.6677859     3651.455          501 
  932000  0.090418558   -7.6721741    3654.1496          505 
  933000  0.090224183   -7.6720347    3654.1692          412 
  934000  0.088354424   -7.6664781     3651.685          423 
  935000  0.089199967    -7.672776    3654.6245          449 
  936000  0.090333318   -7.6684394    3655.0432          542 
  937000  0.089923595   -7.6700124    3653.9347          325 
  938000  0.088042533   -7.6737075    3657.1872          475 
  939000  0.092472122   -7.6715316    3654.4314          441 
  940000  0.088273578   -7.6696001    3652.6666          481 
  941000  0.089104855   -7.6715437    3655.4734          440 
  942000  0.091407749   -7.6726198    3653.6044          508 
  943000  0.091608612   -7.6724945     3655.612          553 
  944000  0.089015635   -7.6714928    3655.2557          280 
  945000   0.09159159   -7.6684791    3651.6068          530 
  946000  0.088300985   -7.6690799    3656.3631          559 
  947000  0.089802447   -7.6701638    3653.4307          479 
  948000  0.090773486   -7.6679925    3652.8564          549 
  949000  0.091819799   -7.6738148    3656.2716          490 
  950000  0.091226105    -7.670612    3651.1636          393 
  951000  0.091305232   -7.6684339     3653.733          420 
  952000  0.090105947   -7.6719801    3656.2809          530 
  953000  0.090200906   -7.6695344    3651.9321          474 
  954000  0.090244769   -7.6730752    3656.8381          524 
  955000  0.089460819   -7.6722061    3656.2313          410 
  956000  0.091569726   -7.6695672    3652.5165          461 
  957000  0.090377916   -7.6711679    3655.5038          450 
  958000   0.09283937   -7.6719767    3655.1046          491 
  959000  0.090373873   -7.6676849    3653.8156          360 
  960000  0.089127576   -7.6749656    3658.2531          472 
  961000  0.090500568   -7.6710106    3652.7875          440 
  962000  0.089271897   -7.6675158     3654.011          473 
  963000  0.090896117    -7.673839    3656.7936          449 
  964000  0.088812661   -7.6641405    3650.9082          333 
  965000   0.08874165   -7.6722236    3654.3569          387 
  966000  0.090800353    -7.674468     3654.982          354 
  967000  0.088988755    -7.668662    3651.3937          427 
  968000  0.088639799   -7.6772461    3658.5487          505 
  969000  0.090793605   -7.6707319    3655.1825          537 
  970000  0.091031252   -7.6683157    3652.5692          519 
  971000  0.089973654     -7.67471    3657.2177          533 
  972000  0.091230426   -7.6684544    3653.9454          398 
  973000  0.090482424    -7.670783    3653.3702          349 
  974000  0.090048898   -7.6753304    3659.4478          546 
  975000  0.089000344   -7.6663191    3652.6004          486 
  976000  0.090248781   -7.6680749    3655.2925          476 
  977000  0.089239831   -7.6699227    3655.6017          413 
  978000  0.090234774    -7.666466    3652.3313          425 
  979000  0.090433538   -7.6711051    3655.0401          457 
  980000  0.091243014   -7.6729736    3655.1308          494 
  981000  0.090756904   -7.6711607    3653.9399          480 
  982000  0.090977253   -7.6720217    3655.8098          435 
  983000  0.089358414   -7.6646736    3653.2874          444 
  984000  0.090595631   -7.6691128    3655.0465          416 
  985000  0.090208662   -7.6726663    3655.8654          350 
  986000  0.090350213   -7.6652016    3653.2407          325 
  987000  0.091094622   -7.6714192    3657.6487          427 
  988000  0.089632836   -7.6714857    3653.9326          474 
  989000  0.090314792   -7.6672292    3654.0168          492 
  990000  0.089811476   -7.6761322    3657.3343          428 
  991000  0.089829172   -7.6697112     3653.689          493 
  992000  0.090594541   -7.6725629    3653.6086          440 
  993000  0.091152413   -7.6747665    3657.4249          292 
  994000  0.089296221   -7.6680134    3653.4774          521 
  995000  0.089934867   -7.6716562    3655.5612          430 
  996000   0.09132652   -7.6711112    3655.9078          459 
  997000  0.090645409   -7.6687087    3652.5832          393 
  998000  0.090270054   -7.6729733    3655.7565          488 
  999000  0.090270361   -7.6683185    3653.3848          371 
 1000000  0.089747818   -7.6669866    3653.0698          510 
 1001000  0.088493365   -7.6728531     3656.478          412 
 1002000  0.089495793   -7.6697998    3651.8789          452 
 1003000  0.089523963   -7.6729452    3654.2334          288 
 1004000  0.089930329   -7.6719188    3655.2199          439 
Loop time of 2124.1 on 48 procs for 1000000 steps with 4000 atoms

Performance: 81352.277 tau/day, 470.789 timesteps/s
99.4% CPU use with 48 MPI tasks x no OpenMP threads

MPI task timing breakdown:
Section |  min time  |  avg time  |  max time  |%varavg| %total
---------------------------------------------------------------
Pair    | 140.33     | 152.95     | 172.16     |  71.5 |  7.20
Neigh   | 2.9482     | 3.1239     | 3.3901     |   5.2 |  0.15
Comm    | 90.696     | 108.27     | 122.28     |  82.7 |  5.10
Output  | 2.0432     | 2.0445     | 2.0598     |   0.2 |  0.10
Modify  | 1807.3     | 1819       | 1835.1     |  12.3 | 85.64
Other   |            | 38.72      |            |       |  1.82

Nlocal:        83.3333 ave          89 max          77 min
Histogram: 2 2 2 4 9 16 3 3 3 4
Nghost:        1749.08 ave        1760 max        1733 min
Histogram: 1 1 2 3 9 10 8 5 2 7
Neighs:        10574.3 ave       11423 max        9671 min
Histogram: 1 4 2 7 4 17 3 6 3 1
FullNghs:      21148.4 ave       22576 max       19536 min
Histogram: 2 2 2 5 9 14 4 3 3 4

Total # of neighbors = 1015124
Ave neighs/atom = 253.78100
Neighbor list builds = 12483
Dangerous builds = 0

#clear
#
#next RN
#
#jump SELF
Total wall time: 0:35:25
