
units lj                  # Use reduced LJ style units
atom_style atomic         # Uncharged point particles
atom_modify map hash      # Needed for indexing of clusters etc
                          # Used to be able to find where atoms are in relation to each other.

# Define a lattice with which to populate the simulation cell. With units
# set to 'lj' the second argument to the lattice command is the reduced
# density rho* and the spacings are multiples of that required to acheive
# that density. Also define a simulation cell called 'box' in lattice units
# and fill it with atoms. Here we're creating a box which is ten lattice
# constants in each direction.
lattice fcc 1.0 spacing 1 1 1                 # All equal sizes - gives the right reduced density.
Lattice spacing in x,y,z = 1.5874011 1.5874011 1.5874011

region box block 0 10 0 10 0 10 units lattice # Defines a region, "box", in lattice units
create_box 1 box                              # Creates a simulation box as specified above,
Created orthogonal box = (0.0000000 0.0000000 0.0000000) to (15.874011 15.874011 15.874011)
  3 by 4 by 4 MPI processor grid
                                              # with one type of atom
create_atoms 1 box                            # Creates particles on lattice points
Created 4000 atoms
  using lattice units in orthogonal box = (0.0000000 0.0000000 0.0000000) to (15.874011 15.874011 15.874011)
  create_atoms CPU = 0.002 seconds


# Set the mass of the first (and only) atom type.
mass 1 1.0

# Lennard-Jones interactions between particles, 3.5 sigma cut-off. Apply
# long range tail corrections to energy and pressure and set all coefficients
# to unity since we work in reduced units here. Note that this doesn't shift
# the potential such that it goes to zero at the cutoff. That would require
# pair_modify('shift', 'yes').
pair_style lj/cut  3.5      # non-GPU version
pair_modify tail  yes
pair_coeff 1  1  1.0  1.0   # Intearaction between 1 and 1 set with epsilon = 1 and sigma = 1

write_data data.*
System init for write_data ...
Neighbor list info ...
  update every 1 steps, delay 10 steps, check yes
  max neighbors/atom: 2000, page size: 100000
  master list distance cutoff = 3.8
  ghost atom cutoff = 3.8
  binsize = 1.9, bins = 9 9 9
  1 neighbor lists, perpetual/occasional/extra = 1 0 0
  (1) pair lj/cut, perpetual
      attributes: half, newton on
      pair build: half/bin/atomonly/newton
      stencil: half/bin/3d
      bin: standard

#############################
#   M E L T   S Y S T E M   #
#############################

velocity all create 2.4 5833274 mom yes dist gaussian # Assign velocities
                                                    # Temperature 2.4, random number seed, zero linear momentum
						                                                        # Gaussian distribution

timestep 0.002   # simulation timestep
thermo 1000       # output thermodynamic data every 1000 steps

# Define a fix  in this case with index 1 applied to all
# particles in the simulation. This fix is for simulations
# in the anisotropic NPT ensemble. Note that we use the MTK
# correction.
fix 1 all npt temp 2.4 2.4 0.1 iso 5.68 5.68 0.5 mtk yes tchain 5 pchain 5 # Use NPT ensemble
                                                                         # Set temperature and pressure and damping
                                                                         # Numbers of thermostats in chain and in barostat
run 1000         # run for 10000 steps
Per MPI rank memory allocation (min/avg/max) = 3.642 | 3.644 | 3.648 Mbytes
Step Temp E_pair E_mol TotEng Press Volume 
       0          2.4   -8.3859253            0   -4.7868253   -2.2405722         4000 
    1000    2.3797751   -4.4966384            0  -0.92786813    5.4591985    5168.8144 
Loop time of 0.220523 on 48 procs for 1000 steps with 4000 atoms

Performance: 783591.206 tau/day, 4534.671 timesteps/s
99.3% CPU use with 48 MPI tasks x no OpenMP threads

MPI task timing breakdown:
Section |  min time  |  avg time  |  max time  |%varavg| %total
---------------------------------------------------------------
Pair    | 0.092613   | 0.10014    | 0.10878    |   1.2 | 45.41
Neigh   | 0.017343   | 0.018803   | 0.020204   |   0.5 |  8.53
Comm    | 0.066409   | 0.076894   | 0.08801    |   1.6 | 34.87
Output  | 2.4582e-05 | 2.5244e-05 | 3.2174e-05 |   0.0 |  0.01
Modify  | 0.02093    | 0.023104   | 0.026379   |   1.0 | 10.48
Other   |            | 0.001556   |            |       |  0.71

Nlocal:        83.3333 ave          95 max          76 min
Histogram: 5 3 8 10 11 3 4 3 0 1
Nghost:        1390.04 ave        1421 max        1371 min
Histogram: 5 8 6 7 8 4 4 3 1 2
Neighs:        7371.42 ave        8414 max        6707 min
Histogram: 8 7 3 4 13 5 4 1 0 3

Total # of neighbors = 353828
Ave neighs/atom = 88.457000
Neighbor list builds = 87
Dangerous builds = 16

# Equilibrate just above the melting temperature to avoid step fn in T

fix 1 all npt temp 1.25 1.25 0.1 iso 5.68 5.68 0.5 mtk yes tchain 5 pchain 5
run 1000
Per MPI rank memory allocation (min/avg/max) = 3.642 | 3.644 | 3.648 Mbytes
Step Temp E_pair E_mol TotEng Press Volume 
    1000    2.3797751   -4.4966384            0  -0.92786813    5.4591985    5168.8144 
    2000    1.2516439   -5.8169213            0   -3.9399248    5.7560827    4346.0008 
Loop time of 0.211096 on 48 procs for 1000 steps with 4000 atoms

Performance: 818583.862 tau/day, 4737.175 timesteps/s
99.6% CPU use with 48 MPI tasks x no OpenMP threads

MPI task timing breakdown:
Section |  min time  |  avg time  |  max time  |%varavg| %total
---------------------------------------------------------------
Pair    | 0.093903   | 0.09959    | 0.10441    |   0.7 | 47.18
Neigh   | 0.015526   | 0.016042   | 0.016723   |   0.2 |  7.60
Comm    | 0.064979   | 0.07157    | 0.078807   |   1.1 | 33.90
Output  | 2.3919e-05 | 2.4575e-05 | 3.0119e-05 |   0.0 |  0.01
Modify  | 0.019658   | 0.021904   | 0.024523   |   0.9 | 10.38
Other   |            | 0.001965   |            |       |  0.93

Nlocal:        83.3333 ave          89 max          74 min
Histogram: 1 1 1 3 8 4 13 5 8 4
Nghost:        1549.94 ave        1572 max        1533 min
Histogram: 3 3 10 7 6 10 5 1 1 2
Neighs:        8760.96 ave        9501 max        7906 min
Histogram: 1 3 6 6 7 6 6 5 3 5

Total # of neighbors = 420526
Ave neighs/atom = 105.13150
Neighbor list builds = 74
Dangerous builds = 4


# Small amount of linear quench

fix 1 all npt temp 1.25 ${temp} 0.1 iso 5.68 5.68 0.5 mtk yes tchain 5 pchain 5
fix 1 all npt temp 1.25 1.37 0.1 iso 5.68 5.68 0.5 mtk yes tchain 5 pchain 5
run 2000
Per MPI rank memory allocation (min/avg/max) = 3.643 | 3.645 | 3.648 Mbytes
Step Temp E_pair E_mol TotEng Press Volume 
    2000    1.2516439   -5.8169213            0   -3.9399248    5.7560827    4346.0008 
    3000    1.3155715   -5.7598064            0   -3.7869426    5.5934999    4390.5834 
    4000    1.3375515   -5.6756084            0   -3.6697828    5.6119348    4428.3848 
Loop time of 0.436959 on 48 procs for 2000 steps with 4000 atoms

Performance: 790921.626 tau/day, 4577.093 timesteps/s
99.7% CPU use with 48 MPI tasks x no OpenMP threads

MPI task timing breakdown:
Section |  min time  |  avg time  |  max time  |%varavg| %total
---------------------------------------------------------------
Pair    | 0.19466    | 0.20737    | 0.23307    |   1.3 | 47.46
Neigh   | 0.029156   | 0.030649   | 0.034981   |   0.5 |  7.01
Comm    | 0.12256    | 0.14942    | 0.16066    |   1.8 | 34.20
Output  | 4.6433e-05 | 4.7855e-05 | 6.0028e-05 |   0.0 |  0.01
Modify  | 0.0382     | 0.045162   | 0.053176   |   2.4 | 10.34
Other   |            | 0.004307   |            |       |  0.99

Nlocal:        83.3333 ave          90 max          74 min
Histogram: 1 0 1 6 4 11 12 6 6 1
Nghost:        1535.42 ave        1550 max        1512 min
Histogram: 2 1 1 7 6 1 10 8 6 6
Neighs:        8602.98 ave        9193 max        7360 min
Histogram: 1 0 1 0 7 8 10 5 8 8

Total # of neighbors = 412943
Ave neighs/atom = 103.23575
Neighbor list builds = 137
Dangerous builds = 0

#############################
# F R E E Z E  S Y S T E M  #
#############################

# Define solid atoms. This closely follows ten Wolde  Ruiz-Montero and Frenkel  Faraday Discuss  1996  104  93-110
# Compute components of the per-atom q6 vector
compute q6 all orientorder/atom degrees 1 6 components 6 nnn NULL cutoff 1.3 # compute the Q6 parameter.
                                                                             # Use all neighbours within 1.3 unit cell.

# get number of connections
compute coord_number all coord/atom orientorder q6 0.5

# An atom is solid if it has 8 or more connections (of a possible 14)
variable is_solid atom c_coord_number>=8
group solid dynamic all var is_solid    # Must be dynamic to update
dynamic group solid defined

# do clustering
compute cluster solid cluster/atom 1.3 # Create a cluster where all atoms within are solid and max 1.3 units from another member

# define chunks one chunk per cluster
compute clus_chunks solid chunk/atom c_cluster nchunk every compress yes  # Says which atoms are in which chunk

# count the size of each chunk
compute size_chunks solid property/chunk clus_chunks count


# Find the maximum entry in the vector of chunk sizes
variable max_n equal max(c_size_chunks)


# Thermo style which includes this variable
thermo_style custom step temp pe vol v_max_n

thermo ${N}  # Print the thermo information every 100 steps
thermo 1000  

# Reset the npt fix at a lower temperature (below freezing)
fix 1  all npt temp  ${temp} ${temp}  0.1  iso  5.68  5.68  0.5  mtk yes tchain  5  pchain  5
fix 1  all npt temp  1.37 ${temp}  0.1  iso  5.68  5.68  0.5  mtk yes tchain  5  pchain  5
fix 1  all npt temp  1.37 1.37  0.1  iso  5.68  5.68  0.5  mtk yes tchain  5  pchain  5

dump dmp2 all dcd ${N} traj_${rand}.dcd
dump dmp2 all dcd 1000 traj_${rand}.dcd
dump dmp2 all dcd 1000 traj_462431.dcd


# fix rnuntil all halt ${N} v_max_n >= 3980 error soft message no   # Stop when solidified


run 1000000 # 5000000  # Run for this many steps
Neighbor list info ...
  update every 1 steps, delay 10 steps, check yes
  max neighbors/atom: 2000, page size: 100000
  master list distance cutoff = 3.8
  ghost atom cutoff = 3.8
  binsize = 1.9, bins = 9 9 9
  4 neighbor lists, perpetual/occasional/extra = 1 3 0
  (1) pair lj/cut, perpetual
      attributes: half, newton on
      pair build: half/bin/atomonly/newton
      stencil: half/bin/3d
      bin: standard
  (2) compute orientorder/atom, occasional
      attributes: full, newton on
      pair build: full/bin/atomonly
      stencil: full/bin/3d
      bin: standard
  (3) compute coord/atom, occasional
      attributes: full, newton on
      pair build: full/bin/atomonly
      stencil: full/bin/3d
      bin: standard
  (4) compute cluster/atom, occasional
      attributes: full, newton on
      pair build: full/bin/atomonly
      stencil: full/bin/3d
      bin: standard
Per MPI rank memory allocation (min/avg/max) = 9.348 | 9.353 | 9.355 Mbytes
Step Temp PotEng Volume v_max_n 
    4000    1.3375515   -5.6756084    4428.3848            1 
    5000    1.3742065   -5.6574688    4455.2831            2 
    6000     1.353286   -5.6259578    4421.9783            2 
    7000    1.3853833   -5.6341378    4423.4916            2 
    8000    1.3873849   -5.6376793    4451.0873            3 
    9000    1.3660284   -5.6395089    4441.6976            1 
   10000    1.3909276   -5.6391804    4437.6177            2 
   11000    1.3714379   -5.6375857    4426.5806            2 
   12000    1.3786925   -5.6304488    4435.7164            4 
   13000    1.3622022   -5.6316951    4446.5454            1 
   14000    1.3493589   -5.6506757      4436.37            3 
   15000    1.3545525   -5.6527786    4420.9413            3 
   16000    1.3630926   -5.6426242    4444.5588            2 
   17000    1.3800855   -5.6428704      4433.27            2 
   18000    1.3508551   -5.6421208     4438.431            2 
   19000    1.3500063   -5.6095549    4439.4487            1 
   20000    1.3391654   -5.6376284    4419.4761            3 
   21000    1.3601348   -5.6806303     4424.463            2 
   22000    1.3522534   -5.6137601     4430.678            5 
   23000    1.3815953   -5.6482586    4442.3855            2 
   24000     1.354082   -5.6303079    4431.7232            2 
   25000    1.3932377   -5.6832623    4417.2979            2 
   26000     1.386676   -5.6383963    4437.8456            3 
   27000    1.3605825    -5.667656    4441.6771            3 
   28000    1.4087348    -5.649056    4443.9336            3 
   29000    1.3833396   -5.7026619    4419.3435            2 
   30000    1.3735286   -5.6200494    4427.0656            1 
   31000    1.3529879    -5.648532    4427.4279            2 
   32000    1.3586796   -5.6555181    4431.3296            5 
   33000    1.3552542   -5.6352281    4431.5126            3 
   34000    1.3483502   -5.6772555    4407.9431            2 
   35000     1.397988   -5.7215805    4423.3352            3 
   36000    1.3569884   -5.6355455    4444.4569            2 
   37000    1.3511974   -5.6679236    4427.5192            3 
   38000    1.3518683   -5.6452389    4420.1237            2 
   39000    1.3309149    -5.709056    4423.1819            3 
   40000    1.4016266   -5.6303032    4439.6148            2 
   41000    1.3554414   -5.6595436     4419.577            3 
   42000    1.3693045   -5.6274476    4437.6585            2 
   43000    1.3640979   -5.6430557     4416.403            3 
   44000    1.3571893   -5.6346239    4444.5427            4 
   45000    1.3508013   -5.6816283    4415.1661            5 
   46000    1.3876765   -5.6503745    4430.0523            1 
   47000    1.3999419   -5.6997153    4407.2835            3 
   48000    1.3746993   -5.6646698    4448.4273            3 
   49000     1.365338   -5.6278555    4434.2963            2 
   50000    1.3208719   -5.6196024    4470.7623            4 
   51000    1.3867944   -5.6546684    4460.4857            2 
   52000    1.3663887   -5.6326196    4426.1196            2 
   53000     1.358398   -5.6989326    4438.0913            2 
   54000    1.3801316   -5.6570848    4453.9577            2 
   55000     1.372748   -5.6196412    4446.2788            1 
   56000    1.3770868   -5.6181834    4431.9223            2 
   57000    1.3607971   -5.6792194    4443.2383            2 
   58000    1.3961475   -5.6766748    4450.7442            1 
   59000    1.3597576   -5.6626886    4454.9262            2 
   60000    1.3640911   -5.6460019    4442.6418            2 
   61000    1.3539575   -5.6607775    4451.5241            2 
   62000    1.3567934   -5.6468487    4436.6014            3 
   63000    1.3339924   -5.6601113    4442.1123            2 
   64000    1.3826873    -5.666089    4436.6898            3 
   65000    1.3612455   -5.6708934    4429.9715            5 
   66000    1.3447183   -5.6555839    4444.7722            1 
   67000    1.3536431   -5.6351148     4462.732            6 
   68000    1.3541634   -5.6785944    4413.9769            4 
   69000     1.362827   -5.6132247    4430.6262            2 
   70000    1.3722791   -5.6320331    4433.5508            3 
   71000    1.3725468    -5.615455    4444.9067            2 
   72000    1.3706489   -5.6335246    4444.3373            1 
   73000    1.3690532   -5.6876453    4418.6935            2 
   74000    1.3646611   -5.6782171    4442.2983            3 
   75000    1.3596787   -5.6241011    4433.4564            3 
   76000    1.3784096      -5.6435    4451.2377            2 
   77000    1.3501129   -5.6382768    4450.2555            2 
   78000    1.3655492   -5.6271873     4416.269            3 
   79000    1.3694451   -5.6258291     4430.732            3 
   80000     1.390075    -5.586936    4453.4507            1 
   81000    1.3604326   -5.6470189    4417.5174            3 
   82000    1.3911217   -5.6504993    4450.1351            3 
   83000     1.373111   -5.6401081    4436.0833            3 
   84000    1.3740331    -5.650704    4431.3459            1 
   85000    1.3907624   -5.6316483    4433.3698            5 
   86000    1.3756019   -5.6319402    4435.0544            2 
   87000    1.3457078   -5.6021725    4458.1281            1 
   88000    1.4056685   -5.6524824    4459.6777            1 
   89000    1.3697555   -5.6522219    4440.6843            3 
   90000    1.3611323    -5.670883    4451.6439            2 
   91000    1.3699945   -5.6566625    4429.0056            2 
   92000    1.3577943   -5.6223737    4437.4777            5 
   93000    1.3597825   -5.5998246    4423.8955            3 
   94000    1.3627618   -5.6511432    4441.8967            2 
   95000    1.3879564   -5.6533398    4423.6071            2 
   96000    1.3612099    -5.665557    4428.1821            2 
   97000    1.3526034   -5.6801212    4423.9003            2 
   98000    1.3907647   -5.6437026    4445.6876            3 
   99000    1.3691757   -5.6745239    4429.7451            3 
  100000    1.3789787   -5.6861168    4426.0602            4 
  101000    1.3628853   -5.6510983    4439.1743            2 
  102000    1.3670813   -5.6501417    4415.7185            1 
  103000     1.368749   -5.6560572    4419.8346            4 
  104000    1.3668968   -5.6796532    4455.2757            2 
  105000    1.3425355   -5.6212095    4433.7997            1 
  106000    1.3768507   -5.6343343    4453.1225            2 
  107000    1.3672244   -5.6519018    4411.7963            3 
  108000    1.3861766   -5.6760966    4424.4353            4 
  109000     1.390762   -5.6540398    4442.9004            4 
  110000    1.3739079   -5.6778164    4440.3287            1 
  111000    1.3958619   -5.6389382    4445.2574            2 
  112000    1.3416273   -5.6739105    4435.6302            5 
  113000    1.3784872   -5.6580186     4406.887            1 
  114000    1.3776733   -5.6322314    4445.0636            3 
  115000    1.3754027   -5.6778444    4442.3208            2 
  116000    1.4001113   -5.6659018     4424.258            3 
  117000    1.3694815   -5.6503525    4431.5696            3 
  118000    1.3675684   -5.6503136    4466.2889            2 
  119000    1.3490922    -5.662371    4418.8888            2 
  120000    1.3418064   -5.6462227     4433.968            3 
  121000     1.370429   -5.6485415    4426.9588            3 
  122000     1.390861   -5.6606691    4438.1198            3 
  123000    1.3861129   -5.6558408    4432.1096            3 
  124000    1.3503734   -5.6345209    4433.8212            2 
  125000    1.3497865   -5.6280563    4430.1129            4 
  126000    1.3400179   -5.6609966     4444.771            2 
  127000    1.3927649   -5.6826567    4429.9414            1 
  128000    1.3700725   -5.6552618    4444.4263            2 
  129000    1.3567638   -5.7007573    4414.0857            3 
  130000    1.3490732   -5.6496912    4440.8079            3 
  131000    1.3939261   -5.6711686    4423.2361            4 
  132000    1.3643944   -5.6365086    4438.3589            3 
  133000    1.3802909   -5.6291193    4434.9001           10 
  134000    1.4101648   -5.6564772    4445.9981            3 
  135000    1.3865744   -5.6432982    4430.8393            1 
  136000    1.3553773    -5.654554    4450.6619            4 
  137000    1.3888545     -5.61129    4462.9745            3 
  138000    1.3962149   -5.6324567    4426.1116            3 
  139000    1.3642179   -5.5852811    4484.3627            1 
  140000    1.3680385   -5.6686902    4429.0483            2 
  141000    1.3662447   -5.6560288    4441.0449            3 
  142000    1.3642104   -5.6704833    4425.9728            2 
  143000    1.3689398    -5.661683    4434.3728            1 
  144000    1.3723388   -5.6389188    4434.4039            3 
  145000    1.3638942   -5.6568768    4422.1641            1 
  146000    1.3840142   -5.6310168    4437.4217            6 
  147000    1.3780936   -5.6545658    4434.7853            2 
  148000    1.3898559    -5.652998    4438.0288            1 
  149000    1.3566583   -5.6577793    4418.6626            1 
  150000    1.3764867   -5.6298257    4452.0457            3 
  151000    1.3225628   -5.6747345     4392.439            5 
  152000    1.3611778   -5.6765864    4440.6471            4 
  153000    1.3734299   -5.6152234    4421.2849            2 
  154000    1.3974141   -5.6017928    4461.0557            2 
  155000    1.3500571   -5.6311791     4440.472            2 
  156000    1.3646856   -5.6410633    4454.2195            2 
  157000    1.3404667    -5.637755     4418.858            3 
  158000    1.3795343   -5.6758899    4435.0308            2 
  159000    1.3924657   -5.6632306    4440.7328            3 
  160000    1.3475153   -5.6627665     4423.977            3 
  161000     1.342166   -5.6655747    4399.7819            2 
  162000    1.3486224   -5.6377428    4437.4898            3 
  163000    1.3872019    -5.601169    4454.3576            2 
  164000    1.3571646   -5.6643859    4433.6065            3 
  165000    1.4014239    -5.656839    4425.7991            3 
  166000    1.4017471   -5.6398002    4466.7296            5 
  167000    1.3671268    -5.628208    4431.9063            2 
  168000     1.344401   -5.6469919    4447.0399            2 
  169000    1.3706312   -5.6506979    4438.4249            3 
  170000    1.3650943   -5.6563331    4424.5924            3 
  171000    1.4167521   -5.6248355    4440.1449            2 
  172000    1.3767159   -5.6545578    4432.4048            4 
  173000    1.3388765    -5.670077    4445.7724            4 
  174000    1.3783983   -5.6116856    4437.2044            2 
  175000    1.3551328   -5.6103311    4451.1266            3 
  176000    1.3830506   -5.6344701    4444.6792            4 
  177000    1.3586062   -5.6667527    4447.8607            5 
  178000    1.3470695   -5.6780818    4432.5568            3 
  179000    1.3488745   -5.6649092      4418.03            2 
  180000    1.3677896   -5.6878034    4422.9089            3 
  181000    1.3520618   -5.6445115    4441.3684            2 
  182000    1.3931239   -5.6613814     4433.126            4 
  183000    1.3750472   -5.6617519    4419.5881            2 
  184000    1.3613224   -5.6758802    4427.9287            5 
  185000    1.3725756     -5.69572    4404.0449            3 
  186000    1.3156272   -5.6605354    4417.5997            1 
  187000    1.3827793   -5.6223538    4431.3194            1 
  188000     1.368589   -5.6021108    4438.8991            2 
  189000    1.4054879   -5.6340098    4445.5416            4 
  190000    1.3637842   -5.6751562    4443.8445            2 
  191000    1.3525605   -5.6430613    4423.1782            2 
  192000    1.3772767   -5.6901521    4418.1602            2 
  193000    1.3609908   -5.6406548     4430.514            1 
  194000    1.3765025   -5.6443236     4430.675            4 
  195000    1.3653164   -5.6305817    4455.5543            1 
  196000    1.3574664   -5.6513623    4456.2528            4 
  197000     1.375449   -5.6938424    4423.7454            2 
  198000    1.3795764   -5.6749172    4418.3777            2 
  199000    1.3817661   -5.6432989    4424.9121            6 
  200000    1.3806261   -5.6955169    4419.1465            3 
  201000    1.3524714    -5.658092    4427.1135            2 
  202000    1.3646141   -5.6513255    4419.1766            4 
  203000    1.3723684   -5.6664839    4427.0593            2 
  204000    1.3616569   -5.6506241    4449.5464            2 
  205000    1.3593203   -5.6567216    4446.0132            2 
  206000    1.3592675   -5.6587805    4424.6018            2 
  207000    1.3880603   -5.6704964    4425.7816            2 
  208000    1.3751474   -5.6727495    4428.4315            1 
  209000    1.3613531    -5.621722    4440.9732            3 
  210000    1.3652837   -5.6356627    4412.9982            2 
  211000     1.380566   -5.6360876    4432.8925            2 
  212000      1.37453   -5.6095178    4423.8291            2 
  213000    1.3793774   -5.6524824    4437.9241            4 
  214000    1.3644258   -5.6499309    4420.6855            2 
  215000     1.371494   -5.6666351    4402.8586            2 
  216000    1.3649659    -5.630445    4430.8048            1 
  217000    1.4005099   -5.6663199      4411.45            2 
  218000    1.4098429   -5.6700356    4435.6649            3 
  219000    1.3929016   -5.6548514    4419.5897            2 
  220000    1.3700934   -5.6953173     4410.241            4 
  221000     1.367388   -5.6747623    4428.8725            4 
  222000    1.3905637   -5.6578193    4443.1992            1 
  223000    1.3701715    -5.666574    4437.7895            2 
  224000    1.3642973   -5.6454869    4429.3915            2 
  225000    1.3643538   -5.6591096    4450.0842            3 
  226000    1.3932771   -5.6076898    4462.3389            2 
  227000    1.3666563   -5.6495255    4425.6426            3 
  228000    1.3632902   -5.6501472    4431.6892            1 
  229000    1.3698178   -5.6585615    4435.7216            3 
  230000    1.3797622   -5.6935389    4419.9736            3 
  231000    1.3732223   -5.6730585    4411.8738            1 
  232000    1.3801677   -5.6281047    4450.0732            3 
  233000     1.363481   -5.6516408    4423.9504            1 
  234000    1.3748565   -5.5677413    4459.0205            3 
  235000    1.3742727   -5.6811368    4437.0519            4 
  236000    1.3756982   -5.6506122    4432.8702            4 
  237000    1.3807156   -5.6465372     4436.681            2 
  238000    1.3913024    -5.618929    4436.3472            2 
  239000    1.3581141   -5.6908577    4428.5767            1 
  240000     1.385055    -5.631662    4459.1057            1 
  241000    1.3746391   -5.6675572    4419.3763            4 
  242000     1.304379   -5.6344435    4430.6777            2 
  243000    1.3825412   -5.6397419    4435.1157            2 
  244000    1.3832021    -5.673271    4428.6133            5 
  245000    1.3486994   -5.5726771    4444.7988            3 
  246000    1.3976515   -5.7086821    4419.6187            3 
  247000    1.3915316   -5.6043271    4437.8003            2 
  248000    1.3608568   -5.6960531      4435.58            2 
  249000    1.3942021   -5.6224065     4453.508            3 
  250000     1.368488   -5.6641596    4431.9589            3 
  251000    1.3496674   -5.6143883    4441.6773            1 
  252000    1.3659775   -5.6483306    4440.4099            2 
  253000    1.3628558   -5.6495159    4453.1943            1 
  254000     1.362486   -5.6648829    4427.7122            4 
  255000    1.3493797   -5.6587976    4445.2037            2 
  256000    1.3908796   -5.7062516    4426.8333            9 
  257000    1.3722778   -5.6502377    4436.8265            3 
  258000    1.3770937   -5.6541948    4428.9867            2 
  259000    1.3379353   -5.6702599    4449.7614            4 
  260000     1.377715   -5.6618524    4457.8975            2 
  261000    1.3878327    -5.637455    4437.2358            1 
  262000    1.3657462   -5.6823742    4450.7072            2 
  263000    1.4034961   -5.6582459    4424.6723            5 
  264000    1.3556485   -5.6401324    4466.6107            4 
  265000     1.372481   -5.6191036    4457.0053            5 
  266000     1.390021   -5.6816494     4414.294            3 
  267000    1.3703118   -5.6782596    4424.9523            5 
  268000    1.3687925   -5.6168881    4451.5962            2 
  269000    1.3582518   -5.6555897    4437.5207            2 
  270000    1.3566442   -5.6695422    4444.2825            2 
  271000    1.3876829   -5.6567397    4432.3318            3 
  272000    1.3501552   -5.6782659    4436.2636            3 
  273000    1.3970265   -5.6640347    4442.5938            4 
  274000    1.3884003    -5.708961    4438.6068            2 
  275000     1.370451   -5.6615917    4433.0401            3 
  276000    1.3803508   -5.6801787    4423.0136            4 
  277000    1.3551379   -5.6489014    4444.7474            2 
  278000    1.3569512   -5.6530736     4435.309            4 
  279000    1.3761737   -5.6386407    4457.3494            2 
  280000    1.3711434   -5.6509233    4435.0222            2 
  281000    1.3869132   -5.6377013    4426.5028            1 
  282000    1.4109115   -5.6506514    4424.2142            3 
  283000    1.3574005   -5.6416482    4445.8256            2 
  284000    1.3646027    -5.634545    4436.9393            2 
  285000    1.3546211   -5.6323548    4445.6542            4 
  286000    1.3421802   -5.6238707    4428.6936            5 
  287000    1.3807134   -5.6151158    4453.3407            3 
  288000    1.3783221   -5.6491619    4444.4977            2 
  289000    1.3902079   -5.6991861    4421.5809            3 
  290000    1.3807304   -5.6084364    4461.7006            1 
  291000     1.386298   -5.6763333    4450.0433            3 
  292000    1.3744554   -5.6884029    4412.3399            5 
  293000    1.3722894   -5.6319469    4435.4436            1 
  294000     1.373019   -5.6462901    4445.1787            4 
  295000    1.3833112   -5.6684691    4442.5619            1 
  296000     1.375409   -5.6666589    4437.1094            2 
  297000    1.3559976    -5.627604     4447.948            3 
  298000    1.3755022   -5.6534712    4428.6059            2 
  299000    1.3670787   -5.6606854    4425.9559            4 
  300000    1.3578483   -5.6399186    4432.4824            3 
  301000    1.3600247   -5.6480802     4429.652            2 
  302000    1.3548689   -5.6627242    4431.4856            7 
  303000     1.384053   -5.6432699    4442.5329            2 
  304000    1.3688987    -5.665843    4443.7131            2 
  305000     1.396177   -5.6748186    4423.2256            4 
  306000    1.3778466   -5.5972731    4452.7184            3 
  307000    1.3142809   -5.6907276     4444.698            2 
  308000    1.3546914   -5.6631768     4413.732            2 
  309000    1.3781505   -5.6850137     4430.053            2 
  310000     1.355978   -5.6312348    4440.4409            1 
  311000    1.3587048   -5.6623083    4428.6206            3 
  312000    1.3652326   -5.6320723    4451.2394            2 
  313000    1.3740608    -5.695133    4409.8647            4 
  314000    1.3812977   -5.6405046    4439.6213            2 
  315000    1.3929627   -5.6708791    4439.9439            2 
  316000    1.3968759   -5.6528689    4443.0977            2 
  317000    1.3756676   -5.6940968    4419.8707            5 
  318000    1.3773501   -5.6643656     4439.566            4 
  319000    1.3672958   -5.6528525    4440.3087            2 
  320000    1.3834682   -5.6241483    4449.0939            2 
  321000    1.3860122   -5.6207132     4434.764            4 
  322000    1.3524549   -5.6825606     4427.473            2 
  323000    1.3731414   -5.6652632    4423.3222            3 
  324000    1.3883507   -5.6619079    4431.4408            2 
  325000    1.3625796   -5.6636754    4420.3633            2 
  326000    1.3751457   -5.6688558    4419.4861            5 
  327000     1.369744   -5.6747243    4443.9007            3 
  328000    1.4009446   -5.6630527    4439.0823            2 
  329000    1.3687461    -5.633876    4418.8872            3 
  330000    1.3680893   -5.6719714    4430.1956            5 
  331000    1.3833184   -5.6172128    4420.1039            2 
  332000    1.3526831   -5.6504269    4453.3553            2 
  333000    1.3656874   -5.6149752    4443.1262            4 
  334000    1.3635814   -5.6282891    4435.9487            2 
  335000    1.3544595   -5.6428974    4439.1234            2 
  336000    1.3701536   -5.6249945    4427.2694            3 
  337000    1.3859141   -5.6458456    4460.7915            6 
  338000     1.364789   -5.6304078    4435.3247            1 
  339000     1.393865   -5.6606978    4447.8987            4 
  340000    1.3611777   -5.7071101    4448.8239            3 
  341000    1.3593605   -5.6535787    4432.4581            2 
  342000    1.3867246   -5.6462298    4433.7342            2 
  343000     1.393154   -5.6473604    4441.7156            3 
  344000    1.3947915   -5.6527554    4458.0232            3 
  345000    1.3452817   -5.6650627    4439.2684            3 
  346000    1.3816715    -5.616448    4461.4968            1 
  347000    1.3469892   -5.6427248    4431.0899            4 
  348000    1.3788877   -5.6495743    4456.3685            1 
  349000    1.3836633   -5.6548443    4440.5611            3 
  350000    1.3611243   -5.6710883    4443.9677            2 
  351000    1.3505031   -5.6537199    4427.2193            3 
  352000    1.3868137   -5.6719954    4405.5163            2 
  353000    1.3309271   -5.6421157    4444.0437            5 
  354000    1.3719346   -5.6264355    4441.5272            1 
  355000     1.410617   -5.6524334    4424.9038            4 
  356000    1.3481575   -5.6751756    4435.0336            2 
  357000      1.34571   -5.6612205    4433.3001            3 
  358000    1.3648709   -5.6791966    4437.3177            4 
  359000    1.3635782   -5.6331111    4441.7586            5 
  360000    1.3467175   -5.6708375     4431.748            2 
  361000    1.3918282   -5.6400255    4492.1146            2 
  362000    1.3657158   -5.6802168    4430.6328            2 
  363000    1.3687761   -5.6291743    4450.1814            3 
  364000    1.3898556   -5.6314784    4442.2163            2 
  365000    1.3735471   -5.6380603    4439.9186            3 
  366000    1.3823228   -5.6407971      4434.85            3 
  367000    1.3862364   -5.6448402    4418.5344            1 
  368000    1.3575539   -5.6675362    4415.6422            1 
  369000    1.3739376   -5.6726933    4437.4091            1 
  370000    1.3716182   -5.6482107    4436.5281            2 
  371000    1.3693807    -5.635059    4448.9267            3 
  372000    1.3503772   -5.6717594    4440.0658            2 
  373000    1.3591956   -5.6822871     4427.815            2 
  374000    1.3533037   -5.6510488     4417.048            3 
  375000    1.3875747   -5.6274882    4449.4214            3 
  376000    1.3603567   -5.6854431    4451.7883            5 
  377000     1.347152   -5.6180468    4430.1279            2 
  378000     1.366034    -5.637732    4435.4714            4 
  379000    1.3827667   -5.6179355    4429.1124            2 
  380000    1.3878943   -5.6659719    4443.7018            1 
  381000    1.3537475   -5.6915782    4401.5515            3 
  382000    1.3419088   -5.6839394     4422.414            3 
  383000    1.3717715   -5.6210479    4436.4925            2 
  384000    1.3579783   -5.6389432    4442.9446            6 
  385000    1.3650991   -5.6716791    4412.0401            1 
  386000    1.3937382    -5.636276    4437.8646            3 
  387000    1.3621487   -5.6263229    4449.0413            1 
  388000    1.3726073   -5.6453691    4423.3873            3 
  389000    1.3633124   -5.6469763    4434.3137            3 
  390000    1.3759647   -5.6524273    4421.7237            1 
  391000    1.3707469   -5.6420748    4430.9968            4 
  392000    1.3729747   -5.6424441    4444.2285            2 
  393000    1.3811405   -5.6407715    4422.6877            3 
  394000    1.3595089    -5.627438    4453.3224            3 
  395000    1.3764032   -5.6193025    4441.9591            2 
  396000    1.3656285   -5.6399307    4433.5524            1 
  397000    1.3550142   -5.6388681    4430.8188            3 
  398000    1.3800592   -5.6111611    4438.6702            3 
  399000    1.3605883   -5.6785864    4443.1245            7 
  400000    1.3911536   -5.6825056     4411.331            1 
  401000    1.3697947   -5.6465915    4441.9821            2 
  402000    1.3656719    -5.687276    4416.9239            3 
  403000    1.3800981   -5.6643091    4423.4024            3 
  404000    1.3572985   -5.6374285    4418.3069            4 
  405000    1.3817362   -5.6471465    4440.2223            3 
  406000    1.3854632   -5.6675683    4425.2726            3 
  407000     1.330471    -5.651555    4412.0294            1 
  408000    1.3827883   -5.6332152    4438.6809            6 
  409000    1.3652625   -5.6992056    4421.6809            2 
  410000    1.3601082   -5.6663186    4413.3212            3 
  411000    1.3496834    -5.634743    4447.7378            2 
  412000    1.3954612   -5.6133602    4434.2401            1 
  413000    1.3561393   -5.6332471    4426.1215            3 
  414000    1.3510272   -5.6724187    4424.0934            3 
  415000    1.3710623   -5.5927831    4445.3984            2 
  416000    1.3735517   -5.6810254    4427.9353            2 
  417000    1.3638152   -5.6585414    4420.8722            2 
  418000    1.3750684   -5.6408561    4416.4598            3 
  419000    1.3586405   -5.6750532    4457.5024            3 
  420000    1.3503499   -5.6592634    4439.0053            3 
  421000    1.3542963   -5.6349223    4432.2118            1 
  422000    1.3949065   -5.5870644    4450.7815            2 
  423000     1.364402   -5.6401248    4442.9724            2 
  424000    1.3656998   -5.6503101    4439.9507            4 
  425000    1.3811633   -5.7127889    4420.9884            3 
  426000    1.3376535   -5.6457613    4448.8094            1 
  427000    1.3903833   -5.6993364    4416.2066            2 
  428000    1.3649933   -5.6267759    4453.3593            5 
  429000    1.3341816   -5.6692715    4415.1808            4 
  430000    1.3991817   -5.6283868    4440.4756            3 
  431000    1.3489104     -5.65248    4425.8971            2 
  432000    1.3988375   -5.6697111    4436.0401            6 
  433000    1.3781661   -5.6422991    4475.8609            1 
  434000      1.36366   -5.7097397    4434.7374            1 
  435000    1.3445502   -5.6698439    4443.7147            3 
  436000    1.3878019   -5.6701075    4437.9417            1 
  437000    1.3734283   -5.6315929    4442.1839            2 
  438000    1.3970688    -5.618514    4461.1928            4 
  439000    1.3645201   -5.6761359    4421.2303            4 
  440000    1.3787735   -5.6137195    4466.9455            2 
  441000    1.3732387   -5.6242172    4452.6504            2 
  442000    1.4035968   -5.6225254    4453.6397            2 
  443000    1.3553302   -5.6302101    4449.7639            3 
  444000    1.3590457   -5.6571766    4415.8651            3 
  445000    1.3897355   -5.6460853    4437.1647            3 
  446000    1.3682651    -5.674499    4446.5121            2 
  447000    1.3633044    -5.650476    4441.9135            1 
  448000    1.3685317   -5.6355581    4452.5873            1 
  449000     1.338887   -5.6500672    4458.9926            2 
  450000    1.3618772   -5.6358603    4450.5813            2 
  451000    1.3486838   -5.6683303    4439.5708            3 
  452000    1.3891305   -5.6507748    4421.9768            5 
  453000    1.3569193   -5.6654723    4443.2376            1 
  454000    1.3864911   -5.6581344    4445.4171            3 
  455000    1.3710959   -5.6926323    4426.8572            2 
  456000    1.3446258     -5.65478    4418.7943            2 
  457000    1.3872757   -5.6346493    4429.9122            1 
  458000    1.3593648   -5.6700377    4425.4717            6 
  459000    1.3940982   -5.6760139    4412.8914            3 
  460000    1.3610625   -5.6746649    4436.0565            2 
  461000    1.3415398   -5.6839202    4438.7196            2 
  462000    1.3511426   -5.6310612    4432.7269            2 
  463000    1.3790597   -5.6275297    4439.6923            2 
  464000     1.387628   -5.6386925    4449.0136            2 
  465000    1.3827569   -5.6237031    4453.2319            1 
  466000     1.365015   -5.6885943    4410.2442            5 
  467000    1.3725765   -5.6786888    4431.7545            2 
  468000    1.3581374   -5.6769303    4443.1147            1 
  469000    1.3708351   -5.6421845    4452.3407            2 
  470000    1.3931027   -5.6399203    4467.0942            4 
  471000    1.3813073   -5.6414865    4433.8165            1 
  472000    1.3620354   -5.6136611    4445.8149            1 
  473000    1.3384202   -5.6582716    4426.3089            2 
  474000    1.3661155   -5.6254794    4436.8064            3 
  475000    1.3630851   -5.6757084     4436.735            3 
  476000    1.3922742   -5.6403441     4430.853            2 
  477000     1.333687    -5.651934    4412.4482            1 
  478000    1.4006196   -5.6803274    4412.9662            2 
  479000    1.3440928   -5.6396221    4421.1997            6 
  480000    1.3762778   -5.6745418    4442.4388            3 
  481000     1.362767   -5.6478705    4427.2146            2 
  482000    1.4007941   -5.6263684    4425.0956            2 
  483000    1.4128474   -5.6617236    4433.7773            4 
  484000    1.3646848   -5.6742998    4428.9856            1 
  485000    1.3655953   -5.6417242    4427.9578            1 
  486000    1.3589126   -5.6429842    4439.6136            1 
  487000    1.3991114   -5.6619432    4423.0183           12 
  488000    1.3760018   -5.6388553    4453.7637            3 
  489000    1.3598416   -5.6440509     4422.895            3 
  490000    1.3882662    -5.688046    4414.2486            4 
  491000    1.3790199   -5.6235481    4437.5928            4 
  492000    1.3751234   -5.6449284     4467.148            4 
  493000    1.3588585   -5.6440392    4429.1463            1 
  494000    1.3473726   -5.6223392    4439.9559            3 
  495000    1.3870161   -5.6665751    4426.5698            2 
  496000    1.3605883   -5.6429772    4442.9851            7 
  497000    1.4265284   -5.6199722    4435.4671            1 
  498000    1.3816641   -5.6303244    4412.6218            2 
  499000    1.3868711   -5.5926709     4450.995            2 
  500000    1.3603863    -5.660481    4437.5282            3 
  501000     1.375963   -5.6718447     4414.836            6 
  502000    1.3513674   -5.6247487     4436.863            2 
  503000    1.3598151   -5.6721768    4436.3552            3 
  504000    1.3735372   -5.6654843    4426.8387            5 
  505000    1.3501549     -5.65352    4434.8452            1 
  506000    1.3670664   -5.6594256     4444.429            4 
  507000    1.3932779   -5.6853807    4428.0028            3 
  508000    1.3518878   -5.6474417    4440.2897            1 
  509000    1.3716802   -5.6476967    4454.9536            2 
  510000    1.3516686   -5.6111344    4427.1426            4 
  511000    1.3589764   -5.6706144    4430.2131            4 
  512000     1.344581   -5.6661928    4414.2861            7 
  513000    1.3447112   -5.6270263    4457.7084            2 
  514000     1.408912   -5.6510621    4425.8542            4 
  515000    1.3668988   -5.6732894    4443.6097            2 
  516000    1.3819063   -5.6239156    4441.5774            2 
  517000    1.3780902   -5.6126457    4397.6997            3 
  518000     1.356002   -5.5939499    4424.3161            1 
  519000    1.3670379   -5.6774329    4422.2829            4 
  520000    1.3605307    -5.681334    4409.7657            3 
  521000     1.369231   -5.6355432    4441.6498            2 
  522000    1.3585451    -5.659826    4403.8173            7 
  523000    1.3671741    -5.635423    4448.1661            2 
  524000    1.3811704    -5.652206    4445.3011            2 
  525000    1.3437993    -5.643683    4432.4081            6 
  526000    1.3778223   -5.6753214    4421.4993            2 
  527000    1.3642917   -5.6439658     4425.921            2 
  528000    1.3839917   -5.6492026    4426.6752            2 
  529000    1.3952206   -5.6524837    4431.5939            3 
  530000    1.3435401   -5.6355752    4431.0641            4 
  531000    1.3610166   -5.6781369    4413.8625            2 
  532000    1.3535674   -5.6824441    4440.0412            2 
  533000    1.3647533   -5.6421613    4430.4349            2 
  534000    1.3660133   -5.6322242    4451.7167            2 
  535000    1.3564818   -5.6248136    4439.9686            2 
  536000    1.4002257   -5.6213489    4426.7938            3 
  537000    1.3539991   -5.6625086    4414.9886            1 
  538000    1.3372788   -5.6765785    4424.7837            4 
  539000    1.3400102   -5.6467361    4421.1398            2 
  540000    1.3590727   -5.6371046    4442.4434            2 
  541000     1.377873   -5.6648762    4431.9701            2 
  542000    1.3915624   -5.6506634    4440.8996            2 
  543000    1.3582751    -5.647617     4456.921            2 
  544000    1.3759998    -5.647534    4445.0387            3 
  545000    1.3755544   -5.6336383    4411.4748            4 
  546000    1.4014527   -5.6502593    4434.9729            2 
  547000    1.3685173   -5.6596583    4462.8625            1 
  548000    1.3729302   -5.6559476     4425.551            2 
  549000    1.3559796    -5.656117    4412.5068            3 
  550000    1.3771922   -5.6792746    4451.9835            2 
  551000    1.3673808   -5.6492317    4426.9278            3 
  552000    1.3601489   -5.6563459    4443.2226            2 
  553000    1.3898812   -5.6393581    4435.3744            2 
  554000    1.3574253   -5.6422084    4435.8469            3 
  555000    1.3676525   -5.6066397    4426.8144            4 
  556000    1.3834871   -5.6518971    4440.0853            4 
  557000    1.3665162   -5.6752778     4459.005            1 
  558000    1.3765139   -5.6740295     4417.952            2 
  559000    1.3438936   -5.6303228    4426.6502            3 
  560000    1.3327102   -5.6687296    4436.7742            3 
  561000    1.3638101   -5.6491175    4421.8897            3 
  562000    1.3466731   -5.6159794    4446.4644            2 
  563000    1.3886681   -5.6785912    4412.9586            4 
  564000    1.3803002    -5.712749    4430.0546            3 
  565000    1.3505862   -5.6278573    4446.8311            2 
  566000    1.3467465    -5.631386    4442.8333            3 
  567000    1.3725133   -5.6767983    4434.6808            2 
  568000    1.3545827   -5.6617892    4433.5197            2 
  569000     1.397372   -5.6706498    4444.8488            2 
  570000    1.3656263   -5.6358974    4439.2381            3 
  571000    1.3701659   -5.6221289    4464.8281            3 
  572000     1.346291   -5.6612378    4441.2413            5 
  573000    1.3598728   -5.6515338    4419.0424            1 
  574000    1.3849502    -5.638414    4422.6568            2 
  575000    1.3706054    -5.643225    4427.3847            2 
  576000    1.3808789   -5.6611362    4422.6523            2 
  577000    1.3730808   -5.6351822    4435.1365            1 
  578000    1.3895493   -5.6667598    4446.2414            4 
  579000    1.3836583   -5.6119902    4454.1755            1 
  580000    1.3749642   -5.6366761    4444.0856            3 
  581000    1.3472194   -5.6805967    4436.8514            3 
  582000    1.3584243   -5.6344854    4447.5349            3 
  583000    1.3874978   -5.6369108     4429.609            2 
  584000     1.411478   -5.6642133    4416.5658            3 
  585000    1.3744676   -5.6696979    4433.4908            3 
  586000    1.3521352   -5.6494279    4442.5766            4 
  587000    1.3684863    -5.654903    4447.0994            3 
  588000    1.3877065   -5.6584819    4438.3985            3 
  589000    1.3619029   -5.6561175    4448.8922            3 
  590000    1.3302135     -5.65622    4424.3925            2 
  591000    1.3727928   -5.6765727    4416.0059            3 
  592000    1.3769912   -5.6223583    4441.7289            4 
  593000    1.3781141   -5.6613675    4450.6109            1 
  594000    1.3527677   -5.6846409    4417.4321            2 
  595000    1.3635999   -5.6494632    4456.1756            1 
  596000    1.3787049    -5.638186    4433.4307            3 
  597000     1.351151   -5.6382341    4413.1555            2 
  598000    1.3675953   -5.6839077    4441.3498            5 
  599000     1.376527   -5.6289244    4434.5976            2 
  600000    1.3647241   -5.6751323    4443.0549            4 
  601000    1.3691098   -5.6732509    4430.4988            2 
  602000    1.3466333   -5.6496811    4424.2051            2 
  603000     1.360877   -5.6153775    4431.6599            2 
  604000    1.3815573   -5.6322261    4433.0956            4 
  605000    1.3623837   -5.6445854    4411.6204            1 
  606000    1.3640787   -5.6538646    4450.7767            2 
  607000     1.379363   -5.6278934    4445.6348            1 
  608000    1.3553952   -5.6617794    4439.1049            1 
  609000    1.3839636   -5.6437572    4426.4319            2 
  610000    1.3586568   -5.6658411    4424.7104            2 
  611000    1.3619868   -5.6352531    4416.3329            4 
  612000    1.3549199   -5.6460964    4422.2651            1 
  613000    1.3749815   -5.6453178    4436.1203            5 
  614000    1.3676356   -5.6508651    4428.6588            2 
  615000    1.3730639   -5.6169425    4432.5996            1 
  616000    1.3650486    -5.651294    4422.6692            3 
  617000    1.3774671   -5.6851072    4413.8703            6 
  618000    1.3835953   -5.6665649    4446.6853            2 
  619000    1.3541895    -5.683399     4429.645            2 
  620000    1.3842966   -5.6683466    4437.5539            3 
  621000    1.3583495   -5.6360707    4438.3814            2 
  622000     1.344548   -5.6771204     4437.736            1 
  623000    1.3530314   -5.5945199    4458.1885            2 
  624000    1.3523904   -5.6370401    4437.6765            2 
  625000    1.3734272   -5.6678028    4410.8779            3 
  626000    1.3510699   -5.6421506    4433.9053            2 
  627000     1.385223   -5.6662874    4427.7905            1 
  628000    1.3421348   -5.6496237    4406.6715            2 
  629000    1.4072455   -5.6528304    4432.3381            1 
  630000    1.3964053   -5.6392872    4412.5864            2 
  631000    1.3479733   -5.6473237    4423.3104            3 
  632000    1.3465054   -5.6390763    4442.4132            2 
  633000     1.390521   -5.7105852    4414.8107            3 
  634000    1.3693643    -5.652088    4440.4953            3 
  635000     1.369148    -5.649792    4436.4568            4 
  636000    1.3400131   -5.6684472    4433.2473            4 
  637000    1.3657767   -5.6701795    4433.3904            2 
  638000    1.4059106   -5.6605323       4416.7            1 
  639000    1.3467982   -5.6638114    4441.6562            2 
  640000    1.4165264   -5.6397379    4446.6743            4 
  641000    1.3758314   -5.6534424    4430.6865            4 
  642000    1.3853289   -5.6443577    4432.2392            3 
  643000    1.3521243   -5.6464596    4418.6777            2 
  644000    1.3730129   -5.6624941     4405.765            2 
  645000    1.3539221   -5.6263486    4426.8069            2 
  646000    1.3964775    -5.596425    4460.3816            5 
  647000    1.3761668   -5.6303905    4423.5606            5 
  648000    1.3446846   -5.6260256    4431.3205            1 
  649000    1.3624155    -5.634141    4430.9202            3 
  650000    1.3664114   -5.6695017    4430.1664            2 
  651000    1.3970498   -5.6628953    4432.1552            7 
  652000    1.3335736   -5.6298443    4432.9788            2 
  653000     1.381237   -5.6419006     4431.375            1 
  654000    1.3625849   -5.6382694    4442.2036            1 
  655000    1.3585639   -5.6566681    4452.0657            3 
  656000    1.3513441   -5.6812482    4420.2474            2 
  657000    1.3787849   -5.6206104     4433.357            2 
  658000    1.3824025   -5.6442617     4429.185            3 
  659000    1.3651546   -5.7111354    4433.9594            3 
  660000    1.3989255   -5.6543178    4449.2409            2 
  661000    1.3630665   -5.6213282    4448.4175            2 
  662000    1.3460737   -5.6884481    4416.4742            4 
  663000    1.3759269    -5.626445    4428.7277            3 
  664000     1.365161   -5.6501242    4438.6752            2 
  665000    1.3562308    -5.660977    4419.8652            2 
  666000    1.3660674    -5.627059    4442.5209            3 
  667000    1.3513376    -5.636834    4435.7658            2 
  668000    1.3876286   -5.6416265     4455.996            4 
  669000    1.3594732   -5.6317122    4442.2891            2 
  670000    1.3620213   -5.6701549    4423.0672            2 
  671000    1.3652066   -5.6289302    4446.3452            1 
  672000    1.3916883   -5.6843818    4436.2378            3 
  673000    1.3683985   -5.6357132    4443.6789            2 
  674000    1.3897123   -5.6581634    4447.3411            6 
  675000    1.3674484    -5.651501     4429.852            3 
  676000    1.3902074   -5.6284587    4433.5361            3 
  677000    1.3772816   -5.6683481    4414.0097            2 
  678000    1.4100249   -5.6357516    4449.3268            2 
  679000    1.3825748   -5.6394719    4447.9142            2 
  680000    1.3694953   -5.6635289    4426.2822            1 
  681000    1.3785964   -5.6220607     4445.427            2 
  682000    1.3580886   -5.6725407    4425.9132            6 
  683000    1.3722186   -5.6620751    4448.5714            2 
  684000    1.3929333   -5.6383554    4443.9598            5 
  685000    1.3766601   -5.6363328    4440.4145            3 
  686000    1.3664785   -5.6621943    4437.5481            2 
  687000    1.3244271   -5.6136769    4458.2128            2 
  688000    1.3925433   -5.6816214    4425.6746            3 
  689000    1.3681416   -5.6722321     4410.228            2 
  690000    1.3909574   -5.6407294    4454.1395            1 
  691000    1.3702021   -5.6446807    4436.4299            4 
  692000    1.3797573   -5.6511153    4444.1639            2 
  693000    1.3907435   -5.6543505    4450.4108            1 
  694000    1.3470674   -5.6487121     4454.806            5 
  695000     1.321139   -5.6111681    4447.6828            4 
  696000    1.3931701   -5.6506793    4417.0694            2 
  697000    1.3854921     -5.64035    4443.0416            1 
  698000    1.3485127   -5.6131391     4432.997            2 
  699000    1.3924326   -5.6678769     4416.272            1 
  700000    1.3678433   -5.7005783    4429.8076            3 
  701000    1.3698517   -5.6571046    4432.7432            2 
  702000    1.3671428    -5.617507    4448.6668            3 
  703000    1.4130215   -5.6599618    4420.6181            1 
  704000    1.3817833   -5.6438582    4437.6709            5 
  705000    1.3840661   -5.6672257    4437.5962            4 
  706000    1.3874112   -5.6575216     4421.808            2 
  707000    1.3776738   -5.6734464    4427.9337            4 
  708000    1.4017915   -5.7144166    4451.1781            2 
  709000    1.3518088    -5.626051    4433.7459            2 
  710000    1.3566526   -5.6147315    4432.4595            1 
  711000    1.3813615   -5.6424542    4432.9642            3 
  712000    1.3874396   -5.6593929    4422.3677            1 
  713000    1.3840457   -5.6214196    4454.4975            2 
  714000    1.3689854   -5.6750776    4411.9738            2 
  715000    1.3660903   -5.6772588     4442.758            2 
  716000    1.3492797   -5.6197808    4457.2367            8 
  717000    1.4071177   -5.6268948    4444.4015            3 
  718000    1.3556253   -5.6793139     4439.184            2 
  719000    1.3600302   -5.6523993    4436.9161            2 
  720000    1.3672043   -5.6527227    4441.8918            2 
  721000    1.3742483   -5.6787642    4432.4355            4 
  722000    1.3467128     -5.60035     4421.793            3 
  723000    1.3827023   -5.6237447    4442.6117            1 
  724000    1.3896723   -5.6187837    4458.9123            2 
  725000    1.4101782   -5.6211953    4442.8098            1 
  726000    1.3803482   -5.6561177    4418.0396            2 
  727000     1.332248   -5.6767081    4428.9933            3 
  728000    1.3690803   -5.6594613    4423.4509            2 
  729000    1.3844819   -5.6492179    4443.5025            3 
  730000    1.3605397   -5.6709044    4435.3488            5 
  731000    1.3681255   -5.6411593    4434.8863            1 
  732000    1.3834097   -5.7042581    4423.9003            3 
  733000    1.3676385   -5.6506715    4439.2521            2 
  734000    1.3706155   -5.6563229    4440.4084            2 
  735000    1.4009869   -5.5997605    4430.3641            2 
  736000    1.3617905   -5.6835443    4425.2366            3 
  737000    1.3470629   -5.6688034    4426.8089            5 
  738000    1.3993418    -5.607594    4452.5211            3 
  739000     1.380654   -5.6663066    4437.7629            1 
  740000    1.4028413   -5.6338291    4437.0968            2 
  741000    1.3396157   -5.6525032    4434.9618            1 
  742000    1.3864075   -5.6373054    4441.6552            4 
  743000    1.3366721   -5.6206214    4464.4572            3 
  744000    1.3737492   -5.6760726    4424.7828            4 
  745000    1.3546997   -5.6584665    4424.2274            2 
  746000    1.3745738   -5.6427372     4444.007            2 
  747000    1.3724815   -5.6231534    4442.1779            5 
  748000    1.3517189   -5.6663345    4436.9202            4 
  749000    1.3533556   -5.6597483    4444.2838            4 
  750000    1.3816664   -5.6044498    4430.7321            2 
  751000       1.3647   -5.6497263    4412.5359            2 
  752000    1.3455683   -5.6329868    4437.2156            3 
  753000    1.3944552   -5.6615617    4437.1018            2 
  754000     1.375876   -5.6266741    4425.6074            2 
  755000    1.3792288   -5.6883355    4416.7252            2 
  756000    1.3976721   -5.6454053    4440.7657            4 
  757000    1.3871677   -5.6459245    4438.1057            2 
  758000    1.3884203   -5.6624017     4431.005            1 
  759000     1.351118   -5.6471171    4468.4481            2 
  760000    1.3536015   -5.6645034    4429.6157            8 
  761000     1.342707   -5.6678219    4421.6113            2 
  762000    1.3437835   -5.6777164    4446.7264            2 
  763000    1.3595613   -5.6386794    4440.1592            3 
  764000    1.3673137   -5.6526949    4427.5865            2 
  765000    1.3696789   -5.6280455    4432.0598            1 
  766000    1.3584697   -5.6313902    4445.6822            5 
  767000    1.3579072   -5.6379953     4433.767            2 
  768000    1.3760919   -5.6059761    4448.5863            3 
  769000    1.4015109   -5.6304166    4465.7411            2 
  770000    1.3846977   -5.6827788    4423.0254            3 
  771000    1.3570867    -5.658739    4425.4666            1 
  772000    1.3632518   -5.6507185    4463.1371            4 
  773000    1.3817485    -5.636191    4436.5772            3 
  774000    1.3305013   -5.6344312    4436.5566            3 
  775000    1.3544632   -5.6444406    4432.7211            6 
  776000    1.3841007   -5.6419842    4434.6304            4 
  777000    1.3409485   -5.6294228    4443.9343            1 
  778000    1.3720989   -5.6803645    4441.9271            1 
  779000    1.3425528   -5.6619967     4430.757            2 
  780000    1.3564577   -5.6175034     4446.973            2 
  781000    1.3643638   -5.6540261    4447.4178            2 
  782000    1.3811929   -5.6827441    4431.3417            2 
  783000    1.3752154   -5.6488729    4442.9862            3 
  784000    1.3627641   -5.6500849    4426.2226            3 
  785000    1.3592017   -5.6680788    4442.0923            3 
  786000    1.3987032   -5.6847536     4447.279            2 
  787000    1.3538148   -5.6673184     4438.332            3 
  788000    1.3484823   -5.6787904    4441.5096            3 
  789000    1.3923809   -5.6336324    4450.7028            2 
  790000    1.3749267   -5.6833719    4438.9133            4 
  791000    1.3840907   -5.6437299    4447.8159            2 
  792000    1.3781502   -5.6311944    4449.0402            4 
  793000    1.3607339     -5.64494    4442.4074            2 
  794000    1.3479906   -5.6371503    4434.8055            3 
  795000    1.3563997   -5.6326052    4423.9196            2 
  796000    1.3793629    -5.637109     4424.871            2 
  797000    1.3547434   -5.6455451    4440.9856            2 
  798000    1.3537275   -5.6592061    4443.6346            2 
  799000    1.3285466   -5.6420005    4441.7545            5 
  800000    1.3824913   -5.6384135    4447.4041            2 
  801000    1.3842058   -5.6460777    4439.2217            3 
  802000    1.3504299    -5.639657     4444.302            4 
  803000    1.3654025   -5.5971573     4438.393            2 
  804000    1.3875585   -5.6175055    4449.8274            2 
  805000    1.4072299   -5.6611394    4424.8215            6 
  806000    1.3784295   -5.6590328    4433.6135            8 
  807000    1.3506504   -5.6111612    4458.6859            3 
  808000    1.3552473   -5.6127397    4457.1195            2 
  809000     1.372162   -5.6512931    4454.9996            2 
  810000    1.3864791   -5.6579706    4457.0149            3 
  811000    1.3769912   -5.6269935    4442.8614            2 
  812000    1.3873809   -5.6431967    4426.8571            2 
  813000    1.3717542   -5.6618159    4410.0449            1 
  814000     1.342121   -5.6339632    4455.5059            4 
  815000    1.3594579   -5.6588529    4455.6339            5 
  816000     1.357777   -5.6382507    4442.2244            5 
  817000    1.3437576   -5.6278086    4442.6225            1 
  818000    1.3362746   -5.6296806    4439.6183            4 
  819000    1.3614599   -5.6466583    4446.5648            2 
  820000    1.3821117   -5.6563935    4427.0337            4 
  821000    1.3619558   -5.6501433    4423.4532            2 
  822000    1.3612047   -5.6497075    4437.8339            2 
  823000    1.3772486   -5.6471228    4415.7717            2 
  824000    1.3512418    -5.595904    4460.9798            2 
  825000    1.3688223   -5.6403634    4435.6714            2 
  826000    1.3711661   -5.6205396    4443.0901            2 
  827000    1.3743583   -5.6238614    4423.7127            2 
  828000    1.3769708   -5.6643898    4415.9395            2 
  829000    1.3847094   -5.6550399    4439.8362            4 
  830000    1.3652336   -5.6433517    4412.9979            3 
  831000    1.3568879    -5.664691    4431.5411            2 
  832000    1.3823382   -5.6763001    4435.8741            1 
  833000    1.3720482   -5.6211181    4439.2877            3 
  834000    1.3672227   -5.6822689    4420.8759            2 
  835000    1.4001993   -5.6549546    4431.5087            2 
  836000    1.3862964   -5.6290123    4449.6713            4 
  837000    1.3357384   -5.6526733    4422.2197            4 
  838000    1.3610618    -5.636567    4430.8592            1 
  839000    1.3697513   -5.6352799    4430.5026            2 
  840000    1.3779695   -5.6430154    4424.8415            3 
  841000    1.3552715   -5.6118188    4455.1042            3 
  842000    1.3572061   -5.6403364    4441.0435            5 
  843000    1.3680308   -5.6973877    4436.6246            1 
  844000    1.3751809   -5.6669886    4425.4936            2 
  845000    1.3517758   -5.6156927    4432.4346            1 
  846000    1.3594991   -5.6883832    4410.3334            1 
  847000    1.3637166   -5.6593262    4424.1407            4 
  848000    1.3842028   -5.6509439    4412.5944            1 
  849000    1.3666485   -5.6723633    4431.4389            2 
  850000    1.3364124   -5.6722702    4448.5365            2 
  851000    1.3607978   -5.6279264    4457.1963            3 
  852000    1.3559052   -5.6164905    4439.7349            3 
  853000    1.3997877    -5.652151    4443.2664            1 
  854000    1.3432552   -5.6335748    4454.7805            2 
  855000    1.3687142   -5.6216486    4433.4212            5 
  856000    1.3407471   -5.6509284    4444.5195            2 
  857000    1.3733086   -5.6639161     4432.576            3 
  858000    1.3638539   -5.6811416    4419.7566            3 
  859000    1.3841182   -5.6358116    4413.3556            2 
  860000    1.3520005   -5.6404773    4436.6097            3 
  861000    1.3598833   -5.6690796    4442.5729            1 
  862000    1.3713306   -5.6810659    4430.5883            3 
  863000    1.3821289   -5.6408079    4417.5895            4 
  864000    1.4061939    -5.657775    4430.8957            5 
  865000    1.3551693   -5.6480172    4442.8399            3 
  866000    1.3846408   -5.6130992    4432.2402            2 
  867000    1.3546358   -5.6857213    4414.7221            2 
  868000     1.384803   -5.6337926    4427.6616            4 
  869000    1.3524643   -5.6485026    4433.0459            1 
  870000     1.370475   -5.6645383    4446.6017            4 
  871000    1.3748666   -5.6415413    4424.0768            2 
  872000    1.4071134   -5.6568602     4416.923            3 
  873000    1.3854051   -5.6527283    4412.3798            2 
  874000    1.3550461   -5.6147657    4430.1442            2 
  875000    1.3716464   -5.6505299    4447.7715            4 
  876000    1.3583932   -5.6405452    4432.9861            5 
  877000    1.3510429   -5.6690774    4431.9821            3 
  878000    1.3697613   -5.6670077    4446.1068            2 
  879000    1.3562371   -5.6450487    4437.0831            2 
  880000    1.3495487    -5.664505    4437.9902            2 
  881000    1.3645319   -5.6396486    4461.3734            2 
  882000     1.320145   -5.6738137    4409.1909            3 
  883000     1.348409   -5.6680737    4437.4607            2 
  884000    1.3596465   -5.6493469    4437.4249            2 
  885000    1.3766973   -5.6667282    4443.3806            3 
  886000    1.3848692   -5.6668607    4425.6902            1 
  887000    1.3985092   -5.6580095    4395.0538            3 
  888000    1.3836482   -5.6318626    4458.4629            1 
  889000    1.3372725   -5.6902413    4411.4585            3 
  890000     1.360081   -5.6702272    4424.9168            1 
  891000    1.3667503   -5.6422224    4435.3281            4 
  892000    1.3597649    -5.648983    4436.3445            3 
  893000    1.3810306   -5.6991889    4430.6023            7 
  894000    1.3623749   -5.7051879    4417.3347            2 
  895000    1.3641885   -5.6346804    4435.1288            4 
  896000    1.3742714   -5.6789181    4431.3247            3 
  897000    1.3756468   -5.6364742    4424.1934            3 
  898000    1.3733996    -5.669735    4415.8061            3 
  899000    1.3537765   -5.6542443    4432.2852            3 
  900000    1.3417353   -5.6406593    4414.6939            4 
  901000    1.3980096    -5.642993    4419.8793            3 
  902000    1.3563761    -5.677878    4460.9094            6 
  903000    1.3860746   -5.6837621    4424.4311            1 
  904000    1.3583168   -5.6471828    4424.6186            2 
  905000      1.37513   -5.6432653    4417.6707            5 
  906000    1.3208313   -5.6603702    4443.2091            2 
  907000    1.3830204   -5.6407884    4430.0255            4 
  908000    1.3999849   -5.6048087    4429.9525            1 
  909000    1.3690792   -5.6373158    4434.1201            3 
  910000    1.3673621   -5.6498402     4440.532            2 
  911000    1.3556363   -5.6852227    4432.6186            2 
  912000    1.3495605    -5.664092    4421.9475            5 
  913000     1.381409   -5.6472218    4454.3606            2 
  914000    1.3601074   -5.6295319    4433.0756            2 
  915000    1.3583908     -5.66311    4441.4635            3 
  916000    1.3757736   -5.6376205      4453.64            3 
  917000    1.4022446   -5.6483297    4427.1448            1 
  918000    1.3562471   -5.6571033    4429.2252            3 
  919000    1.3742083   -5.6172768    4430.8708            3 
  920000    1.3573123   -5.6738495    4432.6444            3 
  921000    1.3824573   -5.6607277    4414.7231            2 
  922000    1.3751571   -5.6244494    4445.1423            4 
  923000    1.3771442    -5.685312    4425.6113            2 
  924000     1.345905   -5.6234955    4400.9944            3 
  925000    1.4000883   -5.6479522     4423.102            2 
  926000    1.3958169   -5.6382485    4438.2234            2 
  927000     1.381966   -5.6828089    4429.2944            1 
  928000    1.4039378   -5.6407907    4432.8242            2 
  929000    1.3745308    -5.635777    4451.8623            4 
  930000    1.3787405   -5.6441153    4433.7983            3 
  931000    1.3738569   -5.6311366    4435.1398            3 
  932000    1.3408324   -5.6885916    4411.2951            5 
  933000    1.3523786   -5.6338635     4425.536            2 
  934000    1.3547959   -5.6536177    4428.1985            2 
  935000    1.3856939   -5.6680022    4425.6755            3 
  936000    1.3673851   -5.6696527     4434.363            5 
  937000    1.3580963   -5.5946315    4454.5265            1 
  938000     1.368167   -5.6451762    4432.6815            2 
  939000    1.3840919   -5.6104317    4430.6361            3 
  940000    1.3665487   -5.6784432    4430.7691            4 
  941000    1.3820574   -5.6556295    4438.5264            2 
  942000    1.3635676    -5.665045    4413.6236            3 
  943000    1.4017125   -5.6759367     4415.214            2 
  944000    1.3847222   -5.6730751    4407.2768            1 
  945000     1.380404   -5.6249302    4468.6795            2 
  946000    1.3671834   -5.6398608    4429.3415            2 
  947000    1.3889886   -5.6362754    4420.4012            3 
  948000    1.3626645   -5.6722506    4424.6777            1 
  949000    1.3566529   -5.6403964    4432.2054            2 
  950000    1.3986767   -5.6548554    4422.3474            1 
  951000    1.3987138   -5.6631292    4445.6971            2 
  952000    1.3763038   -5.6531708    4448.9011            2 
  953000    1.3715691   -5.6532514    4433.5194            2 
  954000    1.3773935   -5.6255622    4436.6262            2 
  955000    1.3751191    -5.678251    4415.0697            2 
  956000    1.3752893   -5.6218205    4417.3136            3 
  957000    1.3587244   -5.6044554    4436.9514            2 
  958000    1.3547635   -5.6721648    4419.8058            1 
  959000    1.3447544   -5.6372226    4435.9834            3 
  960000    1.3761229   -5.6457984    4429.3321            3 
  961000    1.3627525   -5.6214104    4440.3169            4 
  962000    1.3658123   -5.6523898    4464.9885            2 
  963000    1.3647706   -5.6933288     4434.326            3 
  964000    1.3658027   -5.6700565      4437.44            1 
  965000    1.3924977   -5.6742431     4426.826            5 
  966000      1.36016     -5.65706    4426.0958            4 
  967000    1.4031594   -5.6750413    4421.1697            1 
  968000    1.3689901   -5.6591503    4421.3651            4 
  969000    1.3343575   -5.6391243    4450.3553            3 
  970000    1.3818373   -5.6380526    4422.8018            2 
  971000    1.3833897   -5.6520017    4453.7757            1 
  972000    1.3476508   -5.6435763    4435.2934            3 
  973000     1.371535   -5.6694313    4427.1393            2 
  974000    1.3139963   -5.6144083    4431.1551            1 
  975000    1.3826877   -5.6469842    4445.1217            4 
  976000    1.3880051   -5.6794242    4420.6616            5 
  977000    1.3634475   -5.6301066    4429.2709           12 
  978000    1.3317393   -5.6579268     4441.613            8 
  979000    1.3733126   -5.6354842    4424.9651            1 
  980000    1.3821586   -5.6492187    4432.8457            1 
  981000    1.3773721   -5.6629418    4436.5134            2 
  982000      1.34217   -5.6414722    4414.3297            1 
  983000    1.3656294   -5.6379033    4425.0254            3 
  984000    1.3621907   -5.6600886     4426.255            2 
  985000      1.39261   -5.6921218    4425.9148            2 
  986000    1.3826908   -5.6681616    4434.4465            1 
  987000    1.3630502   -5.6429087    4429.7426            4 
  988000    1.3683136   -5.6163926    4453.6829            2 
  989000    1.3942821   -5.6684968    4442.5164            3 
  990000    1.3807207   -5.6494283    4438.0574            4 
  991000    1.3839982   -5.6535481    4426.8891            2 
  992000    1.3942686   -5.6659228    4446.6727            1 
  993000    1.3748064   -5.6459558    4460.7984            3 
  994000     1.365942   -5.6428397    4422.5005            4 
  995000    1.3561399   -5.6488083    4463.4395            4 
  996000    1.3170898   -5.6465231    4438.0129            2 
  997000    1.3516153   -5.6246603      4461.24            2 
  998000     1.356776   -5.7043604    4434.4053            4 
  999000    1.3652526   -5.6329487    4443.6252            3 
 1000000    1.3647611   -5.6775929    4411.1579            2 
 1001000    1.3700713   -5.6880565    4435.9642            4 
 1002000    1.3653546   -5.6598235     4451.022            2 
 1003000     1.371735   -5.6573227    4420.4823            5 
 1004000    1.3508426   -5.6306649     4438.188            3 
Loop time of 2038.22 on 48 procs for 1000000 steps with 4000 atoms

Performance: 84779.652 tau/day, 490.623 timesteps/s
99.4% CPU use with 48 MPI tasks x no OpenMP threads

MPI task timing breakdown:
Section |  min time  |  avg time  |  max time  |%varavg| %total
---------------------------------------------------------------
Pair    | 118.37     | 123.8      | 132.31     |  36.7 |  6.07
Neigh   | 17.179     | 17.369     | 17.958     |   3.1 |  0.85
Comm    | 114.69     | 120.94     | 128.04     |  29.4 |  5.93
Output  | 1.1537     | 1.1546     | 1.1709     |   0.2 |  0.06
Modify  | 1748.6     | 1758.3     | 1769       |   9.8 | 86.27
Other   |            | 16.63      |            |       |  0.82

Nlocal:        83.3333 ave          91 max          75 min
Histogram: 1 1 4 9 7 8 9 2 5 2
Nghost:        1531.65 ave        1547 max        1519 min
Histogram: 3 5 4 11 5 5 7 4 1 3
Neighs:        8575.85 ave        9406 max        7708 min
Histogram: 2 2 5 6 11 3 8 4 3 4
FullNghs:      17151.4 ave       18730 max       15480 min
Histogram: 1 2 5 9 9 5 6 4 5 2

Total # of neighbors = 823266
Ave neighs/atom = 205.81650
Neighbor list builds = 69643
Dangerous builds = 6

#clear
#
#next RN
#
#jump SELF
Total wall time: 0:33:59
