
units lj                  # Use reduced LJ style units
atom_style atomic         # Uncharged point particles
atom_modify map hash      # Needed for indexing of clusters etc
                          # Used to be able to find where atoms are in relation to each other.

lattice fcc 1.0 spacing 1 1 1
Lattice spacing in x,y,z = 1.5874011 1.5874011 1.5874011
region box block 0 10 0 10 0 10 units lattice
create_box 2 box
Created orthogonal box = (0.0000000 0.0000000 0.0000000) to (15.874011 15.874011 15.874011)
  3 by 4 by 4 MPI processor grid
create_atoms 1 box
Created 4000 atoms
  using lattice units in orthogonal box = (0.0000000 0.0000000 0.0000000) to (15.874011 15.874011 15.874011)
  create_atoms CPU = 0.008 seconds
set type 1 type/fraction 2 0.51 78393
Setting atom values ...
  2042 settings made for type/fraction
mass 1 1.0
mass 2 1.0
pair_style lj/cut  3.5
pair_modify tail  yes
pair_coeff 1  1  1.0  1.0   # Intearaction between 1 and 1 set with epsilon = 1 and sigma = 1
pair_coeff 1  2  1.5  0.8
pair_coeff 2  2  0.5  0.88

write_data data.0
System init for write_data ...
Neighbor list info ...
  update every 1 steps, delay 10 steps, check yes
  max neighbors/atom: 2000, page size: 100000
  master list distance cutoff = 3.8
  ghost atom cutoff = 3.8
  binsize = 1.9, bins = 9 9 9
  1 neighbor lists, perpetual/occasional/extra = 1 0 0
  (1) pair lj/cut, perpetual
      attributes: half, newton on
      pair build: half/bin/atomonly/newton
      stencil: half/bin/3d
      bin: standard
WARNING: Not all mixed pair coeffs generated from mixing. Use write_data with 'pair ij' option to store all pair coeffs. (../write_data.cpp:312)


#############################
#   M E L T   S Y S T E M   #
#############################

velocity all create 2.4 5833274 mom yes dist gaussian # Assign velocities
                                                    # Temperature 2.4, random number seed, zero linear momentum
                                                                                # Gaussian distribution

timestep 0.002   # simulation timestep
thermo 1000       # output thermodynamic data every 1000 steps bf 100

# Define a fix  in this case with index 1 applied to all
# particles in the simulation. This fix is for simulations
# in the anisotropic NPT ensemble. Note that we use the MTK
# correction.
fix 1 all npt temp 2.4 2.4 0.1 iso 5.68 5.68 0.5 mtk yes tchain 5 pchain 5 # Use NPT ensemble
                                                                         # Set temperature and pressure and damping
                                                                         # Numbers of thermostats in chain and in barostat
run 10000          # run for 10000 steps
Per MPI rank memory allocation (min/avg/max) = 3.642 | 3.644 | 3.648 Mbytes
Step Temp E_pair E_mol TotEng Press Volume 
       0          2.4   -5.2404118            0   -1.6413118   -4.2035775         4000 
    1000    2.4188175   -4.8314423            0   -1.2041231    5.5639887    3707.5947 
    2000    2.4833545   -4.7972681            0   -1.0731675    5.9305526    3711.0062 
    3000    2.4256675   -4.9040771            0   -1.2664854    5.3812507    3692.7941 
    4000    2.4136881   -4.9065002            0   -1.2868732    5.5138431    3678.2185 
    5000    2.4407059   -4.8887553            0   -1.2286118    5.5475519    3689.5827 
    6000    2.4219161   -4.8992605            0   -1.2672946    5.3601603    3699.0242 
    7000    2.4612135   -4.9114533            0    -1.220556    5.8491513    3654.8237 
    8000    2.3999991   -4.8145619            0   -1.2154632    5.4665129    3724.8709 
    9000    2.3755583   -4.9155616            0    -1.353115    5.6656923    3660.6275 
   10000    2.4339584   -4.8442962            0   -1.1942713    5.6012669    3696.2719 
Loop time of 2.75394 on 48 procs for 10000 steps with 4000 atoms

Performance: 627464.844 tau/day, 3631.162 timesteps/s
99.5% CPU use with 48 MPI tasks x no OpenMP threads

MPI task timing breakdown:
Section |  min time  |  avg time  |  max time  |%varavg| %total
---------------------------------------------------------------
Pair    | 1.1833     | 1.2446     | 1.3817     |   3.0 | 45.19
Neigh   | 0.21409    | 0.22186    | 0.24537    |   1.1 |  8.06
Comm    | 0.77143    | 0.90002    | 1.0003     |   4.6 | 32.68
Output  | 0.00024005 | 0.00024583 | 0.00039385 |   0.0 |  0.01
Modify  | 0.3039     | 0.37191    | 0.42354    |   5.7 | 13.50
Other   |            | 0.01531    |            |       |  0.56

Nlocal:        83.3333 ave          96 max          73 min
Histogram: 3 2 7 11 7 4 8 3 1 2
Nghost:        1730.02 ave        1770 max        1708 min
Histogram: 6 11 5 9 5 4 4 1 1 2
Neighs:        10325.5 ave       12432 max        8853 min
Histogram: 4 2 11 5 11 8 2 2 1 2

Total # of neighbors = 495622
Ave neighs/atom = 123.90550
Neighbor list builds = 905
Dangerous builds = 204

# Equilibrate just above the melting temperature to avoid step fn in T

fix 1 all npt temp 1.25 1.25 0.1 iso 5.68 5.68 0.5 mtk yes tchain 5 pchain 5
run 2000
Per MPI rank memory allocation (min/avg/max) = 3.644 | 3.646 | 3.649 Mbytes
Step Temp E_pair E_mol TotEng Press Volume 
   10000    2.4339584   -4.8442962            0   -1.1942713    5.6012669    3696.2719 
   11000     1.238542   -7.0119416            0   -5.1545931    5.6679896    2859.7842 
   12000    1.2417425   -7.0820696            0   -5.2199215    5.5690103    2846.4722 
Loop time of 0.69141 on 48 procs for 2000 steps with 4000 atoms

Performance: 499848.162 tau/day, 2892.640 timesteps/s
99.5% CPU use with 48 MPI tasks x no OpenMP threads

MPI task timing breakdown:
Section |  min time  |  avg time  |  max time  |%varavg| %total
---------------------------------------------------------------
Pair    | 0.28749    | 0.3131     | 0.34689    |   2.5 | 45.28
Neigh   | 0.040868   | 0.04328    | 0.048567   |   0.7 |  6.26
Comm    | 0.25094    | 0.28631    | 0.31239    |   2.8 | 41.41
Output  | 5.0713e-05 | 5.4304e-05 | 0.00015965 |   0.0 |  0.01
Modify  | 0.038267   | 0.043861   | 0.050168   |   1.5 |  6.34
Other   |            | 0.004804   |            |       |  0.69

Nlocal:        83.3333 ave          91 max          74 min
Histogram: 1 3 1 6 5 15 6 6 3 2
Nghost:        2070.19 ave        2089 max        2051 min
Histogram: 2 0 6 7 6 12 5 7 1 2
Neighs:        13413.2 ave       15013 max       11544 min
Histogram: 2 1 2 9 6 7 9 8 3 1

Total # of neighbors = 643834
Ave neighs/atom = 160.95850
Neighbor list builds = 144
Dangerous builds = 8

#############################
# L I N E A R  Q U E N C H  #
#############################

# Define solid atoms. This closely follows ten Wolde  Ruiz-Montero and Frenkel  Faraday Discuss  1996  104  93-110
# Compute components of the per-atom q6 vector
compute q6 all orientorder/atom degrees 1 6 components 6 nnn NULL cutoff 1.3 # compute the Q6 parameter.
                                                                             # Use all neighbours within 1.3 unit cell.

# get number of connections
compute coord_number all coord/atom orientorder q6 0.5

# An atom is solid if it has 8 or more connections (of a possible 14)
variable is_solid atom c_coord_number>=8
group solid dynamic all var is_solid    # Must be dynamic to update
dynamic group solid defined

# do clustering
compute cluster solid cluster/atom 1.3 # Create a cluster where all atoms within are solid and max 1.3 units from another member

# define chunks one chunk per cluster
compute clus_chunks solid chunk/atom c_cluster nchunk every compress yes  # Says which atoms are in which chunk

# count the size of each chunk
compute size_chunks solid property/chunk clus_chunks count


# Find the maximum entry in the vector of chunk sizes
variable max_n equal max(c_size_chunks)


# Thermo style which includes this variable
# thermo_style custom step temp pe vol v_max_n

thermo ${N}  # Print the thermo information every 100 steps
thermo 1000  

# Reset the npt fix at a lower temperature (below freezing)
fix 1  all npt temp  ${temp} ${temp}  0.1  iso  5.68  5.68  0.5  mtk yes tchain  5  pchain  5
fix 1  all npt temp  0.45 ${temp}  0.1  iso  5.68  5.68  0.5  mtk yes tchain  5  pchain  5
fix 1  all npt temp  0.45 0.45  0.1  iso  5.68  5.68  0.5  mtk yes tchain  5  pchain  5

dump dmp2 all dcd ${N} traj.dcd
dump dmp2 all dcd 1000 traj.dcd


compute msd all msd com yes
variable twopoint equal c_msd[4]/6/(step*dt+1.0e-6)
fix 9 all vector 10 c_msd[4]
variable fit equal slope(f_9)/6/(10*dt)
thermo_style custom step temp pe c_msd[4] v_twopoint v_fit v_max_n

fix 1 all npt temp 1.25 ${temp} 0.1 iso 5.68 5.68 0.5 mtk yes tchain 5 pchain 5
fix 1 all npt temp 1.25 0.45 0.1 iso 5.68 5.68 0.5 mtk yes tchain 5 pchain 5
run 5000000 # 5000000  # Run for this many steps
Neighbor list info ...
  update every 1 steps, delay 10 steps, check yes
  max neighbors/atom: 2000, page size: 100000
  master list distance cutoff = 3.8
  ghost atom cutoff = 3.8
  binsize = 1.9, bins = 8 8 8
  4 neighbor lists, perpetual/occasional/extra = 1 3 0
  (1) pair lj/cut, perpetual
      attributes: half, newton on
      pair build: half/bin/atomonly/newton
      stencil: half/bin/3d
      bin: standard
  (2) compute orientorder/atom, occasional
      attributes: full, newton on
      pair build: full/bin/atomonly
      stencil: full/bin/3d
      bin: standard
  (3) compute coord/atom, occasional
      attributes: full, newton on
      pair build: full/bin/atomonly
      stencil: full/bin/3d
      bin: standard
  (4) compute cluster/atom, occasional
      attributes: full, newton on
      pair build: full/bin/atomonly
      stencil: full/bin/3d
      bin: standard
Per MPI rank memory allocation (min/avg/max) = 9.840 | 9.846 | 9.850 Mbytes
Step Temp PotEng c_msd[4] v_twopoint v_fit v_max_n 
   12000    1.2417425   -7.0820696 1.7980112e-30 1.2486188e-32 8.3333333e+20            1 
   13000     1.248691   -7.0830514   0.45060907 0.0028885196  0.037083068            1 
   14000    1.2492175   -7.0614157   0.83227428 0.0049540134   0.03391048            5 
   15000    1.2367335   -7.0482899    1.2682461 0.0070458113  0.034050759            2 
   16000    1.2518566   -7.0660173    1.7011292 0.0088600476  0.034171732            1 
   17000    1.2269154   -7.0883447    2.0732507  0.010162993   0.03423698            2 
   18000    1.2439556    -7.108673    2.4667381  0.011420084  0.034088298            1 
   19000    1.2580012     -7.05961    2.8931922  0.012689439  0.033828153            3 
   20000    1.2319158   -7.1038994     3.234676  0.013477816  0.033803144            1 
   21000    1.2309998   -7.0289038    3.6954274  0.014664394  0.033663184            3 
   22000    1.2068428   -7.0687675      4.13305  0.015655492  0.033780633            1 
   23000    1.2366218   -7.0949943    4.5185402  0.016371522  0.033841764            4 
   24000    1.2577477   -7.1331006    4.9427015  0.017162158  0.033969112            1 
   25000    1.2307054   -7.1410174    5.2652956  0.017550985  0.033875934            5 
   26000    1.2503275   -7.0403579    5.6923729  0.018244785  0.033808435            2 
   27000    1.2513864   -7.0044094     6.155966  0.018999895  0.033821669            1 
   28000     1.240765   -7.0831256    6.6168513  0.019693009  0.033886387            3 
   29000    1.2518795   -7.0725643    7.0100077    0.0201437  0.034007478            4 
   30000    1.2394344   -7.0918931     7.386131   0.02051703  0.034078693            2 
   31000    1.2589796   -7.1267412    7.7890316  0.020938257  0.034073483            2 
   32000    1.2485335   -7.1081221    8.2300168  0.021432335  0.034100566            3 
   33000    1.2674446    -7.074788    8.6713665   0.02189739  0.034121616            2 
   34000     1.243224   -7.1260142    9.0335447  0.022141041  0.034154918            3 
   35000    1.2455145   -7.0893824     9.403532  0.022389361  0.034150494            1 
   36000    1.2378374   -7.0708933    9.8250195    0.0227431  0.034100028            1 
   37000    1.2761199   -7.0860336    10.234911  0.023051601  0.034083826            1 
   38000    1.2336859   -7.1215586    10.542771  0.023120112  0.034017375            5 
   39000    1.2518216   -7.0540211    10.907621  0.023306882  0.033926468            1 
   40000    1.2702982   -7.0349998    11.286706   0.02351397  0.033823453            5 
   41000    1.2242041   -7.1141401    11.588274  0.023553401  0.033727697            5 
   42000    1.2734365   -7.1315588    11.929096  0.023668842  0.033597078            1 
   43000    1.2440251   -7.0477323    12.361685  0.023956754   0.03348697            3 
   44000    1.2433812   -7.1395264    12.801838  0.024245906  0.033421305            1 
   45000    1.2462032   -7.0737622    13.264317   0.02456355  0.033370295            3 
   46000    1.2348822   -7.0946972    13.681247  0.024784867  0.033349163            1 
   47000    1.2569783   -7.1395869     14.03837  0.024890726  0.033322659            3 
   48000    1.2290787   -7.0857903    14.403197   0.02500555  0.033288261            2 
   49000    1.2584916   -7.0813259    14.848581  0.025252688  0.033247259            3 
   50000    1.2537611   -7.0779259    15.200685  0.025334475  0.033220731            3 
   51000    1.2343809   -7.0951116    15.490734  0.025311656  0.033191472            2 
   52000    1.2403972   -7.0696385    15.933309  0.025534149  0.033134175            3 
   53000    1.2367472   -7.0814477    16.330759  0.025677294  0.033096539            5 
   54000    1.2520527   -7.1357827     16.70305  0.025776311  0.033062275            1 
   55000    1.2571393   -7.1010922    17.225673  0.026099504  0.033049832            3 
   56000    1.2514095    -7.108547    17.554321  0.026122502  0.033037683            1 
   57000    1.2551051   -7.1188389    17.977998  0.026283623  0.033041846            1 
   58000    1.2404594   -7.1181455    18.416126  0.026459951  0.033039514            1 
   59000    1.2578918   -7.0948528    18.670375  0.026370586  0.033040009            2 
   60000    1.2478689   -7.1553843    19.030435   0.02643116  0.033010681            3 
   61000    1.2158171   -7.1335468    19.286147  0.026347195  0.032971962            4 
   62000    1.2687568   -7.1514222    19.687355  0.026461498  0.032939345            1 
   63000    1.2445129   -7.1406144    20.138577  0.026638329  0.032917039            1 
   64000    1.2283975    -7.082834    20.656023  0.026895863  0.032894628            3 
   65000    1.2195382    -7.089629    21.033384  0.026965877  0.032876154            2 
   66000    1.2410491   -7.1124409    21.281925  0.026871117  0.032851358            1 
   67000    1.2646156   -7.0831724    21.814293  0.027132205  0.032831393            2 
   68000     1.234943   -7.1276082    22.108728  0.027094029  0.032827663            1 
   69000    1.2424901   -7.0879252    22.613778  0.027311326  0.032810389            3 
   70000    1.2555647   -7.1320419    22.938806  0.027308103  0.032799798            2 
   71000    1.2574894   -7.1042818    23.333321  0.027386527  0.032788832            3 
   72000    1.2601286   -7.1129049    23.742356  0.027479579  0.032779942            1 
   73000    1.2422015   -7.1163695    24.124191  0.027539031  0.032774814            1 
   74000    1.2204474   -7.0962267    24.710698  0.027827363   0.03278239            2 
   75000    1.2354917   -7.0910348    25.227344  0.028030382  0.032807363            3 
   76000    1.2089522   -7.1043344    25.622419  0.028094758  0.032828703            2 
   77000    1.2161011   -7.1127425    25.998516  0.028136922  0.032850716            3 
   78000    1.2536568   -7.1184504    26.236128  0.028030051  0.032863382            1 
   79000    1.2342991   -7.1323278    26.871596  0.028345565  0.032871214            4 
   80000    1.2543866   -7.0875453    27.330245  0.028469005    0.0328998            1 
   81000    1.2370818   -7.0880923    27.717823  0.028516278  0.032926878            2 
   82000     1.232319   -7.0904676    28.260461  0.028719981   0.03295908            2 
   83000    1.2503721   -7.1297685    28.709224  0.028824521  0.033002143            2 
   84000    1.2433198    -7.134065    28.994522  0.028764407  0.033036664            2 
   85000     1.235387   -7.1134761    29.301906  0.028727359   0.03306433            2 
   86000     1.236916   -7.1154942    29.630263  0.028711495  0.033078177            1 
   87000    1.2470769   -7.1404599    30.040886  0.028774795  0.033090924            3 
   88000    1.2387391   -7.1018288    30.342836  0.028733746  0.033099077            2 
   89000    1.2520362    -7.116749    30.899406  0.028932028  0.033103903            4 
   90000     1.242726   -7.1129092     31.20909  0.028897305  0.033118346            1 
   91000      1.25381   -7.0623439    31.799611  0.029120522  0.033131913            1 
   92000    1.2591314   -7.1426042    32.014423  0.028998572  0.033144591            1 
   93000    1.2338804   -7.1020134    32.442037  0.029069925  0.033145984            2 
   94000    1.2461198     -7.10996    32.639361  0.028935603  0.033137284            1 
   95000    1.2559837   -7.1088891    33.187629  0.029111955  0.033132974            2 
   96000    1.2463107   -7.0850948    33.532417  0.029108001  0.033137352            1 
   97000     1.260495   -7.1146145    33.984092  0.029195955  0.033143683            4 
   98000    1.2409715   -7.1309099    34.276312  0.029146523  0.033155571            2 
   99000    1.2423257   -7.0835234     34.66864  0.029182356  0.033154446            3 
  100000    1.2140872   -7.1216882     34.90433  0.029086942  0.033138018            1 
  101000     1.240538   -7.0614025    35.029403  0.028902148  0.033117405            4 
  102000    1.2138857   -7.0827648     35.67736   0.02914817  0.033094753            2 
  103000    1.2180737   -7.1158443    35.965045  0.029097933  0.033076965            3 
  104000    1.2309441   -7.1299756     36.18038  0.028990689  0.033055304            2 
  105000    1.2280683    -7.132117    36.649833  0.029087169  0.033035378            4 
  106000    1.2558356   -7.0957734    37.118522  0.029181228  0.033013564            2 
  107000    1.2195907   -7.1335574     37.47459  0.029185817  0.032999158            2 
  108000    1.2125602   -7.0782528    37.944193  0.029277927   0.03298313            2 
  109000    1.2320053    -7.127507    38.369557  0.029334524  0.032971949            2 
  110000    1.2499882   -7.0910553    39.102607  0.029623187  0.032969177            1 
  111000    1.2557959   -7.1533063    39.280884  0.029490153  0.032973125            1 
  112000     1.229763   -7.1732223    39.426614  0.029335278  0.032968777            2 
  113000    1.2464835    -7.174759     39.90881  0.029431276  0.032961318            2 
  114000    1.2042735   -7.1687531     40.52017  0.029620007  0.032958132            2 
  115000     1.232499   -7.1296229    41.067253  0.029758879  0.032963435            4 
  116000    1.2130417    -7.123627    41.267815  0.029646419  0.032965395            2 
  117000     1.230127   -7.1092563    41.627927  0.029649521  0.032963595            1 
  118000    1.2494754   -7.1529495    42.014897  0.029671537  0.032959443            2 
  119000    1.2509329   -7.1420967     42.35975  0.029663691  0.032959662            2 
  120000    1.2361622   -7.0627471    43.033357  0.029884275   0.03296193            1 
  121000    1.2336968   -7.1302387    43.368324  0.029867992  0.032961819            1 
  122000    1.2398954   -7.1300917    43.563834  0.029756717  0.032960619            1 
  123000    1.2148002     -7.14462    44.127116   0.02989642  0.032960827            2 
  124000    1.2292363   -7.1567224    44.581363  0.029960594  0.032964537            1 
  125000    1.1876237   -7.1312289    44.778462  0.029852308  0.032961113            2 
  126000    1.2239425   -7.1818345    44.901935  0.029697047  0.032954813            2 
  127000    1.2104226   -7.1550547    45.304068  0.029727079  0.032942278            3 
  128000    1.2391423   -7.1573537     45.74602  0.029782565  0.032933129            2 
  129000    1.2052094   -7.1507269    46.341486   0.02993636  0.032930029            3 
  130000    1.2235611   -7.1696656    46.604143  0.029874451  0.032923468            5 
  131000    1.2057429   -7.1553825    46.862097  0.029810494  0.032914481            5 
  132000    1.2102099   -7.1321752    47.125743    0.0297511  0.032903127            3 
  133000    1.2318327   -7.0872558    47.859823  0.029987358  0.032893363            4 
  134000    1.2397327   -7.1328793    47.958466  0.029824916  0.032883544            3 
  135000    1.1996641    -7.141663    48.316743   0.02982515  0.032874012            3 
  136000    1.2223059   -7.1122241    48.940722  0.029988187   0.03286565            4 
  137000    1.2251589   -7.1227339    49.368908  0.030029749  0.032859262            3 
  138000    1.2372001   -7.1439061    49.919799  0.030144806  0.032851825            2 
  139000    1.2215642   -7.1101449    50.217195  0.030106232  0.032847862            2 
  140000    1.2323306   -7.1494149    50.345073  0.029967305  0.032843775            4 
  141000    1.2289832   -7.0715669    51.136009  0.030222227  0.032838267            1 
  142000    1.2211648   -7.1362868    51.386879  0.030156619   0.03283878            2 
  143000    1.2275007   -7.1497978    51.575456  0.030055627  0.032834539            4 
  144000    1.1943822   -7.1416966    52.141041  0.030174213  0.032831858            4 
  145000     1.253429   -7.1457026     52.60853  0.030234787  0.032831494            4 
  146000    1.2574799   -7.1670016    52.834545  0.030156704   0.03282723            2 
  147000    1.2282204   -7.1360636    53.064642  0.030081997  0.032819477            2 
  148000    1.2253587   -7.1246576    53.443358  0.030091981  0.032810613            4 
  149000    1.2084722   -7.1250157    53.987662  0.030194441    0.0328046            2 
  150000    1.2200489   -7.1398847    54.520591  0.030289217  0.032798162            1 
  151000    1.2344574   -7.1681085    54.778754    0.0302311  0.032793907            3 
  152000    1.2186314   -7.1054733    55.233023  0.030281263  0.032790106            1 
  153000    1.2317067   -7.1567467    55.383313  0.030165203  0.032784511            3 
  154000    1.2130437   -7.1151796    56.224714  0.030424629   0.03278168            2 
  155000     1.216651   -7.1496729    56.553887  0.030405315  0.032781475            1 
  156000    1.2243271   -7.1050932    56.906344  0.030398688  0.032778763            2 
  157000    1.2487262   -7.1151234    57.047881  0.030280192  0.032773802            2 
  158000    1.2326803   -7.1600703    57.231576   0.03018543  0.032768436            1 
  159000    1.2432632    -7.101172    58.033894  0.030416087  0.032762867            2 
  160000    1.2320252   -7.1225615    58.075471  0.030247641   0.03275814            2 
  161000    1.2145249    -7.118744    58.592148  0.030327199   0.03274822            2 
  162000     1.196834   -7.1451558    58.936884  0.030317327  0.032743276            2 
  163000    1.2250865   -7.1513824    59.275488  0.030304441  0.032736286            1 
  164000    1.2124205   -7.1032534    60.010487  0.030493134  0.032727248            2 
  165000    1.2054239   -7.1478737    60.099788  0.030353428  0.032719545            4 
  166000    1.2245677     -7.13876    60.375126  0.030308798  0.032711015            2 
  167000    1.2263348   -7.1903308     60.56258  0.030220848  0.032701985            3 
  168000    1.2193629   -7.1462065    60.957645  0.030236927  0.032691346            2 
  169000     1.237997   -7.1467106    61.355214   0.03025405  0.032682244            2 
  170000    1.2184039   -7.1678691    61.585014  0.030188732  0.032673286            1 
  171000    1.2399564   -7.0998221    62.397055  0.030407922  0.032665487            2 
  172000    1.2448191   -7.1117846    62.486258   0.03027435  0.032656482            1 
  173000     1.227983    -7.117913    63.208321  0.030447168  0.032648065            3 
  174000    1.2361594   -7.0942116    63.729154  0.030521626  0.032645705            2 
  175000    1.2248905   -7.1504183    63.968677  0.030461275  0.032642176            1 
  176000    1.1940878   -7.1489855    64.185021  0.030390635  0.032634801            3 
  177000    1.2434084   -7.1728981    64.402041  0.030321111  0.032627697            2 
  178000     1.229521   -7.1579018    64.753301  0.030315216  0.032617912            2 
  179000     1.224149   -7.1693085    65.206223  0.030356715  0.032608978            1 
  180000    1.2106159   -7.1402886    65.896269  0.030507532  0.032601215            3 
  181000    1.2338509    -7.157339    65.909128  0.030344902  0.032593912            3 
  182000    1.2228473    -7.155769    66.415903  0.030410212   0.03258551            2 
  183000    1.1962817   -7.1432288    66.601542  0.030328571  0.032577617            1 
  184000    1.2094047   -7.1562173    66.832607  0.030268391  0.032568423            2 
  185000    1.2051882   -7.1603311    67.366801  0.030345406   0.03255683            4 
  186000     1.217675   -7.2242594    67.509266  0.030246087  0.032544364            6 
  187000    1.2130635   -7.1026883    68.059142  0.030329386  0.032533172            3 
  188000    1.1953628   -7.1333404    68.732497  0.030466532  0.032524421            1 
  189000    1.2246884   -7.1187529    69.194683  0.030509119  0.032517326            2 
  190000    1.2166595    -7.140298     69.65253  0.030549355  0.032511795            4 
  191000    1.2230475    -7.166042    69.897391  0.030496244  0.032502891            3 
  192000    1.2109832   -7.1472495    70.050521  0.030403872  0.032494258            2 
  193000     1.194465   -7.1758572    70.071553   0.03025542  0.032484051            1 
  194000    1.2515568    -7.171118    70.291757  0.030194053  0.032473177            3 
  195000    1.2307709    -7.199343    70.816264  0.030263361  0.032459526            1 
  196000    1.2143277   -7.1850778    71.186474  0.030266358  0.032446602            1 
  197000    1.2281024   -7.2084008    71.428855  0.030215252  0.032434166            2 
  198000    1.2115214   -7.1686368     72.05506  0.030326204  0.032419897            2 
  199000    1.2369275   -7.1468159    72.542313  0.030377853  0.032409232            1 
  200000    1.1976199   -7.1264012    73.303977  0.030543323   0.03239934            2 
  201000    1.2112701   -7.1587586    73.128159  0.030318474  0.032387549            2 
  202000    1.2222983   -7.1415754    73.563489  0.030347974  0.032374762            2 
  203000    1.2123758   -7.1716466    73.713306  0.030259978  0.032362078            3 
  204000     1.220873   -7.1755246    74.042434  0.030246092   0.03235093            3 
  205000    1.2375568   -7.1868902    74.222205  0.030171628  0.032337482            2 
  206000    1.2412441    -7.156932    74.848209  0.030278401  0.032323498            4 
  207000    1.2229352   -7.1586549    75.066508  0.030220011  0.032312277            2 
  208000    1.2151683   -7.1407895    75.574601  0.030278286  0.032301607            2 
  209000    1.2217533   -7.1972287    75.986959   0.03029783   0.03229313            2 
  210000     1.219126   -7.1578589     76.74961  0.030456194  0.032284572            1 
  211000     1.233425   -7.1297977    77.569662  0.030635728  0.032280195            1 
  212000    1.2366901   -7.1871764    77.600477  0.030503332  0.032274356            2 
  213000    1.2169882   -7.1505529    77.726992  0.030409621  0.032268753            2 
  214000    1.2257454   -7.1833554    78.339587   0.03050607  0.032264483            2 
  215000    1.2236753   -7.1880465    78.489845   0.03042242  0.032257229            4 
  216000    1.1969426   -7.1039954    79.431177  0.030644744  0.032250431            3 
  217000    1.2157688   -7.2221053    79.065042  0.030362919  0.032243062            4 
  218000    1.2269269   -7.1508837    79.587506  0.030423359  0.032233205            2 
  219000    1.1998931   -7.1407538    79.879633  0.030395598  0.032224867       -1e+20 
  220000    1.2395978   -7.1662281    80.306849  0.030419261  0.032215342            3 
  221000    1.2104295   -7.1965889    80.531207  0.030366217  0.032205027            5 
  222000    1.2095827   -7.1590238      81.1511  0.030462124  0.032196411            3 
  223000    1.2140471   -7.1482569    81.354932  0.030401694   0.03218714            2 
  224000    1.2188553   -7.1448143    81.904572  0.030470451  0.032177849            2 
  225000    1.1913405   -7.1459579    82.363686  0.030505069  0.032170563            2 
  226000    1.2240728   -7.1539133    82.561892  0.030443175  0.032162523            2 
  227000     1.224948   -7.1797738    82.945884  0.030450031  0.032154425            1 
  228000    1.2312327    -7.164346    83.240206  0.030424052   0.03214591            3 
  229000    1.2263401   -7.1826836    83.465416   0.03037315  0.032137965            2 
  230000    1.2217549   -7.1644743    84.310794  0.030547389  0.032128984            2 
  231000    1.2199401   -7.1202145    84.820698  0.030599097  0.032121327            3 
  232000    1.2136691   -7.1619319    84.811201  0.030463793  0.032113673            3 
  233000    1.2160305   -7.1510891    84.993729  0.030398329  0.032105664            1 
  234000     1.219919   -7.1266234    85.708973  0.030523138  0.032098686            4 
  235000    1.2354585   -7.1347925    86.298953  0.030602466    0.0320926            5 
  236000    1.2004828   -7.1684354    86.082467  0.030396351  0.032085985            4 
  237000    1.2149291   -7.1855119    86.297299  0.030343635  0.032076242            2 
  238000    1.2349663   -7.1801668    86.769908   0.03038162  0.032068321            2 
  239000    1.2005528   -7.1837929    87.032963  0.030346221  0.032058415            5 
  240000    1.2209572   -7.1881518    87.517016  0.030387853  0.032050098            1 
  241000    1.2229656   -7.1733788    88.076933  0.030455371  0.032041508            1 
  242000    1.2126621   -7.1649211    88.363204  0.030428101  0.032031416            3 
  243000    1.2311026   -7.1936427    88.519796  0.030356583  0.032021896            1 
  244000    1.2317452     -7.19244    88.819204  0.030334428  0.032011657            3 
  245000    1.2111512   -7.1746279     89.49431  0.030440241  0.032002931            2 
  246000    1.2130879   -7.1879899    89.757573  0.030405682  0.031994783            3 
  247000    1.1861297   -7.1367652    90.378307  0.030492006  0.031987811            7 
  248000    1.2089333   -7.2107418     90.65876  0.030463293  0.031980146            3 
  249000    1.2049907   -7.1603527    90.636398  0.030333466  0.031972072            2 
  250000    1.1961145   -7.1868699    91.038822  0.030346274  0.031962601            2 
  251000    1.2116273   -7.1905314      91.4674  0.030367662  0.031953424            1 
  252000    1.1937062   -7.1909016     91.72656  0.030332857   0.03194332            1 
  253000    1.1778906   -7.2046432    92.306935  0.030404129  0.031932628            2 
  254000    1.2047302   -7.1629105    92.683488  0.030407968  0.031923794            1 
  255000    1.1948633   -7.1126899     93.37321  0.030514121  0.031915547            1 
  256000    1.2325068   -7.1289576    94.008521  0.030601732  0.031910122            1 
  257000    1.1948379   -7.1353853    93.999465  0.030479723  0.031904659            1 
  258000    1.2134492   -7.1688613    94.769853  0.030610418  0.031899196            1 
  259000    1.2265254   -7.1969035    95.012392  0.030570268  0.031895356            2 
  260000    1.2113049   -7.2152679    95.435531  0.030588311  0.031892605            2 
  261000    1.2075271   -7.2259833    95.519381  0.030497887  0.031888706            1 
  262000     1.205002   -7.1855677    96.317177  0.030635235  0.031884589            2 
  263000    1.1764219   -7.1874275    96.628974  0.030617546   0.03188064            1 
  264000    1.1766214   -7.2157987    96.490205  0.030457767  0.031875931            1 
  265000    1.1978737    -7.173699    97.466917  0.030649974  0.031871507            2 
  266000    1.2243422   -7.1908985    97.759352  0.030626363  0.031867069            2 
  267000    1.2361982   -7.1721808    98.325967  0.030688504   0.03186402            2 
  268000    1.2157947   -7.1882163    98.800568  0.030721569  0.031860342            4 
  269000    1.2348902   -7.2043239    99.011359  0.030672664   0.03185679            3 
  270000    1.1733917   -7.1719631    99.583993    0.0307358  0.031854974            1 
  271000    1.1911425   -7.1808836    99.464461  0.030585628  0.031852071            2 
  272000    1.2252992   -7.1798647    99.861324  0.030594768  0.031848518            3 
  273000    1.2001232   -7.2423794    100.30184  0.030617166  0.031844511            1 
  274000    1.1753891   -7.1566166    100.88274  0.030682098  0.031840933            2 
  275000    1.2181369   -7.1445256    101.32562  0.030704733  0.031839329            2 
  276000    1.1984657   -7.1999668    101.59273  0.030674135  0.031835537            2 
  277000     1.192668   -7.2064325    101.37625  0.030498269  0.031830428            1 
  278000     1.201857   -7.1993947    101.44256  0.030408442  0.031823561            3 
  279000    1.2199388   -7.1782101    101.55646   0.03033347  0.031815274            3 
  280000    1.1993605    -7.146457    102.08815  0.030383379  0.031806422            2 
  281000    1.2082724   -7.1878514    102.52213  0.030403952   0.03179702            4 
  282000    1.2122135   -7.2023571    102.70571  0.030350386  0.031787644            3 
  283000    1.2207114     -7.15475    103.46623  0.030467089  0.031779017            1 
  284000    1.2166822   -7.1682749    103.32396  0.030318063  0.031770616            3 
  285000     1.197659    -7.186536    103.66534  0.030311503  0.031761888            3 
  286000    1.2181113   -7.2247252    104.10567  0.030333819  0.031753002            6 
  287000    1.2379364   -7.2459603    104.53005   0.03035135  0.031743557            2 
  288000    1.1974539   -7.1579398    105.30613  0.030470523  0.031735416            1 
  289000    1.2229016    -7.175968    105.70449  0.030479955  0.031726727            1 
  290000    1.1951663   -7.1550823    105.62282  0.030351386  0.031717446            4 
  291000    1.2103195   -7.2139595    105.79639   0.03029679  0.031708195            2 
  292000    1.2022867   -7.2314866    106.15589  0.030295632  0.031698294            2 
  293000    1.1949081   -7.2170938    106.62007  0.030324253  0.031689195            4 
  294000    1.1943162   -7.2267694    106.60023  0.030215485  0.031681325            3 
  295000    1.1934582   -7.2301357    106.79951  0.030169352  0.031672765            1 
  296000    1.2010208   -7.2003008    107.68826   0.03031764  0.031663561            2 
  297000    1.2195006    -7.224403    107.65481  0.030206176  0.031654484            2 
  298000    1.2270029   -7.1709662    108.05559  0.030216889  0.031646197            2 
  299000    1.1973826   -7.1464193    109.32979  0.030470955  0.031638794            5 
  300000    1.1892743    -7.167514    109.49929   0.03041647   0.03163214            2 
  301000    1.2199749   -7.1637979    109.82859  0.030406587  0.031626062            2 
  302000     1.195168   -7.2195044    109.76114  0.030287289  0.031619196            2 
  303000    1.1870957   -7.2227329    110.09541  0.030279266  0.031611657            2 
  304000    1.1903221   -7.2082822    110.73107  0.030353911   0.03160341            1 
  305000    1.2114978   -7.2147431    110.73644  0.030255858  0.031595318            3 
  306000    1.2139711   -7.2022902    111.00611  0.030230421  0.031586643            3 
  307000    1.1885791   -7.2300105    110.57807  0.030015763  0.031575876            2 
  308000    1.2171373   -7.1536054    111.53949  0.030178433  0.031563186            4 
  309000    1.1906304   -7.2140595    111.86424   0.03016835  0.031553018            1 
  310000    1.1798469   -7.1249355    112.73672  0.030305571  0.031542193            1 
  311000    1.2011105   -7.2226928     112.3267  0.030098257  0.031531861            2 
  312000    1.1821313   -7.1864922    113.26367   0.03025205  0.031521755            3 
  313000    1.1597868   -7.1954835    113.08015  0.030106535  0.031511354            2 
  314000    1.2009286   -7.2357313    113.44625  0.030107816  0.031500446            1 
  315000    1.1986422   -7.2296871    114.05667  0.030173722  0.031489031            1 
  316000    1.1780857    -7.097075    114.79309   0.03027244  0.031479459            2 
  317000    1.1745087   -7.2380415    114.79566  0.030177619  0.031470224            2 
  318000     1.198781   -7.1840347    115.14601   0.03017453  0.031461771            2 
  319000    1.2220209   -7.2173935     115.2381  0.030103997   0.03145233            1 
  320000    1.1989146    -7.216884    115.80483  0.030157508  0.031442449            2 
  321000     1.199473   -7.1968572    116.38117   0.03021318  0.031433397            1 
  322000    1.2005649   -7.1948258     117.0903  0.030302872  0.031423382            1 
  323000    1.1982982   -7.1898681    117.46979  0.030306962  0.031414926            8 
  324000    1.1772168   -7.2549457    117.36493  0.030186453  0.031406973            2 
  325000     1.194537   -7.2430328    117.83142  0.030213185  0.031398589            5 
  326000     1.227728   -7.1908359    118.27873  0.030234849  0.031390179            4 
  327000    1.1970594   -7.2428107    118.13428  0.030105575  0.031381677            2 
  328000    1.1951457   -7.2108744     118.8586  0.030197816  0.031372959            1 
  329000     1.213865   -7.1872096    119.72694  0.030325972  0.031365277            2 
  330000     1.213543   -7.2386719    119.20312  0.030101799  0.031356435            1 
  331000    1.1965785   -7.2417142     119.7742  0.030154633  0.031347564            1 
  332000    1.1771991   -7.2088265    120.14456  0.030156767  0.031339527            3 
  333000    1.1911002   -7.2069909     120.6318  0.030188138  0.031330908            2 
  334000    1.2145093     -7.21421    120.64276  0.030100488    0.0313216            3 
  335000    1.1923246   -7.2272143     121.0937  0.030122811  0.031311305            1 
  336000    1.1946279   -7.1960767    121.43998  0.030119044  0.031300525            5 
  337000    1.1865438   -7.2204106    121.71063  0.030096595  0.031290681            1 
  338000    1.1767637   -7.2121665    122.03113  0.030086569  0.031281056            2 
  339000    1.1816999   -7.1854039    122.78857  0.030184014  0.031272077            2 
  340000    1.2145959   -7.2190459    122.42415  0.030005918  0.031262525            2 
  341000    1.1972191   -7.1966137    122.96743  0.030050691  0.031253553            7 
  342000    1.1816409   -7.2270181    123.12198  0.030000483  0.031244062            3 
  343000    1.1964451   -7.2049405    123.74081  0.030063365  0.031234932            1 
  344000    1.2324846    -7.221322    123.73139   0.02997369   0.03122512            2 
  345000     1.188415   -7.2098197    124.35924  0.030038464  0.031214911            4 
  346000    1.1869677   -7.2120913     124.3611  0.029952097   0.03120498            1 
  347000    1.1889026   -7.1909264    124.96832  0.030011605  0.031194702            4 
  348000    1.1719959   -7.2657439    124.88694  0.029905875  0.031183503            1 
  349000    1.1682269   -7.2514438    124.99578  0.029846176  0.031171615            2 
  350000    1.2024139   -7.2252069    125.44703  0.029868339  0.031160405            6 
  351000    1.1889149   -7.1973234    125.92289  0.029896222  0.031149395            2 
  352000      1.20508   -7.2254074    126.06302  0.029844466  0.031138284            2 
  353000    1.1904417   -7.2267423    126.56528   0.02987849  0.031127288            1 
  354000    1.2182253   -7.1360081    127.84573  0.030095511  0.031116879            3 
  355000    1.2310624   -7.1789294    127.91509  0.030027017  0.031107127            1 
  356000    1.2032867   -7.2367374    127.25604  0.029788398  0.031095919            3 
  357000    1.1959898   -7.2550447    127.83244  0.029839505  0.031084382            2 
  358000    1.2259079   -7.1679691    128.67967  0.029953369  0.031074656            2 
  359000       1.2169   -7.2357655    128.62933  0.029858247  0.031064706            1 
  360000    1.1904437   -7.2085377    129.41651  0.029957525  0.031054202            5 
  361000    1.2115158   -7.2023043    129.81735   0.02996707  0.031044112            4 
  362000    1.1893995   -7.2577945    129.67853  0.029852331  0.031034328            3 
  363000    1.1810312   -7.2267156    130.23619  0.029898115  0.031024255            2 
  364000    1.1783963   -7.2264691    130.31241  0.029833428  0.031014318            1 
  365000    1.1802244   -7.2025454    130.88209  0.029881755  0.031004465            3 
  366000    1.2033927   -7.2113723    131.31353  0.029898344  0.030994884            3 
  367000    1.1893388   -7.2001236    131.81769  0.029931356  0.030984705            6 
  368000    1.2132133   -7.2229125    132.14623  0.029924419   0.03097473            2 
  369000    1.1836003   -7.2006913    131.98526   0.02980697  0.030964682            3 
  370000    1.1855201   -7.2267094    132.26004  0.029788297  0.030954002            3 
  371000    1.1994631   -7.2223766    132.92242  0.029856787  0.030943962            8 
  372000    1.1681822   -7.2398257    133.29811  0.029860688  0.030933956            4 
  373000    1.1644444   -7.1716866    133.39863   0.02980309  0.030923674            2 
  374000    1.2085797      -7.2042    134.16334  0.029893792  0.030913888            1 
  375000    1.1695376   -7.2161113    134.46732  0.029881627   0.03090376            2 
  376000    1.1953931   -7.2806547    133.79909  0.029654053  0.030892877            2 
  377000    1.1908645   -7.1842826    135.26407   0.02989922  0.030882217            1 
  378000    1.2018614   -7.2366506    135.21105  0.029808433  0.030872764            2 
  379000     1.227775   -7.2483973     135.0514  0.029694679  0.030862316            3 
  380000    1.2090645   -7.2272568    136.25009  0.029879405  0.030852407            2 
  381000     1.189547   -7.2789064    135.67614  0.029675447  0.030842489            2 
  382000    1.1701892   -7.2201673    136.40869  0.029757568   0.03083273            3 
  383000     1.191507   -7.2254877    136.97807  0.029803758  0.030824036            2 
  384000    1.2009545   -7.2691641     137.4062  0.029819053  0.030814576            3 
  385000    1.2361929   -7.2041283    137.69961  0.029805109  0.030805408            1 
  386000     1.206387   -7.1919515    138.11169  0.029816859  0.030795826            2 
  387000    1.1775281   -7.1997469    138.13773  0.029745421  0.030786431            2 
  388000    1.1918655   -7.2451145    138.66258  0.029781481  0.030776424            2 
  389000    1.1999599   -7.2199614    138.77249  0.029728469  0.030766281            1 
  390000    1.1988086   -7.2081356    138.87197  0.029673498  0.030756321            3 
  391000    1.2016679   -7.2140415    139.57016  0.029746411  0.030747247            2 
  392000    1.1965964   -7.3023127    139.58732  0.029674174  0.030738078            1 
  393000    1.1696641    -7.290934    139.74204  0.029631475  0.030728348            2 
  394000    1.1762322   -7.2056227    140.95676  0.029813189  0.030718623            1 
  395000    1.1990232   -7.2271358    141.20727  0.029790563   0.03070999            2 
  396000    1.1821693   -7.2543129    141.47482  0.029771638  0.030701021            3 
  397000    1.2024899   -7.2053774    141.68327    0.0297404  0.030691917            1 
  398000    1.1932051   -7.2649874     141.8276  0.029695897  0.030682329            1 
  399000    1.1849037   -7.2089891    142.69742  0.029803138  0.030673362            1 
  400000    1.1860173   -7.2486815    142.06095  0.029596031  0.030664302            2 
  401000    1.2085415   -7.2602444    142.40501  0.029593727  0.030654457            4 
  402000    1.1688171   -7.2902218    142.63356  0.029567488   0.03064483            8 
  403000    1.1812552   -7.2302031    142.71218  0.029510376  0.030633857            1 
  404000    1.1825709   -7.2468689    143.80581  0.029662914  0.030623775            2 
  405000    1.1788818   -7.2108446    143.79185  0.029586801  0.030613524            3 
  406000    1.1651118   -7.2592793    143.79721  0.029515026  0.030602078            2 
  407000    1.2098088   -7.2481727    143.91739  0.029467115  0.030589774            2 
  408000    1.1952326   -7.2509712    144.51357   0.02951666  0.030577592            2 
  409000    1.2070679   -7.2187366    145.09779  0.029563527  0.030565735            2 
  410000    1.1944515     -7.20462    145.09705  0.029491271  0.030554782            4 
  411000    1.1884452   -7.1827253    145.75651  0.029553225  0.030543986            2 
  412000    1.1667379   -7.2712682    145.20048   0.02936903  0.030532785            3 
  413000    1.2048632   -7.2673523     145.9944  0.029458111  0.030520243            3 
  414000    1.2232631   -7.2484296    146.02438  0.029392992  0.030508363            3 
  415000    1.2190131    -7.240583    146.94012  0.029506048  0.030496781            2 
  416000    1.1800257   -7.2953475    146.20136  0.029287131  0.030484224            2 
  417000     1.171477    -7.281922    146.83662  0.029343849  0.030471687            3 
  418000    1.1975909   -7.2025631    147.86309  0.029478287  0.030460114            6 
  419000    1.2121539   -7.2224278    147.43865  0.029323517  0.030448574            2 
  420000     1.181375   -7.1900518    148.66199  0.029496427  0.030437371            1 
  421000    1.1865192   -7.2270285    148.82097  0.029457833  0.030426894            3 
  422000    1.1801076   -7.2520983     149.1715  0.029457246  0.030416188            1 
  423000    1.1880621   -7.2814563    148.92805  0.029339647  0.030405532            2 
  424000    1.2035753   -7.2854948    149.63863  0.029410109  0.030394466            3 
  425000    1.1785381   -7.2376222    149.99914  0.029411595  0.030384228            2 
  426000    1.1952177    -7.238773    150.77955  0.029495217  0.030373668            1 
  427000    1.1748402   -7.2085693     151.1035  0.029489363  0.030363199            2 
  428000    1.1821179   -7.2758736    150.70729  0.029343319  0.030352775            2 
  429000    1.1898749   -7.2731577    151.13321  0.029357654  0.030342044            2 
  430000     1.185198   -7.2578656    151.88457  0.029434995  0.030331342            6 
  431000    1.1711861    -7.248628    151.86401  0.029362724   0.03032089            3 
  432000    1.1840862   -7.2674354    152.24062  0.029367403   0.03031012            1 
  433000    1.1892596   -7.2312814    152.60327  0.029369374  0.030299355            2 
  434000    1.1898079   -7.2515417    153.01038  0.029379874  0.030288338            5 
  435000    1.1990993   -7.2298471    153.29201  0.029366285  0.030277666            2 
  436000    1.1898171   -7.2510696    153.27668  0.029296002  0.030266881            1 
  437000    1.1646918   -7.2398477    153.85715  0.029339655   0.03025603            2 
  438000    1.1882112   -7.2621001    153.57749  0.029219462  0.030244385            2 
  439000    1.2013695    -7.232353     153.8771  0.029209777  0.030232714            2 
  440000    1.1948264   -7.2693767    153.87782  0.029143527  0.030221277            2 
  441000    1.1678116   -7.2747851    153.81394  0.029065371  0.030208899            1 
  442000    1.1972527    -7.302786    154.14042  0.029061165   0.03019585            2 
  443000    1.1797099   -7.2630831    155.31764  0.029217013  0.030183524            3 
  444000    1.1760161   -7.2101493    155.35238  0.029157729  0.030170847            3 
  445000    1.1668312   -7.2901959     154.7541  0.028980169  0.030158426            4 
  446000    1.1781819   -7.2830594    155.60083  0.029073398  0.030145562            2 
  447000    1.1947072   -7.3112146    155.89302  0.029062829  0.030133152            3 
  448000    1.1705028   -7.3266948    155.75113  0.028971563  0.030120814            2 
  449000    1.1736626   -7.2767499    157.23754  0.029182913  0.030109407            3 
  450000    1.1820918   -7.2272915    157.68867  0.029201605  0.030098895            2 
  451000    1.1804549   -7.2780698    157.31826  0.029068415  0.030088326            4 
  452000    1.1756863   -7.2744509    157.69807  0.029074128  0.030076939            4 
  453000     1.185853   -7.2981107    158.16326  0.029095523  0.030065214            1 
  454000    1.1722336    -7.270767    158.96528  0.029178649  0.030054303            3 
  455000     1.192168   -7.2613913    158.63177  0.029053439  0.030043084            2 
  456000    1.1724943   -7.2471291    159.23625  0.029100193  0.030031787            3 
  457000    1.1766674   -7.3099693    158.63456  0.028926797  0.030020823            3 
  458000    1.1955594   -7.2334564    159.59226  0.029037893  0.030009181            3 
  459000    1.1476784   -7.2343833    159.96597  0.029042479  0.029997293            1 
  460000    1.1862736    -7.238972    160.12325  0.029007835   0.02998505            1 
  461000    1.1706094   -7.2624573     160.6939  0.029048066  0.029973569            3 
  462000    1.1607855   -7.2568372    160.61373  0.028970731  0.029962273            2 
  463000    1.1776837   -7.2561039    160.87648  0.028955449  0.029950499            1 
  464000    1.1744508   -7.2534883    161.38978  0.028985233  0.029938673            2 
  465000    1.1724064   -7.2353997     162.1273  0.029055072  0.029927448            2 
  466000    1.1646787   -7.2171632     162.6587   0.02908775  0.029916218            3 
  467000    1.1914976   -7.2709444    162.15432   0.02893546  0.029904502            2 
  468000    1.1612705   -7.2520406    162.61136  0.028955015  0.029892909            4 
  469000    1.2012084   -7.2656509    162.92941  0.028949789  0.029881637            2 
  470000    1.1646677   -7.2724896    162.99526  0.028899868   0.02987016            1 
  471000    1.1961774   -7.2653972    163.02747   0.02884421  0.029858239            3 
  472000    1.1966765   -7.2791615    163.63338  0.028890075   0.02984629            4 
  473000    1.1697922   -7.2714693    163.57478  0.028818672  0.029834035            3 
  474000    1.1728014   -7.2485344    164.41785  0.028906092  0.029821619            2 
  475000    1.1720269   -7.2858063    163.89605  0.028753693  0.029809821            2 
  476000    1.2025024   -7.2669789    164.72429  0.028838286   0.02979748            3 
  477000     1.163373   -7.2631588    165.50108  0.028913536    0.0297855            1 
  478000    1.1656198     -7.27703    165.53296  0.028858605  0.029773636            1 
  479000    1.2094641   -7.2546291    165.83181   0.02885035  0.029761091            2 
  480000    1.1854953   -7.3015835    165.86123  0.028795352  0.029748574            3 
  481000    1.1605154   -7.2759299    166.37254  0.028824072  0.029735628            3 
  482000    1.1676732   -7.2482476     166.6927  0.028819624  0.029723699            1 
  483000    1.1814818   -7.2478516    166.89796   0.02879537  0.029711599            3 
  484000    1.1639362   -7.2720155    167.26024  0.028798251  0.029699762            1 
  485000     1.179307   -7.2554963    167.61028  0.028799018  0.029688728            2 
  486000    1.1681958   -7.2713299    167.52766  0.028725593  0.029677172            3 
  487000    1.1700113   -7.2767383    167.67557  0.028691919  0.029664947            4 
  488000    1.1802045   -7.3051207    168.11128  0.028707527  0.029652561            2 
  489000    1.1658317    -7.307235    168.45756  0.028707833  0.029640054            2 
  490000    1.1890973   -7.2583458    168.52725  0.028661096  0.029628438            3 
  491000    1.1556355   -7.2876992    168.99146  0.028681511  0.029616459            2 
  492000     1.166354   -7.3319089    169.14859   0.02864983  0.029604528            4 
  493000      1.17033   -7.2568069    169.62332  0.028671961  0.029591998            2 
  494000     1.156802   -7.2743493    170.19831  0.028710916  0.029580619            3 
  495000    1.1660832   -7.2369332    171.44709  0.028863146  0.029569664            2 
  496000      1.15984   -7.2863192    171.18125  0.028760291  0.029558941            1 
  497000    1.1811029   -7.3013911    171.44798  0.028747146  0.029548229            5 
  498000    1.1657799   -7.2569752    171.49087  0.028696597  0.029537772            1 
  499000    1.1609337   -7.2718425    171.91451  0.028709839  0.029526592            4 
  500000    1.1641691   -7.3174385    171.95886   0.02865981  0.029515711            2 
  501000    1.1738401   -7.3099786    172.23781  0.028649004  0.029504474            2 
  502000    1.1623663   -7.3007439    172.67789  0.028664988  0.029492442            1 
  503000     1.180278   -7.2757712    172.75251  0.028620362  0.029480897            1 
  504000    1.1730348   -7.2645578    173.06561  0.028615346  0.029469559            3 
  505000    1.1664322   -7.2753373    172.92445  0.028535387  0.029458089            1 
  506000    1.1511783   -7.3195355    173.03976  0.028497985  0.029445244            3 
  507000    1.1870788    -7.327148    173.09257  0.028450455  0.029433241            3 
  508000    1.1850454   -7.2801536    173.55987  0.028471107  0.029420616            6 
  509000     1.179406   -7.2524023    174.21199  0.028521937  0.029407485            3 
  510000    1.1707913   -7.3339647    173.91103  0.028416835  0.029394572            5 
  511000     1.175208    -7.297151    174.81034  0.028507884  0.029381986            2 
  512000    1.1587873    -7.280316    174.98795  0.028481111   0.02936914            6 
  513000    1.1741222   -7.2896332    174.84022  0.028401595  0.029356569            1 
  514000    1.1774548   -7.2685614    175.85705  0.028511195  0.029343922            2 
  515000    1.1638678   -7.3002698    175.32227  0.028369299  0.029331986            4 
  516000    1.1845862   -7.2663167    176.74246  0.028543679  0.029319946            2 
  517000    1.1682037   -7.2670883    177.23997  0.028568661  0.029308581            1 
  518000    1.1827039    -7.295884    176.50601  0.028395433  0.029296833            1 
  519000    1.1769135   -7.2768382    176.89881  0.028403792   0.02928505            2 
  520000    1.1877624   -7.2693897    177.24827  0.028405171  0.029273508            2 
  521000     1.163739   -7.2464928    178.25641  0.028511901  0.029262318            2 
  522000    1.1782183   -7.2837486    177.75465  0.028377179  0.029250474            2 
  523000    1.1474408   -7.3286801     177.7746  0.028326099   0.02923813            1 
  524000    1.1576867   -7.2946298    178.28735  0.028353587  0.029225732            4 
  525000     1.171633   -7.2888365    178.76038  0.028374663  0.029213944            3 
  526000    1.1661708   -7.3005435    179.02777  0.028363082  0.029201725            3 
  527000    1.1699213   -7.3094805     179.4139  0.028370319  0.029189964            1 
  528000    1.1564297   -7.3167171    179.59304  0.028344862  0.029178197            1 
  529000    1.1479231    -7.274712     180.0523  0.028363626  0.029167256            1 
  530000    1.1882045   -7.2857373    180.64985  0.028404064   0.02915633            3 
  531000     1.139547   -7.3108961    181.13284  0.028426371  0.029145415            1 
  532000    1.1537833   -7.2655091     181.9209  0.028496381  0.029134265            3 
  533000     1.163621   -7.2507279    182.03062  0.028460071  0.029123502            3 
  534000    1.1468366   -7.2913919    182.11319  0.028419661  0.029112123            3 
  535000    1.1699706   -7.2846101     181.6564   0.02829539  0.029100353            2 
  536000    1.1340236   -7.3034238    182.00965   0.02829752   0.02908902            2 
  537000    1.1607223   -7.2858008    182.58487  0.028334089  0.029078037            1 
  538000    1.1584673   -7.2880114    182.40097  0.028252938  0.029066667            2 
  539000    1.1561146   -7.2800873    183.80171  0.028417086  0.029055299            2 
  540000    1.1695952   -7.2924988    183.29931  0.028286931  0.029043634            1 
  541000    1.1640387   -7.3894471    182.72088  0.028145545  0.029032151            1 
  542000    1.1323891   -7.3492698    183.17758  0.028163834  0.029020396            3 
  543000     1.191584   -7.3333369    183.84406  0.028214251  0.029008225            2 
  544000    1.1427736    -7.329613    183.77391  0.028151641  0.028997119            3 
  545000    1.1645731   -7.3470123    184.00995  0.028136078  0.028985372            3 
  546000    1.1543824   -7.3014777     184.3623  0.028138324  0.028973834            1 
  547000    1.1754879    -7.313867    185.39378  0.028244024  0.028963018            2 
  548000    1.1864928   -7.3033929    185.70937  0.028240475  0.028952539            3 
  549000    1.1874989    -7.294126    185.95792  0.028226764  0.028941976            2 
  550000    1.1830823   -7.3401142    185.34369  0.028082378  0.028930647            2 
  551000    1.1741639   -7.2398315    186.76774  0.028246784  0.028919172            2 
  552000    1.1719825    -7.299953    185.87827  0.028061332  0.028907593            3 
  553000     1.182674   -7.2557666    186.68161  0.028131647  0.028895771            2 
  554000    1.1558472   -7.3029307    186.92079  0.028116845  0.028884311            4 
  555000    1.1900198   -7.3016726    187.99216  0.028227051  0.028873377            1 
  556000     1.170763   -7.2990301    187.96331  0.028171959  0.028862156            2 
  557000    1.1433895   -7.3324669    187.76489  0.028091695  0.028851077            3 
  558000    1.1625125   -7.3097466    188.16011  0.028100374  0.028840131            3 
  559000    1.1406182   -7.3710981    188.05098  0.028033837  0.028828748            4 
  560000    1.1783418   -7.3238582    188.57245  0.028061377  0.028817407            2 
  561000    1.1609921   -7.3214429    189.50968  0.028150576  0.028806624            5 
  562000    1.1730673   -7.3819559    188.84259   0.02800157  0.028795812            1 
  563000    1.1622023   -7.3153651     189.8952  0.028107637  0.028785205            3 
  564000    1.1594017   -7.3277567    189.94093  0.028064558  0.028774308            2 
  565000    1.1724248   -7.3279442     190.6028  0.028112507  0.028763373            3 
  566000    1.1599565    -7.320402    190.85422  0.028099855  0.028752976            3 
  567000    1.1470232   -7.3736256     190.4908  0.027996884   0.02874217            2 
  568000    1.1982383   -7.3362095     190.4878  0.027947154  0.028731242            2 
  569000    1.1654389   -7.3214235    191.56407  0.028055663  0.028719748            3 
  570000    1.1425106    -7.304224    191.44875  0.027989584  0.028708781            2 
  571000    1.1528438   -7.3301963    191.34311  0.027925147  0.028697946            3 
  572000    1.1639317   -7.2913641    192.84955  0.028095796  0.028687187            3 
  573000    1.1732998   -7.3238691      192.459  0.027989965  0.028676689            2 
  574000    1.1756102   -7.3605946    192.28057  0.027915298  0.028665859            2 
  575000    1.1474905   -7.2845851    193.67266  0.028068501  0.028655677            4 
  576000    1.1496933   -7.2980008    194.17319  0.028092186  0.028645766            3 
  577000    1.1439534   -7.3053845     194.5503  0.028097964  0.028635463            2 
  578000    1.1801523   -7.2703197    194.84418  0.028091722  0.028625305            2 
  579000    1.1502553   -7.3586454    193.88666  0.027905392  0.028615099            2 
  580000    1.1486843   -7.3280995    194.54833  0.027952346  0.028604839            2 
  581000    1.1702379   -7.2805388    195.75608  0.028077465  0.028594574            1 
  582000    1.1499193   -7.3318642    195.09001   0.02793385  0.028584641            3 
  583000    1.1714964    -7.353372    194.87544  0.027855265  0.028574286            1 
  584000    1.1373655   -7.2953868    196.12087  0.027985283  0.028564029            1 
  585000    1.1422578   -7.2953464    196.75593   0.02802791  0.028553833            2 
  586000    1.1499838   -7.3647816    196.61308  0.027959766  0.028543885            1 
  587000    1.1385403   -7.3512145    196.58942  0.027908776  0.028533372            2 
  588000    1.1561668   -7.3205511    197.18556    0.0279458  0.028523135            4 
  589000    1.1586523   -7.3092689    197.69513  0.027970449  0.028513077            4 
  590000     1.171533   -7.3485798    197.18816  0.027851435  0.028502661            1 
  591000    1.1374901   -7.3049031    198.25245  0.027954379  0.028492528            1 
  592000     1.161158   -7.2922498    198.30847  0.027915044  0.028482569            2 
  593000    1.1724278   -7.3263775    198.30644  0.027867684  0.028472838            1 
  594000    1.1718492    -7.293174     199.4516  0.027981426  0.028462939            2 
  595000    1.1432913   -7.2877586    198.87298  0.027853359  0.028452855            3 
  596000    1.1685279     -7.33124    198.69333  0.027781505  0.028442287            4 
  597000    1.1611322   -7.3403337    198.74871    0.0277427  0.028431629            4 
  598000    1.1604724   -7.3575957    198.53001  0.027665832  0.028420697            6 
  599000    1.1499368   -7.3127407    199.79885  0.027796167    0.0284099            2 
  600000    1.1626522   -7.3181272    199.23214  0.027671131  0.028398869            2 
  601000    1.1323219     -7.33371     199.2488  0.027627399  0.028387502            5 
  602000      1.13448    -7.299328    200.28145  0.027724454  0.028376404            1 
  603000    1.1318417    -7.298032    200.02098  0.027642479  0.028364826            3 
  604000    1.1918204   -7.2973861    200.89185  0.027716867  0.028353185            4 
  605000    1.1565356   -7.2901587     200.4017  0.027603541  0.028341999            2 
  606000    1.1662084   -7.3005465     201.2087  0.027668963  0.028330711            4 
  607000    1.1477712   -7.3136137    201.37412   0.02764609  0.028319394            3 
  608000    1.1575509   -7.3630182    201.42302  0.027607322  0.028308136            2 
  609000    1.1532374   -7.3402719    201.54852  0.027579163  0.028296838            1 
  610000     1.135315   -7.3562968    202.39252  0.027649251  0.028285948            2 
  611000     1.138531   -7.3109251    202.63886  0.027637597  0.028275365            3 
  612000    1.1531966   -7.3631387    202.78038  0.027611708  0.028264415            2 
  613000    1.1474998   -7.3266807    202.88377   0.02758072  0.028253277            2 
  614000    1.1677788   -7.3205018    203.24327  0.027584591   0.02824221            1 
  615000    1.1510603   -7.3218673    203.95977  0.027636825  0.028231376            3 
  616000    1.1426653   -7.3038439    203.94224  0.027589589  0.028220362            2 
  617000     1.162612   -7.2957706    204.43645  0.027611622  0.028209791            2 
  618000    1.1381571   -7.2941928    204.79163  0.027614836  0.028199202            4 
  619000     1.136935   -7.3410236    205.33772  0.027643743  0.028189349            2 
  620000    1.1295128   -7.3156962    205.30076  0.027594188  0.028178868            1 
  621000    1.1281139   -7.2875541    205.86908  0.027626017  0.028168718            2 
  622000    1.1335946   -7.3103707    206.05291  0.027606231  0.028158417            4 
  623000    1.1412358   -7.3933856    205.12532  0.027437844  0.028148074            2 
  624000     1.133337   -7.3281332     206.3912  0.027562927  0.028137521            3 
  625000    1.1681302   -7.3280803    207.66961  0.027689282  0.028127594            2 
  626000    1.1537116   -7.3063339    208.20741  0.027716641  0.028118222            2 
  627000    1.1463744   -7.3402085    207.62987  0.027595676  0.028108144            3 
  628000    1.1576394   -7.3240493    207.50835  0.027535609  0.028098252            1 
  629000     1.185053   -7.3310667    207.82529  0.027533822  0.028088162            2 
  630000    1.1427336   -7.3081462    208.44622  0.027572252  0.028077743            2 
  631000    1.1416681   -7.3649006    208.32301  0.027512284  0.028067314            2 
  632000    1.1524479    -7.322988    208.87056   0.02754095  0.028056907            2 
  633000    1.1643062    -7.373149    208.69367  0.027474153  0.028046646            4 
  634000    1.1221129   -7.3711397    208.62264  0.027421482  0.028036218            2 
  635000    1.1681197   -7.3330041    210.86705  0.027672841  0.028026112            3 
  636000    1.1534522   -7.2968255    209.38315    0.0274349  0.028015939            1 
  637000    1.1666888   -7.3216287    209.88711  0.027457759  0.028005598            4 
  638000    1.1202571   -7.3294986    210.35274  0.027475541  0.027995273            2 
  639000    1.1449274   -7.3610778    210.50768  0.027452749  0.027984886            5 
  640000    1.1604049    -7.364173    210.37753  0.027392907   0.02797487            5 
  641000    1.1698164   -7.3615051    211.06804  0.027439943  0.027964711            3 
  642000    1.1434342   -7.3003406    211.83796  0.027497139  0.027955317            1 
  643000    1.1726893   -7.3218627    211.96201  0.027470452  0.027945643            2 
  644000    1.1377668   -7.3286224    211.77685  0.027403837   0.02793603            2 
  645000    1.1693704   -7.3265902    212.81558  0.027495553  0.027926694            1 
  646000    1.1553475   -7.3260093    212.98829   0.02747527  0.027917003            3 
  647000     1.158274    -7.325936    213.15823  0.027454693  0.027907688            3 
  648000    1.1292966   -7.3603742    213.37427  0.027440107   0.02789789            4 
  649000    1.1366693   -7.3412327    213.72746  0.027443177  0.027888244            5 
  650000     1.167792   -7.3153754    213.73928  0.027402471  0.027878678            2 
  651000    1.1643673   -7.3192731    214.42068  0.027447603  0.027869159            1 
  652000    1.1193032   -7.3497568    214.13816  0.027369397  0.027859608            1 
  653000    1.1383674   -7.3799145    214.65711   0.02739371  0.027849898            3 
  654000    1.1745318   -7.3538298     214.5881  0.027343031  0.027840167            4 
  655000     1.176067   -7.3257044    215.07797  0.027363609  0.027830403            3 
  656000    1.1419109   -7.4017163    214.92955  0.027303043  0.027820371            2 
  657000    1.1539005   -7.3607755    215.06688  0.027278904  0.027810111            2 
  658000    1.1623349   -7.3756103    215.75465  0.027324551  0.027800122            4 
  659000    1.1508083   -7.3844391    215.03251  0.027191769  0.027790179            3 
  660000    1.1475022   -7.3868008    215.54445  0.027215208  0.027780596            1 
  661000    1.1590051   -7.2915989    216.85785  0.027339618  0.027770792            1 
  662000    1.1609814   -7.3450766    217.29463  0.027353302   0.02776135            3 
  663000    1.1342487   -7.3192094    217.81269  0.027377161  0.027751679            2 
  664000    1.1460805   -7.3570112    217.88915  0.027345526  0.027742162            4 
  665000    1.1565332   -7.3969431    217.44741  0.027249049  0.027732231            3 
  666000     1.166807   -7.3474086    217.88275  0.027262606  0.027722543           10 
  667000    1.1364359   -7.3266246    218.25684  0.027268471  0.027713347            2 
  668000    1.1070949    -7.318526    219.28315  0.027355682  0.027703971            1 
  669000    1.1260969   -7.3596946    219.69596  0.027366213  0.027695234            3 
  670000    1.1609906   -7.3644071    219.89483  0.027350104  0.027686273            4 
  671000    1.1590139   -7.3900296    219.68429  0.027283196  0.027677293            3 
  672000     1.126594    -7.336613    219.73387  0.027248744  0.027668004            2 
  673000    1.1356295   -7.3319363    220.41035  0.027292019  0.027659043            2 
  674000    1.1659398    -7.310037    220.84308  0.027305029  0.027650278            2 
  675000    1.1246023   -7.2903727    221.13781  0.027300964   0.02764158            4 
  676000    1.1166413   -7.3647977    221.25171   0.02727462  0.027632647            2 
  677000    1.1106912   -7.3305934    220.58207  0.027151904  0.027623523            1 
  678000    1.1198577   -7.3689848    220.58272  0.027111936  0.027614146            2 
  679000    1.1425894   -7.3397886    221.36611  0.027168153  0.027604767            1 
  680000    1.1324013   -7.3109463    222.01555  0.027207788   0.02759543            2 
  681000    1.1261092   -7.3530727    222.01592   0.02716788   0.02758618            1 
  682000    1.1385369   -7.3393911    222.37745   0.02717222  0.027576413            2 
  683000    1.1761656   -7.3395122    223.00361  0.027208834  0.027566952            3 
  684000    1.1470593    -7.336226    222.92351  0.027159297  0.027557979            3 
  685000    1.1759579   -7.3320866    223.16941  0.027149563  0.027548603            3 
  686000    1.1345774   -7.3518484    222.67958  0.027050483  0.027539281            2 
  687000    1.1328561   -7.3433231    223.75837  0.027141967  0.027529398            2 
  688000    1.1425202   -7.3349057    223.61159  0.027084737  0.027520052            2 
  689000    1.1393314   -7.3467573    223.69968  0.027056081   0.02751038            2 
  690000    1.1121891   -7.3746998    224.47321  0.027110292  0.027500485            3 
  691000     1.137109   -7.3684792     223.8012  0.026990014  0.027490573            2 
  692000    1.1346453   -7.3099511    224.85604   0.02707804  0.027480419            2 
  693000    1.1410729   -7.3944352    224.72909    0.0270237  0.027470625            2 
  694000     1.145334   -7.3869909    224.26482  0.026929013   0.02746092            5 
  695000    1.1215496   -7.3379659     225.7384  0.027066955  0.027451277            3 
  696000    1.1423286   -7.4384621    225.32834  0.026978967  0.027441262            2 
  697000    1.1187225   -7.4068874     225.3797  0.026946401  0.027431111            4 
  698000    1.1463541   -7.3900241    226.35146  0.027023814  0.027421264            2 
  699000    1.1526736   -7.3693802    226.39646  0.026990517  0.027411737            1 
  700000    1.1331981   -7.4070178    226.21139  0.026929927  0.027402237            3 
  701000    1.1692239   -7.3698389    227.62652  0.027059739   0.02739277            1 
  702000    1.1664888   -7.3791448    227.34937  0.026988291  0.027383149            2 
  703000    1.1265637   -7.3484744    228.50564  0.027086965  0.027373828            2 
  704000    1.1244412   -7.3709787    228.12231  0.027003114  0.027364804            4 
  705000    1.1153935   -7.3820497    227.96269  0.026945944  0.027355334            4 
  706000    1.1585965   -7.3388659    229.14487  0.027047318  0.027346079            3 
  707000    1.1336715   -7.3472292    228.78612  0.026966775  0.027337025            2 
  708000    1.1240866    -7.347573    228.99566   0.02695335  0.027327592            1 
  709000    1.1143376   -7.3517607    229.74081  0.027002917  0.027318711            6 
  710000    1.1346335   -7.3328148    229.56326  0.026944044  0.027309775            1 
  711000    1.1494692   -7.3910632    230.17303  0.026977618   0.02730092            3 
  712000    1.1269977   -7.3840404    230.35874  0.026961463  0.027291917            2 
  713000    1.1485463   -7.3277218    230.18436  0.026903267  0.027282918            3 
  714000    1.1455281   -7.3482149    230.76281  0.026933101  0.027274222            3 
  715000    1.1232178   -7.3997075    230.89608  0.026910965  0.027265338            2 
  716000    1.1292971   -7.3624045    230.81563  0.026864016  0.027256361            2 
  717000    1.1428002   -7.4126079    231.73578  0.026933493  0.027247119            5 
  718000    1.1268173   -7.4137833    231.42357  0.026859745  0.027237945            3 
  719000    1.1323287    -7.350094    232.28402  0.026922116  0.027229103            1 
  720000    1.1212264   -7.3523402    232.37997   0.02689583  0.027220228            3 
  721000    1.1287059   -7.3708531     231.8994  0.026802982  0.027211228            2 
  722000    1.1166038   -7.3134871    234.16445  0.027027291  0.027202312            6 
  723000    1.1548495   -7.3420836    232.93039   0.02684767  0.027193674            2 
  724000    1.1372397   -7.3616994    232.53106  0.026764624  0.027184585            1 
  725000    1.1572295   -7.3783824    233.35607  0.026822537  0.027175445            2 
  726000    1.1649915   -7.3744064    233.53474  0.026806099  0.027166567            3 
  727000    1.1269557   -7.3427345    234.23869  0.026849919  0.027157609            2 
  728000    1.1590836   -7.3172725    235.13454  0.026915584  0.027149379            4 
  729000    1.1239165   -7.3921857    234.66006  0.026824424  0.027140829            2 
  730000    1.1258544   -7.3926674    234.45838  0.026764656  0.027131962            2 
  731000    1.1569853   -7.3575001    234.93771  0.026782684  0.027123106            3 
  732000    1.1350079    -7.350358    235.87483  0.026852781  0.027114254            3 
  733000    1.1236387   -7.3995485    235.76013  0.026803107  0.027105486            2 
  734000    1.1521092   -7.3769377    235.63506   0.02675239  0.027096657            5 
  735000    1.1445976   -7.3483018     236.0631  0.026764524  0.027087633            3 
  736000    1.1208825   -7.3402509    237.00446  0.026834745  0.027079204            2 
  737000    1.1463828   -7.3383124    237.55597  0.026860693  0.027070678            2 
  738000    1.1412771    -7.428166    236.71723  0.026729587  0.027062247            2 
  739000    1.1567301   -7.3772936    237.33299  0.026762855  0.027053531            3 
  740000    1.1144763   -7.3996959    237.94375  0.026795467  0.027045344            2 
  741000    1.1281438   -7.3972297    238.23051  0.026791555  0.027036886            4 
  742000    1.1161247   -7.3637237    239.85912  0.026938356  0.027028868            3 
  743000    1.1400332   -7.3960972    238.54018   0.02675417  0.027020732            3 
  744000    1.1284811   -7.3765677    239.46642  0.026821955  0.027012824            3 
  745000    1.1399105   -7.4216332     239.3921  0.026777639  0.027004706            2 
  746000    1.1349274   -7.3735785    239.77895  0.026784959  0.026996422            2 
  747000    1.1446399   -7.4282734    240.01997   0.02677599  0.026988327            2 
  748000    1.1386407   -7.3817606    240.32109   0.02677374  0.026980497            3 
  749000    1.1329562    -7.391633    240.05461  0.026708346  0.026972541            1 
  750000    1.1196129   -7.3554821    240.78077  0.026753418  0.026964695            2 
  751000    1.1162306   -7.3714322    241.00803  0.026743013  0.026956758            1 
  752000    1.1596327   -7.3517157    241.38937  0.026749708  0.026948877            4 
  753000    1.1518398   -7.3785811     241.2861  0.026702756  0.026940925            1 
  754000     1.135737   -7.4060971    240.97609  0.026633078  0.026932828            4 
  755000    1.1437558    -7.388227     241.5991  0.026666567  0.026924384            1 
  756000    1.1126116   -7.3781699    241.68886  0.026641188  0.026915908            1 
  757000    1.1276801    -7.421319    241.88458  0.026627541   0.02690759            3 
  758000    1.1322877   -7.4136351    241.76657  0.026579439  0.026899438            2 
  759000    1.1484438   -7.4156797    241.95623  0.026565242  0.026890928            4 
  760000    1.1384179    -7.383133    243.11629  0.026657488  0.026882537            2 
  761000    1.0915357   -7.3996032     242.8623  0.026594645   0.02687416            2 
  762000    1.1155403   -7.3379748     243.7603   0.02665795  0.026865864            1 
  763000    1.1337174   -7.3518525    244.39694  0.026692545  0.026857637            1 
  764000    1.1273816   -7.3485714    244.28476  0.026645371  0.026849436            3 
  765000    1.1376136   -7.3897675    243.66986  0.026543557     0.026841            3 
  766000    1.1135299   -7.3897109    243.94315  0.026538637  0.026832339            4 
  767000    1.1565754   -7.3996565    243.92263  0.026501807  0.026823453            3 
  768000    1.1305141    -7.403701    243.87826  0.026462484  0.026814754            2 
  769000    1.1122568   -7.3924994    244.07799  0.026449717  0.026805772           10 
  770000    1.1190992   -7.3975469    245.18135  0.026534778  0.026797198            2 
  771000    1.1430641   -7.4177639    244.91741  0.026471834  0.026788418            4 
  772000    1.1425107   -7.4142774    245.64349  0.026515921  0.026779498            2 
  773000    1.1488439   -7.4284858    245.61675  0.026478735  0.026770677            2 
  774000    1.1169733   -7.4038037    245.84125  0.026468696  0.026762155            1 
  775000    1.1239431   -7.4101025     245.8468   0.02643514  0.026753373            2 
  776000    1.1278994   -7.3775276    246.27621  0.026447188  0.026744793            2 
  777000    1.1346339   -7.3725748    246.98639  0.026489317  0.026736365            2 
  778000    1.1149222    -7.394946    247.46782  0.026506835  0.026728068            5 
  779000    1.1194097   -7.3757264    247.99366  0.026529061  0.026719487            3 
  780000    1.1416961   -7.4454261    247.54411   0.02644702  0.026710881            2 
  781000    1.1050286   -7.3632017    248.54938  0.026520421  0.026702361            3 
  782000    1.1120554   -7.4108943    247.25793  0.026348884   0.02669383            3 
  783000    1.1214828   -7.4229847    248.05401  0.026399959  0.026685141            6 
  784000    1.1024624   -7.4133042     248.4266  0.026405889  0.026676573            3 
  785000    1.1270504   -7.3509086    250.02906  0.026542363  0.026668231            2 
  786000    1.1437629   -7.3787582    250.32343  0.026539804  0.026660025            3 
  787000     1.137204    -7.370624    250.64024  0.026539627  0.026652055            3 
  788000    1.1227175   -7.4180016    249.58522  0.026394376  0.026643908            2 
  789000    1.1238003    -7.390141    250.57588  0.026465555  0.026635833            2 
  790000    1.1084007   -7.4621071    249.83746  0.026354163  0.026627356            1 
  791000    1.1526412    -7.417299    250.16612   0.02635547  0.026618823            2 
  792000      1.12587   -7.4018467    251.45207  0.026457499  0.026610583            1 
  793000    1.1191888    -7.400207    251.43203   0.02642203  0.026602088            4 
  794000    1.1398082   -7.4321271     250.6166  0.026303169  0.026593818            2 
  795000    1.0896966   -7.4247531    250.97796  0.026307962  0.026585351            3 
  796000    1.1450465   -7.4095539    251.28506  0.026307062  0.026577068            4 
  797000    1.1048329   -7.4180855    252.30488  0.026380686  0.026568338            6 
  798000    1.1154444    -7.413672    250.93991  0.026205087  0.026559935            2 
  799000    1.1136689   -7.3922845    251.78988  0.026260939  0.026551669            2 
  800000    1.1133569   -7.3831971    252.79549  0.026332864  0.026543361            2 
  801000    1.1407654    -7.435687     252.6681  0.026286735  0.026534831            3 
  802000    1.1372864   -7.3852697    253.14706  0.026303726  0.026526142            2 
  803000    1.1368813   -7.3983778     253.5289  0.026310596  0.026517712            3 
  804000    1.1093786   -7.4113661    252.10557  0.026130345  0.026509089            2 
  805000    1.1225616   -7.4302293    253.14859  0.026205858  0.026500392            1 
  806000    1.1332531   -7.4025534     253.7086  0.026231245  0.026491962            2 
  807000    1.0972244   -7.4277061    253.42124  0.026169067  0.026483167            3 
  808000    1.0863962   -7.4207932    254.37245  0.026234783  0.026474525            2 
[...]
 4800000   0.49371659   -9.7537324    450.19665 0.0078159141 0.0059220403         3957 
 4801000   0.47633883   -9.7687271    450.67208 0.0078225384  0.005919803         3965 
 4802000   0.47925719   -9.7643552    450.42039 0.0078165415 0.0059175656         3956 
 4803000   0.48381396   -9.7705587    450.06845 0.0078088079 0.0059153291         3950 
 4804000   0.48869965   -9.7691253    450.30122 0.0078112202 0.0059130954         3956 
 4805000   0.49129534   -9.7676674    450.63316 0.0078153513 0.0059108624         3961 
 4806000   0.47994634   -9.7593702    450.07735 0.0078040877 0.0059086299         3955 
 4807000   0.48500765   -9.7549157    450.96153 0.0078177923  0.005906399         3955 
 4808000   0.47689853   -9.7587016    450.50645 0.0078082788 0.0059041686         3951 
 4809000   0.47977476   -9.7652937    450.08893 0.0077994201 0.0059019393         3945 
 4810000   0.48884106    -9.765733    450.55749 0.0078059164 0.0058997108         3963 
 4811000   0.48268746   -9.7789329    450.00681 0.0077947553 0.0058974842         3951 
 4812000    0.4776534   -9.7594341    450.21378 0.0077967197 0.0058952576         3958 
 4813000   0.49008177   -9.7569094    449.64435 0.0077852405  0.005893033         3954 
 4814000   0.47834657   -9.7705043    450.23884 0.0077939143 0.0058908086         3954 
 4815000   0.48350914   -9.7586384    450.43899 0.0077957597 0.0058885872         3957 
 4816000   0.48896968   -9.7490081    450.35127  0.007792623 0.0058863667         3958 
 4817000    0.4836942   -9.7657798     450.3625 0.0077911996 0.0058841467         3947 
 4818000   0.48071343   -9.7831001    450.51361 0.0077921961 0.0058819274         3962 
 4819000   0.48040615   -9.7589397     449.7088 0.0077766619 0.0058797094         3951 
 4820000   0.47761969   -9.7640957    450.32569 0.0077857139 0.0058774921         3955 
 4821000   0.48345798   -9.7671641    450.18787 0.0077817166 0.0058752765         3964 
 4822000   0.47679041   -9.7538415     450.4125 0.0077839848 0.0058730639         3947 
 4823000   0.47625841   -9.7625187    450.86804 0.0077902419  0.005870849         3946 
 4824000   0.47177248   -9.7629975    450.46064 0.0077815892 0.0058686369         3953 
 4825000   0.47720408   -9.7615093    449.59075 0.0077649525 0.0058664258         3954 
 4826000   0.47465478   -9.7699994    450.05718 0.0077713977  0.005864215         3951 
 4827000   0.47245312   -9.7782614    450.04307  0.007769544 0.0058620048         3952 
 4828000   0.47049766   -9.7549603    449.77949 0.0077633852 0.0058597964         3953 
 4829000    0.4775056   -9.7702336    449.84309 0.0077628752 0.0058575884         3955 
 4830000   0.48292804     -9.76412    450.48548 0.0077723513  0.005855382         3957 
 4831000   0.47971797   -9.7550129    450.21594 0.0077660929 0.0058531778         3953 
 4832000   0.47401765   -9.7757802    449.95673 0.0077600154 0.0058509753         3954 
 4833000   0.48697014   -9.7507474    450.21493 0.0077628617 0.0058487729         3953 
 4834000   0.48560225    -9.765639    449.89611 0.0077557598 0.0058465726         3946 
 4835000   0.48745905   -9.7703471    450.42203 0.0077632201 0.0058443719         3953 
 4836000   0.47941306   -9.7597839    450.36965 0.0077607121 0.0058421729         3942 
 4837000   0.48095099   -9.7774135    450.05172 0.0077536304 0.0058399767         3956 
 4838000   0.48530885   -9.7714208    449.78595 0.0077474498 0.0058377805         3951 
 4839000   0.47073281    -9.780288    450.48089 0.0077578165 0.0058355846         3947 
 4840000   0.47542615   -9.7867729    449.68301 0.0077424761 0.0058333913         3956 
 4841000   0.47577518   -9.7820683    449.50774 0.0077378596 0.0058311983         3958 
 4842000   0.47304401   -9.7833222    450.07187 0.0077459704 0.0058290052         3961 
 4843000   0.46302637   -9.7850522    449.63288 0.0077368174 0.0058268131         3955 
 4844000   0.48196549   -9.7603995    450.00756  0.007741666 0.0058246234         3953 
 4845000    0.4807009   -9.7784647    449.98809 0.0077397332 0.0058224357         3955 
 4846000    0.4763566   -9.7872341    449.83329 0.0077354741 0.0058202491         3954 
 4847000   0.46648946   -9.7835129    449.79257 0.0077331782  0.005818062         3959 
 4848000   0.46838273   -9.7758201    449.84948 0.0077325612 0.0058158759         3952 
 4849000   0.47149348   -9.7619505    450.13039 0.0077357942 0.0058136919         3957 
 4850000   0.48432488   -9.7736638    450.00974 0.0077321261 0.0058115078         3961 
 4851000    0.4772079   -9.7691289    450.24915  0.007734645 0.0058093263         3960 
 4852000   0.47316468   -9.7583647    449.36168 0.0077178085 0.0058071451         3954 
 4853000   0.48190909   -9.7731373    449.95529 0.0077264113 0.0058049655         3956 
 4854000   0.47675751   -9.7674355    450.25044 0.0077298868 0.0058027864         3951 
 4855000   0.48578516   -9.7628046    449.69103 0.0077186926 0.0058006087         3958 
 4856000   0.47566138   -9.7673005    449.92715 0.0077211551 0.0057984321         3959 
 4857000    0.4744078   -9.7727531    450.14826  0.007723359 0.0057962557         3954 
 4858000   0.47705182   -9.7830538    450.42498 0.0077265161 0.0057940819         3952 
 4859000   0.47372015   -9.7496337    449.61759 0.0077110789 0.0057919093         3949 
 4860000   0.46720285   -9.7675891    450.12748 0.0077182352 0.0057897365         3953 
 4861000   0.48846983   -9.7746037    450.11708 0.0077164692 0.0057875663         3955 
 4862000   0.48837508   -9.7801757    449.96882  0.007712341 0.0057853955         3952 
 4863000   0.45978441   -9.7598099     450.2872 0.0077162108 0.0057832265         3955 
 4864000   0.47089395   -9.7933428    449.94314 0.0077087297 0.0057810578         3950 
 4865000   0.45758704   -9.7886267    450.28486 0.0077129987 0.0057788917         3955 
 4866000   0.48847993   -9.7702012    449.88708 0.0077046014 0.0057767259         3959 
 4867000   0.47390214    -9.771341    449.95479 0.0077041777 0.0057745613         3952 
 4868000   0.47300437   -9.7723568    450.24749 0.0077076056 0.0057723978         3962 
 4869000   0.47416798   -9.7648082    450.13023 0.0077040157 0.0057702351         3958 
 4870000   0.47788905   -9.7682487    449.94519 0.0076992674 0.0057680737         3954 
 4871000   0.47191676    -9.773812    450.04914 0.0076994653 0.0057659148         3953 
 4872000   0.48003752   -9.7717375    449.79263 0.0076934974 0.0057637561         3957 
 4873000   0.47219733   -9.7836316    450.24558 0.0076996646 0.0057615993         3965 
 4874000   0.47595195   -9.7827382    449.77175 0.0076899835 0.0057594427         3955 
 4875000   0.47812709   -9.7800442    449.52534 0.0076841939 0.0057572879         3957 
 4876000   0.46661753   -9.7709294    450.22108 0.0076945085 0.0057551351         3953 
 4877000   0.47554323   -9.7714405    450.20737 0.0076926965 0.0057529808         3945 
 4878000   0.47814483   -9.7783612    449.97616 0.0076871695 0.0057508286         3953 
 4879000    0.4739409   -9.7724744    450.36515 0.0076922379  0.005748677         3961 
 4880000   0.47405355   -9.7754042        450.7 0.0076963797 0.0057465264         3956 
 4881000   0.46992344   -9.7778451    449.84496 0.0076802048 0.0057443785         3965 
 4882000   0.45967214   -9.7846349    450.03867 0.0076819382 0.0057422317         3954 
 4883000   0.48316469   -9.7820513    449.85694 0.0076772637 0.0057400847         3955 
 4884000   0.46717115   -9.7748288     450.0192 0.0076784603 0.0057379387         3946 
 4885000   0.48316351   -9.7560849    450.63091 0.0076873237 0.0057357952         3951 
 4886000   0.47194458   -9.7862402    449.49093 0.0076663073 0.0057336527         3951 
 4887000   0.46288277   -9.7709504    449.86272 0.0076710784 0.0057315106         3962 
 4888000   0.47550848   -9.8121172    449.24334 0.0076589494 0.0057293689         3957 
 4889000   0.47884026   -9.7853963    450.01317 0.0076705047 0.0057272291         3958 
 4890000   0.47299162   -9.7752277    449.48272 0.0076598965 0.0057250899         3951 
 4891000   0.46756392   -9.7886922    450.46909 0.0076751361 0.0057229539         3952 
 4892000   0.46893215   -9.7833263     449.7917 0.0076620282 0.0057208173         3955 
 4893000   0.46337061   -9.7862739    449.75095 0.0076597681 0.0057186817         3951 
 4894000   0.47447733   -9.7624993    450.13115  0.007664677 0.0057165471         3957 
 4895000   0.47211302   -9.7844089    450.03673 0.0076615037 0.0057144136         3953 
 4896000    0.4680443   -9.7839255    449.00404 0.0076423618 0.0057122801         3950 
 4897000   0.45250658   -9.7720305    450.35732 0.0076638302 0.0057101482         3947 
 4898000   0.46314367   -9.7706232    449.84169 0.0076534927 0.0057080175         3944 
 4899000   0.47310678   -9.7877988    449.70476 0.0076496013 0.0057058895         3954 
 4900000   0.47620687     -9.79326    449.93698 0.0076519895 0.0057037623         3955 
 4901000   0.46494536   -9.7912065    450.25799 0.0076558863 0.0057016366         3961 
 4902000    0.4629918   -9.7874063    449.81458 0.0076467867 0.0056995115         3946 
 4903000   0.46369608   -9.7814434    449.82633 0.0076454268 0.0056973876         3960 
 4904000   0.46238581   -9.7735225    449.86918 0.0076445959 0.0056952637         3954 
 4905000   0.47127208   -9.7853313    450.26336 0.0076497343 0.0056931424         3948 
 4906000   0.46945197   -9.7872182    449.54567 0.0076359843 0.0056910218         3957 
 4907000   0.46169902   -9.7815202    450.42627 0.0076493831 0.0056889024         3952 
 4908000   0.47483741   -9.7914782    449.47552 0.0076316816 0.0056867836         3955 
 4909000   0.46537146   -9.7788305    450.17927 0.0076420736  0.005684667         3955 
 4910000   0.46295865   -9.7784808    449.68201 0.0076320775 0.0056825501         3952 
 4911000   0.46393444   -9.7901599    450.16147 0.0076386593 0.0056804335         3959 
 4912000   0.47212308   -9.7790471    449.86488 0.0076320724 0.0056783184         3956 
 4913000   0.46811731   -9.8036087    450.86195 0.0076474311 0.0056762041         3955 
 4914000   0.46679693   -9.7886385    449.66663 0.0076256042 0.0056740913         3943 
 4915000   0.46557216   -9.7761648    449.97598 0.0076292978 0.0056719792         3959 
 4916000   0.48046171   -9.7870513    449.93031 0.0076269717 0.0056698691         3948 
 4917000   0.45418135   -9.7973959    450.22022 0.0076303339   0.00566776         3952 
 4918000   0.47689981   -9.7847744    449.36823 0.0076143457 0.0056656501         3951 
 4919000   0.46905705   -9.7843214    449.45437 0.0076142571 0.0056635423         3952 
 4920000   0.46533166   -9.7867056     449.9232 0.0076206504  0.005661435         3946 
 4921000   0.46096756   -9.7920992    449.11003 0.0076053315 0.0056593299         3953 
 4922000   0.45635338   -9.7947203    450.04483 0.0076196131 0.0056572253         3961 
 4923000   0.46575245   -9.7801172    449.46933 0.0076083237 0.0056551217         3955 
 4924000   0.46446019   -9.7989164    450.09537 0.0076173736 0.0056530188         3955 
 4925000   0.46288766    -9.784534    449.65701 0.0076084097 0.0056509176         3961 
 4926000    0.4729595   -9.7954899    449.91823 0.0076112842 0.0056488176         3961 
 4927000   0.47796333   -9.7884637    449.52214 0.0076030401 0.0056467179         3955 
 4928000   0.45590557   -9.7957108    449.92523 0.0076083136 0.0056446203         3949 
 4929000   0.46616499   -9.8038728    450.26041 0.0076124367 0.0056425239         3947 
 4930000   0.45428021   -9.7868273    449.74739 0.0076022209 0.0056404282         3959 
 4931000   0.45909962   -9.7859865    449.16322 0.0075908068 0.0056383348         3949 
 4932000   0.46102757   -9.8034044    449.55555 0.0075958967 0.0056362405         3949 
 4933000    0.4599038    -9.793211    450.07542 0.0076031391 0.0056341479         3953 
 4934000   0.45564472    -9.804205    449.62089 0.0075939213 0.0056320558         3950 
 4935000   0.46709204   -9.7910298    448.94311 0.0075809373 0.0056299662         3946 
 4936000   0.46016212   -9.8049832    449.87229 0.0075950886  0.005627876         3952 
 4937000   0.45419238    -9.777895    449.09897  0.007580497 0.0056257871         3954 
 4938000   0.45979629   -9.7846404     450.3249 0.0075996506 0.0056237007         3960 
 4939000   0.45836744    -9.792666    449.59419 0.0075857831 0.0056216146         3955 
 4940000   0.45391119    -9.800963    449.51461 0.0075829051 0.0056195292         3958 
 4941000   0.45463554   -9.7913977     449.9475 0.0075886714 0.0056174455         3957 
 4942000   0.46833251   -9.7898041    450.47501 0.0075960308 0.0056153628         3957 
 4943000   0.47336928   -9.7937623    449.52293  0.007578443 0.0056132817         3955 
 4944000   0.47236514   -9.7912413    450.36534 0.0075911095  0.005611201         3954 
 4945000   0.45438631   -9.7851601    449.97594 0.0075830121 0.0056091207         3957 
 4946000   0.45755591   -9.7810395    449.65285 0.0075760354 0.0056070421         3951 
 4947000   0.46371676   -9.7870422    449.73956 0.0075759646 0.0056049652         3947 
 4948000   0.45410977   -9.7819399    449.70231 0.0075738061 0.0056028893         3947 
 4949000   0.45167866    -9.796065    449.91249 0.0075758148 0.0056008147         3934 
 4950000   0.45649323   -9.8144464     449.5984 0.0075689966 0.0055987402         3954 
 4951000   0.46156185   -9.7823066     450.0072 0.0075743487 0.0055966668         3940 
 4952000   0.46732376   -9.7941949    449.66457 0.0075670532 0.0055945942         3939 
 4953000   0.45359242   -9.7945912    450.09504 0.0075727679 0.0055925231         3946 
 4954000   0.46150005   -9.7988289    449.39202 0.0075594135 0.0055904528         3943 
 4955000   0.44847378   -9.8014564    449.57147 0.0075609059 0.0055883838         3955 
 4956000   0.45539714   -9.7968307    449.91143 0.0075650967 0.0055863142         3947 
 4957000   0.46285915   -9.8023136    449.65367 0.0075592372  0.005584247         3950 
 4958000   0.46027086   -9.7974341    449.38608  0.007553215 0.0055821809         3937 
 4959000   0.46379062   -9.8067945    449.65195 0.0075561597 0.0055801167         3950 
 4960000   0.46722286   -9.7952535     450.3524 0.0075664045 0.0055780519         3949 
 4961000   0.46082191    -9.794498    449.64737 0.0075530365 0.0055759898         3947 
 4962000   0.46434314   -9.7906832    449.36798 0.0075468223 0.0055739272         3958 
 4963000   0.45249668   -9.7899406    449.26543 0.0075435797 0.0055718657         3947 
 4964000   0.46659733    -9.797037    450.04678  0.007555177 0.0055698055         3948 
 4965000   0.46122386   -9.7839456    449.40833 0.0075429394  0.005567747         3944 
 4966000   0.46551618   -9.8055225    449.62141 0.0075449961 0.0055656898         3942 
 4967000   0.44969711   -9.7906885    449.09356 0.0075346211 0.0055636327         3943 
 4968000   0.45244139   -9.7934462    449.68867  0.007543087 0.0055615766         3946 
 4969000   0.44778879   -9.8084256    449.68138 0.0075414467 0.0055595222         3949 
 4970000   0.45410765   -9.7925357    449.59154 0.0075384228 0.0055574675         3953 
 4971000   0.45191474   -9.8018997     448.8769 0.0075249263 0.0055554141         3949 
 4972000   0.47157003   -9.7981547    449.73848 0.0075378533 0.0055533617         3943 
 4973000   0.45378649   -9.8089403    449.26836 0.0075284596 0.0055513117         3955 
 4974000    0.4558402   -9.7924397    450.02649 0.0075396476 0.0055492627         3954 
 4975000   0.45589367   -9.7995401    449.60645 0.0075310964 0.0055472128         3954 
 4976000   0.45714992   -9.7994013    449.03982 0.0075200935 0.0055451656         3939 
 4977000   0.45574215   -9.8090423    450.25682 0.0075389596 0.0055431193         3946 
 4978000   0.45745769   -9.8103481    449.26553 0.0075208506 0.0055410741         3948 
 4979000   0.46098094   -9.7810098    448.69376 0.0075097704 0.0055390285         3941 
 4980000   0.45457073   -9.7963762    449.44277 0.0075207961 0.0055369843         3944 
 4981000   0.45191996   -9.7926619    449.59233 0.0075217883 0.0055349411         3944 
 4982000   0.46447122   -9.8092515    449.17018 0.0075132173 0.0055328998         3952 
 4983000   0.45853862   -9.8310361    449.43473 0.0075161337 0.0055308598         3963 
 4984000   0.44824808   -9.7817674    448.81437 0.0075042532 0.0055288188         3956 
 4985000   0.45792195   -9.8098139    450.48662 0.0075307025 0.0055267807         3954 
 4986000   0.46241071   -9.8093755    449.62673 0.0075148203 0.0055247446         3965 
 4987000   0.45541039   -9.7952284    449.76926 0.0075156952 0.0055227083         3952 
 4988000    0.4600898   -9.8080801    449.62375 0.0075117573 0.0055206734         3944 
 4989000   0.46732199   -9.8163475    449.54326 0.0075089072 0.0055186372         3951 
 4990000   0.45262239   -9.8033526    449.06737 0.0074994551  0.005516604         3956 
 4991000   0.45465767   -9.8150778    449.53287 0.0075057249  0.005514572         3960 
 4992000   0.43912812    -9.815934    449.57975 0.0075050039   0.00551254         3950 
 4993000   0.44811834   -9.8081169    449.83758 0.0075078039 0.0055105088         3954 
 4994000   0.45741238   -9.8034923    448.71659 0.0074875949 0.0055084812         3950 
 4995000   0.45694182   -9.8087264    448.99233 0.0074906961 0.0055064521         3949 
 4996000   0.44692658   -9.8102698    449.24019 0.0074933311 0.0055044261         3938 
 4997000   0.45765274    -9.802825    448.74206 0.0074835245 0.0055024005         3947 
 4998000   0.45789261   -9.7984434     449.2162 0.0074899327 0.0055003766         3944 
 4999000    0.4527907   -9.8019899    449.24202 0.0074888648 0.0054983517         3956 
 5000000    0.4508453   -9.7914244     449.1516   0.00748586 0.0054963281         3960 
 5001000   0.44041167   -9.7953813    449.49228 0.0074900401 0.0054943051         3953 
 5002000   0.45507562   -9.8119621    448.86137 0.0074780317 0.0054922831         3948 
 5003000   0.45646762   -9.8065718    449.68954 0.0074903315 0.0054902632         3960 
 5004000   0.45231443   -9.7946346    448.69377 0.0074722516 0.0054882442         3963 
 5005000   0.45857346   -9.8024843    449.66396 0.0074869124 0.0054862265         3948 
 5006000    0.4494533   -9.8036145    449.70254 0.0074860591 0.0054842089         3955 
 5007000   0.44865956   -9.7991036    450.15724 0.0074921316 0.0054821919         3950 
 5008000   0.46349978   -9.7975972    449.43272 0.0074785796 0.0054801767         3953 
 5009000   0.45658635   -9.8131768    449.39005 0.0074763767 0.0054781641         3961 
 5010000    0.4535816   -9.8000732      449.116  0.007470326 0.0054761497         3962 
 5011000   0.45625124   -9.8194236     448.6432 0.0074609726  0.005474138         3960 
 5012000   0.45971067    -9.809189    449.77411 0.0074782872 0.0054721267         3959 
Loop time of 12951.3 on 48 procs for 5000000 steps with 4000 atoms

Performance: 66711.591 tau/day, 386.062 timesteps/s
99.4% CPU use with 48 MPI tasks x no OpenMP threads

MPI task timing breakdown:
Section |  min time  |  avg time  |  max time  |%varavg| %total
---------------------------------------------------------------
Pair    | 957.2      | 1042.5     | 1144       | 146.1 |  8.05
Neigh   | 90.515     | 93.693     | 100.97     |  21.2 |  0.72
Comm    | 797.86     | 914.23     | 999.62     | 163.9 |  7.06
Output  | 17.92      | 17.927     | 18.009     |   0.3 |  0.14
Modify  | 10730      | 10764      | 10800      |  17.5 | 83.11
Other   |            | 118.9      |            |       |  0.92

Nlocal:        83.3333 ave          90 max          74 min
Histogram: 1 0 0 5 6 12 13 5 5 1
Nghost:        2408.75 ave        2420 max        2396 min
Histogram: 3 1 7 2 4 8 7 13 2 1
Neighs:        16446.7 ave       18686 max       14391 min
Histogram: 6 4 6 5 5 3 5 6 5 3
FullNghs:      32890.9 ave       35924 max       28704 min
Histogram: 1 0 1 4 9 11 9 10 2 1

Total # of neighbors = 1578762
Ave neighs/atom = 394.69050
Neighbor list builds = 266094
Dangerous builds = 1

#clear
#
#next RN
#
#jump SELF
Total wall time: 3:35:55
