
units lj                  # Use reduced LJ style units
atom_style atomic         # Uncharged point particles
atom_modify map hash      # Needed for indexing of clusters etc
                          # Used to be able to find where atoms are in relation to each other.

# Define a lattice with which to populate the simulation cell. With units
# set to 'lj' the second argument to the lattice command is the reduced
# density rho* and the spacings are multiples of that required to acheive
# that density. Also define a simulation cell called 'box' in lattice units
# and fill it with atoms. Here we're creating a box which is ten lattice
# constants in each direction.
lattice fcc 1.0 spacing 1 1 1                 # All equal sizes - gives the right reduced density.
Lattice spacing in x,y,z = 1.5874011 1.5874011 1.5874011

region box block 0 10 0 10 0 10 units lattice # Defines a region, "box", in lattice units
create_box 1 box                              # Creates a simulation box as specified above,
Created orthogonal box = (0.0000000 0.0000000 0.0000000) to (15.874011 15.874011 15.874011)
  2 by 4 by 4 MPI processor grid
                                              # with one type of atom
create_atoms 1 box                            # Creates particles on lattice points
Created 4000 atoms
  using lattice units in orthogonal box = (0.0000000 0.0000000 0.0000000) to (15.874011 15.874011 15.874011)
  create_atoms CPU = 0.001 seconds


# Set the mass of the first (and only) atom type.
mass 1 1.0

# Lennard-Jones interactions between particles, 3.5 sigma cut-off. Apply
# long range tail corrections to energy and pressure and set all coefficients
# to unity since we work in reduced units here. Note that this doesn't shift
# the potential such that it goes to zero at the cutoff. That would require
# pair_modify('shift', 'yes').
pair_style lj/cut  3.5      # non-GPU version
pair_modify tail  yes
pair_coeff 1  1  1.0  1.0   # Intearaction between 1 and 1 set with epsilon = 1 and sigma = 1

write_data data.*
System init for write_data ...
Neighbor list info ...
  update every 1 steps, delay 10 steps, check yes
  max neighbors/atom: 2000, page size: 100000
  master list distance cutoff = 3.8
  ghost atom cutoff = 3.8
  binsize = 1.9, bins = 9 9 9
  1 neighbor lists, perpetual/occasional/extra = 1 0 0
  (1) pair lj/cut, perpetual
      attributes: half, newton on
      pair build: half/bin/atomonly/newton
      stencil: half/bin/3d
      bin: standard

#############################
#   M E L T   S Y S T E M   #
#############################

velocity all create 2.4 6583654 mom yes dist gaussian # Assign velocities
                                                    # Temperature 2.4, random number seed, zero linear momentum
						                                                        # Gaussian distribution

timestep 0.002   # simulation timestep
thermo 100       # output thermodynamic data every 100 steps

# Define a fix  in this case with index 1 applied to all
# particles in the simulation. This fix is for simulations
# in the anisotropic NPT ensemble. Note that we use the MTK
# correction.
fix 1 all npt temp 2.4 2.4 0.1 iso 5.68 5.68 0.5 mtk yes tchain 5 pchain 5 # Use NPT ensemble
                                                                         # Set temperature and pressure and damping
                                                                         # Numbers of thermostats in chain and in barostat
run 1000         # run for 10000 steps
Per MPI rank memory allocation (min/avg/max) = 3.660 | 3.660 | 3.660 Mbytes
Step Temp E_pair E_mol TotEng Press Volume 
       0          2.4   -8.3859253            0   -4.7868253   -2.2405722         4000 
     100    1.2691967   -6.5422289            0   -4.6389098    5.3378653    4090.7551 
     200    1.4787625   -6.3158233            0   -4.0982341    6.0374862    4137.2558 
     300    1.5708342   -6.0123056            0   -3.6566434    5.8269752    4273.6084 
     400    1.6935755   -5.7191311            0    -3.179403    5.9540602    4395.1747 
     500    1.7875886   -5.4095267            0   -2.7288141    6.0322401    4536.9038 
     600    1.8873111   -5.1521313            0   -2.3218724    5.7297832     4702.884 
     700    2.0258918   -4.9144312            0   -1.8763532    5.9082203    4824.8495 
     800    2.1522544   -4.7292823            0   -1.5017078    5.7781683    4963.9277 
     900     2.239714   -4.5446635            0   -1.1859323    5.7477122    5090.6319 
    1000    2.3765823   -4.4738755            0  -0.90989327    5.6796077     5154.488 
Loop time of 0.256357 on 32 procs for 1000 steps with 4000 atoms

Performance: 674060.672 tau/day, 3900.814 timesteps/s
99.3% CPU use with 32 MPI tasks x no OpenMP threads

MPI task timing breakdown:
Section |  min time  |  avg time  |  max time  |%varavg| %total
---------------------------------------------------------------
Pair    | 0.13479    | 0.13891    | 0.1441     |   0.6 | 54.19
Neigh   | 0.025588   | 0.026384   | 0.027201   |   0.2 | 10.29
Comm    | 0.062088   | 0.068966   | 0.074245   |   1.1 | 26.90
Output  | 0.00020218 | 0.0002056  | 0.00025327 |   0.0 |  0.08
Modify  | 0.0179     | 0.019955   | 0.021554   |   0.8 |  7.78
Other   |            | 0.001938   |            |       |  0.76

Nlocal:        125.000 ave         138 max         116 min
Histogram: 1 2 6 7 6 8 0 1 0 1
Nghost:        1666.91 ave        1703 max        1646 min
Histogram: 3 5 7 4 5 4 1 0 2 1
Neighs:        11088.0 ave       12468 max       10095 min
Histogram: 1 2 5 8 9 2 2 1 1 1

Total # of neighbors = 354817
Ave neighs/atom = 88.704250
Neighbor list builds = 86
Dangerous builds = 20

# Equilibrate just above the melting temperature to avoid step fn in T

fix 1 all npt temp 1.25 1.25 0.1 iso 5.68 5.68 0.5 mtk yes tchain 5 pchain 5
run 1000
Per MPI rank memory allocation (min/avg/max) = 3.661 | 3.661 | 3.661 Mbytes
Step Temp E_pair E_mol TotEng Press Volume 
    1000    2.3765823   -4.4738755            0  -0.90989327    5.6796077     5154.488 
    1100    1.9625951   -4.6989107            0   -1.7557541    5.6812496    4983.8841 
    1200    1.7289901   -4.9599136            0   -2.3670769    5.8142104    4790.1519 
    1300    1.5792657   -5.2249024            0   -2.8565961    5.6289859    4660.4039 
    1400    1.4517319   -5.4215948            0   -3.2445414    5.5197346    4561.4045 
    1500     1.364265   -5.5680033            0   -3.5221174    5.5958139    4483.3542 
    1600    1.3084699   -5.6759595            0   -3.7137453    5.6057769    4426.4503 
    1700    1.2550401   -5.7394736            0   -3.8573841    5.7381181    4381.4433 
    1800    1.2507956   -5.8140506            0   -3.9383263    5.7576039    4349.7766 
    1900    1.2205858   -5.8218536            0   -3.9914327    5.7234503    4347.2659 
    2000    1.2599896   -5.8219529            0    -3.932441    5.7139167    4350.4536 
Loop time of 0.249683 on 32 procs for 1000 steps with 4000 atoms

Performance: 692076.565 tau/day, 4005.073 timesteps/s
99.7% CPU use with 32 MPI tasks x no OpenMP threads

MPI task timing breakdown:
Section |  min time  |  avg time  |  max time  |%varavg| %total
---------------------------------------------------------------
Pair    | 0.13429    | 0.13812    | 0.14452    |   0.6 | 55.32
Neigh   | 0.022649   | 0.023167   | 0.024233   |   0.3 |  9.28
Comm    | 0.057505   | 0.066948   | 0.071049   |   1.2 | 26.81
Output  | 0.00019712 | 0.00020036 | 0.00024321 |   0.0 |  0.08
Modify  | 0.017096   | 0.019007   | 0.021013   |   0.9 |  7.61
Other   |            | 0.002241   |            |       |  0.90

Nlocal:        125.000 ave         130 max         115 min
Histogram: 1 0 0 2 4 3 6 7 4 5
Nghost:        1853.16 ave        1868 max        1832 min
Histogram: 1 0 2 6 2 5 3 6 3 4
Neighs:        13129.4 ave       13744 max       12058 min
Histogram: 1 0 2 3 3 2 5 8 5 3

Total # of neighbors = 420140
Ave neighs/atom = 105.03500
Neighbor list builds = 75
Dangerous builds = 9


# Small amount of linear quench

fix 1 all npt temp 1.25 ${temp} 0.1 iso 5.68 5.68 0.5 mtk yes tchain 5 pchain 5
fix 1 all npt temp 1.25 0.7 0.1 iso 5.68 5.68 0.5 mtk yes tchain 5 pchain 5
run 2000
Per MPI rank memory allocation (min/avg/max) = 3.661 | 3.662 | 3.662 Mbytes
Step Temp E_pair E_mol TotEng Press Volume 
    2000    1.2599896   -5.8219529            0    -3.932441    5.7139167    4350.4536 
    2100    1.2441824   -5.8591836            0   -3.9933766    5.6889077    4334.9803 
    2200    1.1922606   -5.8669408            0    -4.078997    5.6438222    4328.5428 
    2300    1.2035726   -5.9304626            0   -4.1255551    5.6849008    4301.3528 
    2400    1.1765778   -5.9627749            0   -4.1983493    5.7674407    4280.4453 
    2500    1.1541851   -6.0365361            0   -4.3056913    5.4943677    4271.3638 
    2600    1.1133011   -6.0603065            0   -4.3907724    5.5456344    4253.3768 
    2700    1.1049281   -6.1022625            0   -4.4452848    5.7587335    4220.2103 
    2800     1.065434   -6.1343651            0   -4.5366136    5.7243413    4208.4339 
    2900    1.0282912   -6.1746139            0   -4.6325628    5.6739889    4193.7252 
    3000    1.0088271   -6.2132657            0   -4.7004034    5.7911035    4167.9468 
    3100      0.98445   -6.2578848            0    -4.781579    5.9351939    4138.7256 
    3200   0.95721358   -6.3039582            0   -4.8684968     5.882222    4125.3431 
    3300   0.91465056   -6.3419072            0   -4.9702744    5.7640045    4117.7726 
    3400   0.88784924   -6.3729259            0    -5.041485    5.8328715    4096.3971 
    3500   0.87913004    -6.443727            0   -5.1253616    5.7466614    4076.5875 
    3600   0.84682916   -6.4851361            0   -5.2152099    5.7806786    4059.8405 
    3700   0.82877287   -6.5350203            0   -5.2921718    5.8867142     4033.069 
    3800   0.78346685   -6.5679107            0   -5.3930042    5.8007983    4022.1656 
    3900    0.7623083   -6.6141594            0   -5.4709828    5.7669225    4008.3389 
    4000   0.72604824   -6.6471212            0   -5.5583211    5.7956028    3994.6268 
Loop time of 0.526424 on 32 procs for 2000 steps with 4000 atoms

Performance: 656505.349 tau/day, 3799.221 timesteps/s
99.7% CPU use with 32 MPI tasks x no OpenMP threads

MPI task timing breakdown:
Section |  min time  |  avg time  |  max time  |%varavg| %total
---------------------------------------------------------------
Pair    | 0.29008    | 0.30126    | 0.31176    |   0.8 | 57.23
Neigh   | 0.036711   | 0.03802    | 0.039536   |   0.3 |  7.22
Comm    | 0.13074    | 0.1415     | 0.15738    |   1.4 | 26.88
Output  | 0.0004086  | 0.0004137  | 0.00050705 |   0.0 |  0.08
Modify  | 0.035776   | 0.039635   | 0.044502   |   1.3 |  7.53
Other   |            | 0.005591   |            |       |  1.06

Nlocal:        125.000 ave         133 max         119 min
Histogram: 1 1 13 1 2 8 2 1 1 2
Nghost:        1956.75 ave        1970 max        1940 min
Histogram: 1 2 1 3 4 7 5 4 2 3
Neighs:        14356.7 ave       15355 max       13643 min
Histogram: 2 2 6 6 8 4 0 1 1 2

Total # of neighbors = 459415
Ave neighs/atom = 114.85375
Neighbor list builds = 118
Dangerous builds = 0

#############################
# F R E E Z E  S Y S T E M  #
#############################

# Define solid atoms. This closely follows ten Wolde  Ruiz-Montero and Frenkel  Faraday Discuss  1996  104  93-110
# Compute components of the per-atom q6 vector
compute q6 all orientorder/atom degrees 1 6 components 6 nnn NULL cutoff 1.3 # compute the Q6 parameter.
                                                                             # Use all neighbours within 1.3 unit cell.

# get number of connections
compute coord_number all coord/atom orientorder q6 0.5

# An atom is solid if it has 8 or more connections (of a possible 14)
variable is_solid atom c_coord_number>=8
group solid dynamic all var is_solid    # Must be dynamic to update
dynamic group solid defined

# do clustering
compute cluster solid cluster/atom 1.3 # Create a cluster where all atoms within are solid and max 1.3 units from another member

# define chunks one chunk per cluster
compute clus_chunks solid chunk/atom c_cluster nchunk every compress yes  # Says which atoms are in which chunk

# count the size of each chunk
compute size_chunks solid property/chunk clus_chunks count


# Find the maximum entry in the vector of chunk sizes
variable max_n equal max(c_size_chunks)


# Thermo style which includes this variable
thermo_style custom step temp pe vol v_max_n

thermo ${N}  # Print the thermo information every 100 steps
thermo 100  

# Reset the npt fix at a lower temperature (below freezing)
fix 1  all npt temp  ${temp} ${temp}  0.1  iso  5.68  5.68  0.5  mtk yes tchain  5  pchain  5
fix 1  all npt temp  0.7 ${temp}  0.1  iso  5.68  5.68  0.5  mtk yes tchain  5  pchain  5
fix 1  all npt temp  0.7 0.7  0.1  iso  5.68  5.68  0.5  mtk yes tchain  5  pchain  5

dump dmp2 all dcd ${N} traj_${rand}.dcd
dump dmp2 all dcd 100 traj_${rand}.dcd
dump dmp2 all dcd 100 traj_462431.dcd


# fix rnuntil all halt ${N} v_max_n >= 3980 error soft message no   # Stop when solidified


run 100000 # 5000000  # Run for this many steps
Neighbor list info ...
  update every 1 steps, delay 10 steps, check yes
  max neighbors/atom: 2000, page size: 100000
  master list distance cutoff = 3.8
  ghost atom cutoff = 3.8
  binsize = 1.9, bins = 9 9 9
  4 neighbor lists, perpetual/occasional/extra = 1 3 0
  (1) pair lj/cut, perpetual
      attributes: half, newton on
      pair build: half/bin/atomonly/newton
      stencil: half/bin/3d
      bin: standard
  (2) compute orientorder/atom, occasional
      attributes: full, newton on
      pair build: full/bin/atomonly
      stencil: full/bin/3d
      bin: standard
  (3) compute coord/atom, occasional
      attributes: full, newton on
      pair build: full/bin/atomonly
      stencil: full/bin/3d
      bin: standard
  (4) compute cluster/atom, occasional
      attributes: full, newton on
      pair build: full/bin/atomonly
      stencil: full/bin/3d
      bin: standard
Per MPI rank memory allocation (min/avg/max) = 9.451 | 9.455 | 9.458 Mbytes
Step Temp PotEng Volume v_max_n 
    4000   0.72604824   -6.6471212    3994.6268           12 
    4100   0.71853187   -6.7058899    3993.9281           10 
    4200   0.70398846   -6.7337687    3980.1239           13 
    4300   0.70131006   -6.7462429    3958.5235           10 
    4400   0.69903832   -6.7575332    3954.9679            8 
    4500   0.72003023   -6.7543162    3965.0805           10 
    4600   0.70585431   -6.7775162     3962.474           16 
    4700   0.69767031   -6.7832468    3957.2753           23 
    4800   0.70073463   -6.7883939    3954.2067           24 
    4900   0.71771157   -6.7845972    3945.4997           29 
    5000   0.70476573   -6.7916603    3946.8516           25 
    5100   0.70781921   -6.7887932    3956.1767           39 
    5200   0.68739347   -6.7739218    3954.2594           38 
    5300   0.72302902   -6.8166027    3949.4401           43 
    5400    0.7028544   -6.8304576    3944.6618           26 
    5500   0.70017075   -6.8225921     3939.931           61 
    5600    0.7044827   -6.8017059    3927.9471           40 
    5700   0.68997779   -6.8338022     3933.455           42 
    5800   0.69141937   -6.8157821    3949.8862           47 
    5900   0.70141531   -6.8115866    3950.0503           59 
    6000   0.70659406   -6.8356044    3938.8756           64 
    6100   0.69302751   -6.8223093    3934.3762           60 
    6200   0.68641864    -6.799227    3947.4756           40 
    6300   0.70182874   -6.8281952    3958.2215           60 
    6400   0.67914737   -6.8070695    3941.5264           50 
    6500   0.69107934   -6.8203722    3936.6805           49 
    6600   0.70416669   -6.8042229     3936.714           43 
    6700    0.7094895   -6.8161817    3933.5866           58 
    6800    0.6993005   -6.8378453    3936.1317           49 
    6900   0.69874867   -6.8283649    3939.4399           31 
    7000   0.70228198   -6.8280179    3943.6908           36 
    7100   0.70459476   -6.8204441    3939.5288           51 
    7200   0.70844525   -6.8412549    3937.9237           64 
    7300   0.69585577   -6.8381803    3925.8557           63 
    7400   0.70445358   -6.8271684    3927.1386           40 
    7500   0.70242279   -6.8355939    3933.2364           63 
    7600   0.69492275   -6.8569728    3930.4887           78 
    7700   0.70573663   -6.8286341    3932.5999           92 
    7800   0.71065051   -6.8333392    3926.5222           91 
    7900   0.70792889   -6.8551123    3932.8661           92 
    8000   0.70333646   -6.8309954    3936.1128           91 
    8100   0.69621631   -6.8505364     3933.248           78 
    8200   0.70083169   -6.8223745    3918.9546           79 
    8300    0.7071814   -6.8329143    3935.2835           75 
    8400   0.70532289   -6.8355153    3944.6913           67 
    8500   0.69340847   -6.8371222    3931.6602           59 
    8600   0.72230176   -6.8489227    3938.4537           89 
    8700   0.69801702   -6.8390572    3941.8999           70 
    8800   0.70317026   -6.8431321    3927.7849           61 
    8900   0.70868886   -6.7956843    3916.8535           68 
    9000   0.70015431     -6.83321    3932.8765          100 
    9100   0.69805967   -6.8590963    3941.7607           81 
    9200   0.69525533   -6.8326736     3938.086           81 
    9300    0.6938564   -6.8371985    3926.7684          110 
    9400   0.69302549   -6.8364395    3930.2035           74 
    9500   0.69646399   -6.8496325     3945.943           47 
    9600   0.69301626    -6.834855    3932.7298          120 
    9700   0.70759235    -6.824911    3931.2163           60 
    9800   0.70414901   -6.8650203    3925.4798           54 
    9900   0.69123906   -6.8266873    3926.7025           29 
   10000    0.7034853   -6.8572986    3936.6891           40 
   10100   0.68880217   -6.8617405    3929.9591           39 
   10200    0.7106707   -6.8516497    3929.2971           60 
   10300   0.70658785    -6.849466    3926.6508           64 
   10400   0.70359479   -6.8596929    3931.1907           50 
   10500   0.69218334   -6.8273817    3937.9255           50 
   10600   0.70626744   -6.8378512    3928.1181           52 
   10700   0.69781416   -6.8346857    3924.0843           70 
   10800   0.69064296   -6.8452575    3932.7569           32 
   10900   0.70567878   -6.8512051    3932.1395           49 
   11000   0.71294897   -6.8323425    3921.8314          100 
   11100   0.69771576   -6.8589205    3931.8374           94 
   11200   0.68725222   -6.8701463    3935.0496           83 
   11300   0.69931229   -6.8350011    3922.8017           84 
   11400   0.69938369   -6.8361295    3921.5855          109 
   11500   0.70488025   -6.8544027      3931.29           41 
   11600   0.69762306   -6.8446694    3934.6699           72 
   11700   0.71660571   -6.8505315    3932.8861           58 
   11800   0.68862007   -6.8394467    3922.8463           41 
   11900   0.69913903   -6.8608179    3933.9743           43 
   12000   0.69745815   -6.8387752    3927.5182           41 
   12100    0.7088477   -6.8495714    3920.7279           48 
   12200   0.71363161   -6.8380855    3927.1724           24 
   12300   0.70267452   -6.8277619     3934.692           32 
   12400   0.69384694   -6.8467614    3933.3247           46 
   12500   0.69260866    -6.838856    3929.3801           60 
   12600   0.70005441   -6.8303329    3936.8479           57 
   12700   0.70712248   -6.8314879    3926.3298           52 
   12800   0.71049163   -6.8516021    3927.7328           51 
   12900     0.711699   -6.8330524    3933.0098           72 
   13000   0.70528484   -6.8366791    3937.0911           36 
   13100   0.69469923   -6.8411851    3925.7716           64 
   13200   0.70455386   -6.8260836     3927.988           26 
   13300   0.71191104   -6.8380907    3937.0474           42 
   13400   0.70284066   -6.8348733    3935.3476           58 
   13500   0.68720608   -6.8328788      3934.15           44 
   13600   0.70266929   -6.8195547    3941.3913           70 
   13700   0.69853452   -6.8091592    3939.5747           60 
   13800   0.68987844   -6.8383033     3936.692           59 
   13900   0.70980661   -6.8451633    3936.6384          126 
   14000    0.6863058    -6.838305    3929.0149          106 
   14100   0.69757606   -6.8652756    3946.7258           81 
   14200   0.70116209   -6.8304354    3935.6688           63 
   14300   0.70162653   -6.8195417    3926.8953           98 
   14400   0.70291566   -6.8340981    3930.1753          106 
   14500   0.69809082   -6.8446003     3930.341           82 
   14600    0.7147236   -6.8394145    3933.0432          118 
   14700   0.69420333   -6.8329377    3923.9683           73 
   14800   0.68656818   -6.8496583    3928.7042           85 
   14900   0.69937727   -6.8447208    3943.3398          100 
   15000   0.68500523    -6.818878    3935.6245           92 
   15100    0.6991823   -6.8595874    3928.2414           73 
   15200   0.69527718   -6.8457925    3930.2465          129 
   15300   0.70072673   -6.8177998    3930.5201          159 
   15400   0.72056081   -6.8353302    3939.3676           69 
   15500   0.70190427   -6.8388723    3939.1047           65 
   15600   0.69170818     -6.84737    3926.5851          150 
   15700   0.71178459   -6.8358922    3920.9613           62 
   15800   0.71300347   -6.8346788    3935.4214           48 
   15900   0.68403475   -6.8412779    3938.5841          103 
   16000   0.69856883   -6.8435134    3939.7264           98 
   16100   0.71105453   -6.8131306    3934.4307           80 
   16200   0.69610587    -6.826489    3930.7565           64 
   16300   0.68057051   -6.8388936    3927.2545           59 
   16400   0.70345968   -6.8684781     3937.214           75 
   16500   0.68798668   -6.8667749    3936.7847          125 
   16600   0.69485865   -6.8163583    3916.8447          102 
   16700    0.7086483   -6.8527359    3928.6055           98 
   16800   0.67213733   -6.8345117    3934.0017           88 
   16900   0.70513693    -6.860566     3942.444           86 
   17000   0.71555385   -6.8142302    3930.7444           51 
   17100   0.70016973   -6.8321871    3933.1479           84 
   17200   0.69937598   -6.8617417    3927.3947           67 
   17300   0.69119188   -6.8521224      3929.94           58 
   17400   0.69999778   -6.8581583    3934.4607          137 
   17500   0.70247996   -6.8590215    3938.7367           73 
   17600   0.67700961   -6.8418355    3931.7325           24 
   17700   0.69231473   -6.8423071    3932.3439           49 
   17800    0.7094458   -6.8316593    3926.3295           63 
   17900   0.70753471     -6.86467     3925.573          186 
   18000   0.70427209   -6.8887553    3933.1396          189 
   18100   0.68332799   -6.8514982    3922.7822          170 
   18200   0.69563717   -6.8503472    3927.1414          134 
   18300   0.70183415   -6.8650801    3931.6578          213 
   18400   0.69375993   -6.8509841    3918.8463          132 
   18500   0.71592004   -6.8518463    3918.3475          255 
   18600   0.70073278   -6.8618497     3927.591          162 
   18700   0.68527461   -6.8674533    3933.9154          140 
   18800   0.68595606   -6.8724529     3928.658          139 
   18900   0.70473021   -6.8560695    3920.1703          191 
   19000     0.691283   -6.8794206    3924.5907          111 
   19100   0.70592306    -6.862615    3922.8358          107 
   19200   0.69753566   -6.8412041    3921.9064           86 
   19300   0.68719844   -6.8922012    3935.8731          151 
   19400   0.68764426   -6.8613198    3929.0213           90 
   19500   0.69694161   -6.8494445    3924.5306          117 
   19600   0.70736646   -6.8557028    3927.3787          167 
   19700   0.71453189   -6.8547297    3930.8522          174 
   19800   0.69008375   -6.8623872    3926.1698          245 
   19900    0.6919713    -6.835643    3924.7846          196 
   20000   0.68310262   -6.8735505    3930.7074          280 
   20100   0.69642805   -6.8679089    3927.9704          302 
   20200   0.70877375     -6.85412    3923.1213          228 
   20300   0.69317731   -6.8707485     3917.767          277 
   20400   0.69998403    -6.880862    3924.1373          276 
   20500   0.69300995   -6.8681845    3930.1877          277 
   20600   0.70551788   -6.8614768    3923.0817          218 
   20700   0.68409587   -6.8631683    3916.6716          207 
   20800   0.69252907   -6.8624313    3927.6484          278 
   20900   0.70763891   -6.8755939    3925.4392          293 
   21000   0.69817107   -6.8594158    3915.4054          311 
   21100   0.72618003   -6.8656397    3925.5556          307 
   21200   0.70562884   -6.8791978    3925.7824          317 
   21300   0.67780905   -6.8559866    3926.7807          318 
   21400   0.70424555   -6.8519141    3925.6486          316 
   21500   0.69771487   -6.8482988    3911.0183          230 
   21600   0.70437942   -6.8880756    3924.5086          232 
   21700   0.69910074   -6.8833842    3926.9325          266 
   21800   0.70792904   -6.8521403    3920.1364          223 
   21900   0.70335298   -6.8715309     3916.886          250 
   22000   0.69072251   -6.8910651    3920.9286          219 
   22100   0.69404163   -6.8643295    3921.6458          170 
   22200   0.70028981   -6.8611458    3928.2924          167 
   22300   0.69834731   -6.8725656    3934.4103          269 
   22400   0.68523693   -6.8489092    3908.7001          267 
   22500   0.70643584   -6.8508484     3911.803          369 
   22600   0.70156351   -6.8605961    3925.7937          236 
   22700   0.68831078    -6.885183    3935.5771          151 
   22800   0.69114389   -6.8710145    3930.4521          289 
   22900   0.70809031   -6.8654893    3925.3246          319 
   23000   0.69424295   -6.8618325    3920.0678          224 
   23100   0.69866446   -6.8679538    3921.9885          227 
   23200   0.69857976   -6.8620952    3931.5554          149 
   23300   0.71706566   -6.8575767    3932.0876          344 
   23400     0.703369   -6.8728627    3925.6969          284 
   23500   0.70391625   -6.8646975     3932.904          294 
   23600   0.70094881   -6.8604156    3938.9256          202 
   23700   0.68791174   -6.8460125     3924.347          157 
   23800   0.71023274    -6.843379    3916.9284          319 
   23900   0.71165614   -6.8513341    3916.5694          327 
   24000   0.68753832   -6.8616785    3920.0385          220 
   24100   0.69056883    -6.851305    3927.5289          351 
   24200   0.69837745   -6.8472406    3931.5053          165 
   24300   0.70306787   -6.8566089     3924.031          132 
   24400   0.69773529   -6.8571239    3921.0757          148 
   24500   0.70801036   -6.8771043    3930.2267          193 
   24600   0.71131659   -6.8421016    3935.4058          179 
   24700   0.71326933   -6.8405018    3913.0184          202 
   24800   0.71070372   -6.8659378    3919.8257          386 
   24900    0.6732372   -6.8741648    3939.3138          307 
   25000   0.69140738   -6.8627937    3936.1128          324 
   25100   0.68960978   -6.8513672    3926.8552          383 
   25200   0.70237316   -6.8694264    3920.8937          314 
   25300   0.68686405    -6.886518    3918.2612          481 
   25400   0.68263948   -6.8619677    3922.3061          319 
   25500   0.70266647   -6.8691049    3919.8052          403 
   25600   0.71169056   -6.8620949    3928.8449          386 
   25700   0.68411688   -6.8742409    3938.1524          382 
   25800   0.68639755   -6.8561581    3927.7731          405 
   25900   0.71348957   -6.8658597    3918.0299          392 
   26000   0.71141064    -6.851969    3909.0107          433 
   26100   0.69310211   -6.8625005    3922.1014          420 
   26200   0.71193233   -6.8572208    3927.5986          434 
   26300   0.70813892   -6.8468419     3918.486          405 
   26400   0.71116719   -6.8868948    3922.5029          314 
   26500   0.70303705   -6.8716121    3925.7112          347 
   26600   0.70488129   -6.8603491    3921.5344          385 
   26700   0.70406536   -6.8581901    3916.8177          392 
   26800   0.71156651   -6.8686662    3916.9005          348 
   26900   0.69248791   -6.8629007    3923.6298          378 
   27000    0.7044545    -6.854929    3923.9172          348 
   27100   0.69768225   -6.8706198    3919.0277          288 
   27200   0.69618747   -6.8792809    3931.6258          362 
   27300   0.69147749   -6.8584909    3931.4464          333 
   27400   0.69342607   -6.8560895    3920.7037          407 
   27500   0.69034182   -6.8749345    3907.9152          415 
   27600   0.69564729   -6.9126755    3908.3415          368 
   27700   0.69920486   -6.8815996    3913.2255          445 
   27800   0.70233132   -6.8676877     3917.659          321 
   27900   0.70108438   -6.8706428    3920.9685          433 
   28000   0.68475813   -6.8848529    3916.9855          473 
   28100   0.70384347   -6.8849908    3927.2695          438 
   28200   0.70382896   -6.8588731    3930.5291          431 
   28300   0.70236916   -6.8671157    3928.1109          317 
   28400   0.69985052   -6.8588966    3916.6468          449 
   28500   0.71133334   -6.8688068     3917.813          439 
   28600   0.69948637   -6.8902658     3926.788          383 
   28700   0.70643223   -6.8629635    3914.3947          476 
   28800   0.69960408   -6.8714786     3922.851          451 
   28900   0.70597586     -6.86917    3932.7731          428 
   29000   0.68823441   -6.8565191    3933.9122          397 
   29100   0.69455447   -6.8610341    3917.3974          412 
   29200    0.7137524   -6.8519432    3921.6748          442 
   29300   0.70241664    -6.874259     3918.413          433 
   29400   0.69969535   -6.8974326    3926.8461          386 
   29500     0.702015   -6.8874793     3925.531          402 
   29600   0.70529472   -6.8599827    3920.8353          459 
   29700   0.70342869    -6.878181    3919.8309          446 
   29800   0.71512756   -6.8922519    3915.3233          476 
   29900   0.69342589   -6.9011331    3901.6865          603 
   30000   0.69449804   -6.8874457    3903.7084          628 
   30100   0.70814003   -6.8988775    3917.8155          613 
   30200   0.68485286   -6.8861132    3914.0813          659 
   30300   0.69512981   -6.9018187    3917.0847          580 
   30400   0.70165648   -6.8909098    3916.8257          611 
   30500   0.70367406   -6.8793599    3923.0225          579 
   30600   0.69698915   -6.8846879    3920.0537          571 
   30700   0.68534705    -6.875272    3907.1936          639 
   30800   0.70553301   -6.9018926     3917.494          643 
   30900   0.69606127   -6.8856077    3921.4718          552 
   31000   0.69791929   -6.8609302     3915.085          574 
   31100    0.6896308   -6.8898226    3913.8206          641 
   31200   0.70050511   -6.8825087    3918.4643          648 
   31300   0.70049996   -6.8835598    3922.2871          674 
   31400   0.70201948   -6.8879868    3917.4883          557 
   31500   0.70629359   -6.9046272    3913.6232          487 
   31600   0.69572374   -6.8911849    3903.5846          549 
   31700   0.67772787    -6.894415    3907.8516          648 
   31800   0.70476917   -6.9071343    3921.2904          600 
   31900   0.70769048   -6.8962222    3918.0009          715 
   32000   0.69759433   -6.8489772    3908.9582          722 
   32100   0.69727749    -6.889137    3914.4375          676 
   32200    0.7139587    -6.903577    3914.1618          652 
   32300   0.68610891   -6.8705584    3909.4589          612 
   32400   0.70587361   -6.9081665    3917.7313          706 
   32500    0.7040225   -6.9073963    3923.9979          747 
   32600   0.68567984    -6.877778    3912.8584          722 
   32700   0.69805572   -6.8858358    3916.9579          703 
   32800   0.69029729   -6.8925003    3921.4206          675 
   32900   0.68514955     -6.90599    3911.9439          665 
   33000   0.70612826   -6.8950582    3915.0679          577 
   33100    0.6866805   -6.8677839    3918.0294          659 
   33200    0.6944567   -6.8748608    3926.1147          739 
   33300   0.68342152   -6.8971075    3917.6947          680 
   33400   0.69281121   -6.8809047    3922.7826          684 
   33500   0.70149969   -6.8930144    3919.8352          666 
   33600   0.69201982   -6.8987994    3907.0687          713 
   33700   0.69477867   -6.8985277    3912.4785          742 
   33800   0.69923533   -6.8851345     3918.891          662 
   33900    0.6961222   -6.9220261    3914.8656          721 
   34000   0.70104448   -6.8902071    3906.3315          701 
   34100   0.70452856   -6.8707789    3909.7331          658 
   34200   0.68237847   -6.8924287    3924.4419          688 
   34300   0.69620958   -6.9131586     3919.628          701 
   34400   0.69900019   -6.8722227    3914.3817          677 
   34500   0.69936823   -6.8899801    3918.5885          694 
   34600   0.68887014   -6.8899819    3906.8761          737 
   34700   0.70617839   -6.8926144    3910.2934          718 
   34800   0.70306085   -6.9138102    3925.9299          695 
   34900   0.69619045   -6.9167746     3909.507          758 
   35000   0.70140291   -6.9039783    3900.7711          769 
   35100   0.71039436   -6.9040177    3916.2621          757 
   35200   0.68974476   -6.9012165    3912.5843          794 
   35300   0.69506216   -6.9021978    3910.5356          722 
   35400   0.69830663   -6.8792046    3918.1183          700 
   35500   0.70631494   -6.8908368     3913.531          717 
   35600   0.70261789   -6.9079346    3909.9941          727 
   35700   0.71871816   -6.8950582    3916.7415          702 
   35800   0.70443957   -6.8985908    3918.3356          642 
   35900   0.69461224   -6.9000071    3909.7549          732 
   36000   0.71207242   -6.9019246    3901.0441          723 
   36100   0.71079254   -6.8747908    3916.2958          740 
   36200   0.68548498   -6.8871898    3923.8111          745 
   36300     0.697003   -6.9025479    3911.5823          758 
   36400   0.69084468    -6.908072    3895.8168          760 
   36500   0.70219883   -6.9162207    3902.2102          793 
   36600   0.69372888   -6.8873763    3915.1247          688 
   36700   0.69111525   -6.8787483    3924.3505          758 
   36800   0.70608089   -6.8881055    3924.5824          769 
   36900   0.68906997   -6.8856621     3917.185          632 
   37000   0.70577615   -6.8778372    3910.8114          738 
   37100    0.7008403   -6.8980133    3906.7691          742 
   37200    0.7102958   -6.9273605    3919.5418          715 
   37300   0.69681965   -6.8862071    3912.0116          745 
   37400   0.69586769    -6.905034    3913.6129          625 
   37500     0.700095    -6.910688    3901.2877          777 
   37600   0.70481174   -6.8828327    3918.1964          791 
   37700   0.70794518   -6.8909957     3921.381          679 
   37800   0.69734581   -6.8989535    3902.5862          679 
   37900   0.69876849   -6.9228552    3898.0199          684 
   38000   0.69862335   -6.9080739    3917.7731          752 
   38100   0.69610424   -6.8892473    3919.4753          681 
   38200   0.71797447   -6.8783353    3919.7676          751 
   38300   0.71915285     -6.89841    3914.7472          735 
   38400   0.68455754   -6.8785373    3912.5251          794 
   38500   0.71800573   -6.9167616    3927.8337          761 
   38600   0.70172685   -6.9063184    3915.3999          787 
   38700   0.69282364   -6.8887541    3907.6048          731 
   38800    0.6989374   -6.8985038    3917.9208          779 
   38900   0.71171166   -6.8987082    3925.8392          839 
   39000   0.69503902   -6.8816531    3924.6819          782 
   39100   0.68548662   -6.8811591    3918.0687          809 
   39200   0.70290475   -6.8713356    3920.6545          803 
   39300   0.70348951   -6.9079535    3914.6929          799 
   39400   0.71166234   -6.9157124    3912.6329          796 
   39500   0.69748255   -6.8623443    3902.5781          758 
   39600   0.70256879    -6.890928    3917.2488          787 
   39700   0.68297206    -6.897725    3912.3979          852 
   39800   0.69799504   -6.9152438    3908.8153          869 
   39900   0.69328765   -6.8724945    3907.9759          828 
   40000   0.70099663   -6.8971072    3915.8319          836 
   40100   0.68267776   -6.8937208    3905.8303          848 
   40200   0.70589521   -6.9076259    3915.7932          905 
   40300   0.68212284   -6.8974082    3925.3068          829 
   40400   0.69586416   -6.8833386    3916.7112          892 
   40500   0.69643782   -6.8685101    3907.3395          850 
   40600   0.69049769   -6.8868682    3916.9783          870 
   40700   0.69314792   -6.8930573    3926.2055          854 
   40800   0.69143545    -6.875837    3923.3712          905 
   40900   0.69296035   -6.8799852    3914.5755          821 
   41000     0.691444   -6.9014322    3905.4195          897 
   41100   0.70329879   -6.8973947    3908.2824          951 
   41200   0.70691996    -6.911823    3922.7574          901 
   41300   0.68555853   -6.9102777    3923.7506          892 
   41400   0.70087667   -6.9003589    3905.4667          894 
   41500   0.72677967   -6.8762195    3896.2458          877 
   41600      0.71417   -6.8978151     3915.689          822 
   41700   0.68432754   -6.8881186    3912.3074          910 
   41800   0.70230375   -6.8953576    3914.1791          865 
   41900   0.71764104   -6.8990811    3921.0449          845 
   42000   0.70334527   -6.9057464     3915.311          852 
   42100   0.69182463   -6.9002544    3906.1427          883 
   42200   0.69179411   -6.8778895    3914.4721          843 
   42300    0.6916213   -6.8696912    3923.7007          766 
   42400   0.68048019   -6.8855814    3921.7626          834 
   42500   0.70312468   -6.9032662    3910.5855          938 
   42600   0.69530137   -6.8997536    3903.2914          925 
   42700   0.70471427   -6.9206412    3911.6031          896 
   42800   0.69352626   -6.8724245    3914.6431          780 
   42900   0.68817074   -6.8883105    3914.1873          821 
   43000   0.68391757   -6.9211912    3910.7254          830 
   43100   0.68988939   -6.8963284    3912.6931          788 
   43200    0.7012146     -6.89185    3920.7021          777 
   43300   0.68908586   -6.8814663     3914.411          813 
   43400   0.68044432   -6.8877207    3915.7417          829 
   43500   0.70459963   -6.9045564    3921.8992          892 
   43600   0.68537692   -6.8848302    3907.9493          937 
   43700    0.6886681   -6.9233769    3904.7072          829 
   43800   0.69666699   -6.9183203    3915.6012          745 
   43900   0.69900255   -6.8940774    3920.4339          818 
   44000   0.70294403   -6.8778652    3905.4068          902 
   44100   0.71958271   -6.8947948    3899.3067          884 
   44200    0.6991129   -6.8875155     3911.507          911 
   44300   0.67841578   -6.9076134    3920.4156          956 
   44400   0.70422752   -6.9219272    3920.8962          869 
   44500   0.69666933   -6.8971946    3914.5875          816 
   44600   0.70188861   -6.8974238    3916.2426          908 
   44700   0.68949361   -6.9207027    3908.7013          901 
   44800   0.70345591   -6.9099914    3915.1999          934 
   44900   0.69397661   -6.9090779    3916.5194          988 
   45000   0.69704522    -6.887851    3905.1091          899 
   45100   0.72634093   -6.8972644    3908.0409          916 
   45200   0.69053443   -6.8927899    3905.5487          843 
   45300   0.70336307    -6.924918    3922.2074          804 
   45400    0.6816727   -6.9015823    3911.8906          934 
   45500   0.69718269   -6.9177625    3900.9899          932 
   45600   0.69576882   -6.8918993    3915.0127          957 
   45700   0.69212879   -6.8982357    3921.4638          929 
   45800   0.69300887   -6.9235517    3908.7422          903 
   45900   0.70054007   -6.9078892    3894.6494          873 
   46000   0.70919999   -6.8947118     3909.718          905 
   46100   0.69923666   -6.9025379    3913.4698          914 
   46200    0.7031178   -6.9135488    3904.2476          979 
   46300   0.70169955   -6.8930895    3903.0109         1021 
   46400   0.72460628   -6.9224734    3916.9114          995 
   46500   0.69558021   -6.8964307    3910.6568         1053 
   46600   0.69946936   -6.9138774    3914.2952          911 
   46700    0.6772586   -6.9006863    3904.3133          901 
   46800   0.70791541   -6.9240902    3919.9865         1009 
   46900   0.70018221   -6.8787054    3911.5251          913 
   47000   0.68655162   -6.8803266    3902.8978          897 
   47100   0.69273196   -6.9182525    3914.5003          877 
   47200   0.68286026   -6.9262537    3910.1607         1007 
   47300   0.68614476   -6.9121778    3914.8649         1045 
   47400     0.712499   -6.9125379    3912.1738          992 
   47500   0.70086034   -6.9152299    3910.8223          984 
   47600   0.68998805   -6.8888437    3906.6765          954 
   47700   0.72498491   -6.9078754    3915.7901          945 
   47800   0.71224154   -6.9169305    3901.7118         1015 
   47900   0.69764917   -6.9195461    3902.9538         1026 
   48000   0.69319745   -6.9074389    3918.8681         1015 
   48100    0.7123301   -6.9116596    3916.5684         1061 
   48200   0.69907756   -6.8988567    3904.2604         1018 
   48300   0.70199014   -6.9196036    3898.5719         1106 
   48400   0.68415815   -6.9245853     3907.757         1104 
   48500   0.69498832   -6.9318185    3914.6207         1146 
   48600   0.70756855   -6.9085047    3909.4956         1100 
   48700   0.70668624   -6.8927113     3904.514         1077 
   48800   0.70604573   -6.9186904    3904.7409         1131 
   48900   0.69059467   -6.9454135    3911.9671         1143 
   49000   0.69571166   -6.9190638    3908.5662         1116 
   49100   0.70349691   -6.9157283    3904.9043         1101 
   49200   0.71976082    -6.900824    3902.5739         1126 
   49300   0.70382486   -6.9233276    3906.2748         1016 
   49400   0.69121787   -6.9443635    3909.8055          971 
   49500   0.69678201   -6.9185825    3909.7337         1002 
   49600   0.70154047   -6.9135239    3910.2793         1031 
   49700   0.69825213   -6.9168117    3907.0995         1079 
   49800    0.6767001   -6.9087574    3904.3218         1060 
   49900    0.6933825   -6.9102948    3913.7524         1133 
   50000    0.7006094   -6.9155096    3907.1945         1103 
   50100    0.6915864   -6.9007389    3907.2167         1064 
   50200   0.69866581   -6.8971359    3911.1996         1158 
   50300   0.69935134   -6.9356554    3908.8364         1195 
   50400   0.69237076   -6.9175706    3902.6478         1176 
   50500   0.71543586   -6.9191331    3906.2451         1214 
   50600   0.69611436   -6.9206847    3910.6704         1179 
   50700   0.70192894   -6.9200616     3908.993         1191 
   50800    0.6878383   -6.9019814    3900.0345         1141 
   50900   0.69423053   -6.9341731    3907.1904         1143 
   51000   0.70440176   -6.9401019    3902.3497         1157 
   51100   0.69018782   -6.9167081    3889.3481         1191 
   51200   0.70625888   -6.9178298    3900.7494         1200 
   51300   0.69090673   -6.9111678     3912.319         1207 
   51400   0.70530812   -6.9235055    3907.9371         1197 
   51500   0.69958542   -6.9255155    3899.4171         1187 
   51600   0.68451552   -6.9292411    3899.3938         1282 
   51700   0.69595625   -6.9428155    3910.3446         1202 
   51800   0.70813639   -6.9249504    3902.6458         1191 
   51900   0.71252556   -6.9218407    3893.0201         1145 
   52000   0.70299056   -6.9420116    3899.5944         1211 
   52100   0.68641836   -6.9293893     3904.485         1156 
   52200   0.69654172   -6.9084674    3901.3269         1211 
   52300   0.68924305   -6.9237743    3900.8468         1218 
   52400   0.71504732   -6.9243309    3907.4709         1260 
   52500   0.69679932   -6.9259841    3901.6302         1254 
   52600   0.68918343   -6.9318124    3901.4212         1247 
   52700   0.71185669    -6.930266     3906.665         1137 
   52800   0.69257835    -6.902186    3900.7237         1222 
   52900   0.71485867   -6.9278985    3903.4883         1329 
   53000    0.6994302   -6.9184897    3892.7739         1318 
   53100   0.71159911   -6.9360644    3907.7965         1296 
   53200   0.71302384   -6.9242681    3917.7687         1233 
   53300   0.68850888   -6.9046419    3892.2425         1281 
   53400    0.7041119   -6.9197655    3898.8667         1373 
   53500   0.70040771   -6.9554309    3905.5605         1309 
   53600   0.68320544   -6.9466995    3902.7731         1393 
   53700    0.6973093   -6.9339543    3911.3334         1383 
   53800   0.69808029   -6.9308261    3901.8872         1350 
   53900   0.69217935   -6.9310735    3889.9458         1307 
   54000   0.70053902   -6.9253763    3901.2847         1343 
   54100   0.70174159   -6.9284251     3906.477         1389 
   54200    0.6893297   -6.9432718     3897.256         1390 
   54300   0.69705578   -6.9528444    3896.9766         1372 
   54400   0.69958825   -6.9259919    3904.0747         1372 
   54500   0.71617235   -6.9324126    3904.1042         1353 
   54600   0.70033301   -6.9301916    3888.2007         1398 
   54700   0.68915467   -6.9532271    3893.5346         1436 
   54800   0.69233851    -6.973863    3907.9222         1444 
   54900     0.695533   -6.9474847     3897.832         1493 
   55000    0.6988822   -6.9413873     3895.133         1405 
   55100   0.70950122   -6.9234797    3897.6542         1357 
   55200   0.70452207   -6.9573366    3897.3302         1427 
   55300   0.68238936   -6.9389256    3897.7352         1401 
   55400   0.70521278   -6.9442329     3905.614         1375 
   55500   0.69343815   -6.9534282    3894.6811         1489 
   55600   0.69845729   -6.9787474    3893.2173         1558 
   55700    0.7115196   -6.9542586    3897.6433         1570 
   55800   0.70207172    -6.940436    3887.1359         1536 
   55900   0.69649234   -6.9517469    3883.5611         1565 
   56000   0.70237526   -6.9718275    3899.7484         1497 
   56100   0.69702642   -6.9454749    3903.7285         1517 
   56200   0.71938194   -6.9353694    3899.1947         1498 
   56300   0.72106801   -6.9441036    3885.5233         1519 
   56400   0.70513509   -6.9548679    3885.0927         1593 
   56500   0.69172382   -6.9723418    3892.0124         1627 
   56600    0.7083578   -6.9476142    3892.1805         1636 
   56700   0.71852861   -6.9697325    3894.0473         1581 
   56800   0.69949395   -6.9742833    3887.3281         1637 
   56900   0.70482371   -6.9544665    3890.7751         1599 
   57000    0.7016496   -6.9635752    3898.1316         1536 
   57100    0.6844488   -6.9634857    3888.8937         1523 
   57200   0.69211634   -6.9732113    3889.5289         1620 
   57300   0.71067018    -6.961794    3893.3681         1690 
   57400   0.71811492   -6.9731088    3888.5114         1670 
   57500    0.6925725   -6.9680992    3883.0955         1636 
   57600   0.69818875   -6.9501362    3893.1497         1661 
   57700   0.70581585   -6.9665031    3898.6334         1664 
   57800   0.69629719   -6.9886551    3899.1806         1710 
   57900   0.68271236   -6.9591692    3894.4813         1706 
   58000   0.71267437   -6.9737927     3890.937         1724 
   58100   0.68494895   -6.9518718    3888.7799         1730 
   58200   0.71012032   -6.9499714    3899.4009         1741 
   58300   0.69588104   -6.9618216     3902.006         1769 
   58400   0.68598434   -6.9649082    3886.9987         1776 
   58500   0.70379109   -6.9778731    3887.6393         1721 
   58600   0.70690904    -6.962366    3889.5394         1729 
   58700   0.69635609   -6.9727265    3892.3296         1783 
   58800   0.67331782   -6.9768258    3886.6999         1823 
   58900   0.69895383   -6.9827194    3877.7275         1858 
   59000   0.71243475   -6.9791863    3884.6184         1851 
   59100    0.7004693   -6.9653854    3899.0626         1827 
   59200     0.699404   -6.9931012    3879.3102         1894 
   59300   0.70017767   -6.9718721    3874.9788         1926 
   59400    0.7080149   -6.9843988    3884.1395         2029 
   59500   0.69360912   -6.9956192    3889.8102         2029 
   59600   0.68655129   -7.0098964     3882.257         1977 
   59700   0.71640467     -7.00514    3878.0513         1997 
   59800   0.70014848   -6.9920408    3884.0688         1953 
   59900   0.71546388   -6.9892078    3891.9173         1924 
   60000   0.68711364   -6.9700835    3882.0192         1894 
   60100   0.69987571   -6.9939126     3891.561         1905 
   60200   0.69754833   -6.9940774     3889.383         1970 
   60300   0.68113143   -7.0106619    3886.8993         2032 
   60400   0.68886689   -6.9834191    3885.5651         2023 
   60500   0.69852148   -6.9953312    3887.2101         2022 
   60600   0.71115045    -7.005119    3875.7974         2065 
   60700   0.69491492   -7.0002361    3873.8195         2114 
   60800    0.6986069   -6.9922089    3879.8023         2082 
   60900   0.71468023   -7.0109473    3890.0921         2105 
   61000   0.70081084   -6.9741295    3878.7741         2150 
   61100   0.70879664   -7.0094509    3868.0185         2094 
   61200    0.6968364   -7.0288455    3879.5413         2108 
   61300    0.6948803   -6.9933875    3896.8055         2092 
   61400   0.69240549   -6.9859087    3882.7974         2148 
   61500   0.69342272     -7.00329    3879.0682         2192 
   61600   0.70589943   -7.0138425    3868.3296         2183 
   61700   0.70420419    -7.023402    3869.4249         2213 
   61800   0.70819858   -7.0020003    3871.6896         2184 
   61900   0.70854276   -6.9808381    3874.2701         2119 
   62000    0.7023382   -7.0096463    3869.5185         2196 
   62100   0.69351445   -6.9989981    3885.4852         2164 
   62200   0.69397585   -7.0020553    3887.2053         2271 
   62300    0.6982481   -7.0092745     3883.155         2187 
   62400   0.72888576   -7.0209489    3861.8499         2241 
   62500   0.70196204   -7.0114851    3862.0155         2300 
   62600   0.69260818   -6.9916792    3875.8431         2309 
   62700    0.6944484   -7.0334203    3879.6881         2320 
   62800   0.68988945    -7.020105    3869.3764         2323 
   62900   0.71626115   -7.0174292     3874.815         2355 
   63000   0.70726129   -7.0245312    3869.0607         2384 
   63100   0.70067114   -7.0295622    3859.8529         2429 
   63200    0.7071987   -7.0214542    3872.6459         2453 
   63300    0.6822715   -7.0212419    3885.6215         2400 
   63400   0.68113083   -7.0467328    3871.0317         2362 
   63500   0.69995023   -7.0228615    3872.0258         2283 
   63600    0.7142637   -7.0153022     3871.281         2327 
   63700   0.69160364   -7.0167893    3873.7014         2294 
   63800   0.71727749   -7.0262947    3875.6681         2293 
   63900   0.70985932   -7.0161133    3876.7311         2319 
   64000   0.70386774   -7.0023199    3874.7691         2319 
   64100   0.70841236   -7.0399808    3864.3639         2364 
   64200   0.70433914   -7.0363181     3867.965         2395 
   64300   0.70883453   -7.0226551    3878.0761         2407 
   64400   0.71456573   -7.0323549    3873.7857         2412 
   64500   0.70411487   -7.0363862    3858.2471         2479 
   64600   0.70822902   -7.0233354    3869.4185         2491 
   64700   0.71062451   -7.0258422    3879.3062         2430 
   64800   0.70436562   -7.0316725    3860.9434         2395 
   64900   0.70732776   -7.0400298    3864.0684         2453 
   65000   0.69993171   -7.0208004    3870.6148         2426 
   65100   0.70814413   -7.0190304    3877.4291         2451 
   65200   0.69397845   -7.0436828    3872.8329         2486 
   65300   0.70375315    -7.024263    3863.4193         2443 
   65400   0.71601024   -7.0258255    3870.5863         2453 
   65500   0.70265572   -7.0536343    3876.8761         2475 
   65600   0.68658705   -7.0402992    3868.0728         2477 
   65700   0.68251795   -7.0437562    3861.1882         2528 
   65800   0.70194284   -7.0389521    3869.1709         2505 
   65900   0.71438789   -7.0526655    3867.8065         2471 
   66000   0.70361459   -7.0442005    3859.3439         2519 
   66100   0.69576256   -7.0666321    3863.5852         2557 
   66200   0.69214092   -7.0425994    3864.6029         2524 
   66300   0.70238803   -7.0464634    3861.0166         2521 
   66400   0.69737603    -7.054558    3861.3666         2531 
   66500   0.69445066   -7.0695286    3868.0831         2572 
   66600   0.68691088   -7.0579705    3863.5778         2570 
   66700   0.70269769   -7.0414321    3864.7927         2498 
   66800   0.69163964   -7.0569793    3876.2973         2504 
   66900    0.6927132   -7.0433475    3867.6009         2517 
   67000   0.68862306   -7.0579655    3856.2886         2544 
   67100   0.69063267   -7.0498958    3862.3028         2609 
   67200   0.69418692   -7.0524301    3873.5678         2677 
   67300   0.69757708   -7.0622228    3866.1204         2666 
   67400   0.69321067   -7.0566674    3850.4053         2662 
   67500    0.7176825   -7.0603314    3855.9752         2644 
   67600   0.70151172   -7.0680308     3866.972         2621 
   67700   0.70673281   -7.0478003    3860.7694         2631 
   67800   0.69801384   -7.0595047    3853.7475         2601 
   67900   0.67977692   -7.0632065    3862.1978         2683 
   68000   0.68834663   -7.0484747    3867.0243         2654 
   68100   0.68812723   -7.0772079    3864.4087         2739 
   68200   0.71114075   -7.0542568    3857.2448         2719 
   68300   0.70105172   -7.0636634    3856.3543         2796 
   68400   0.69281639   -7.0851842    3861.9409         2822 
   68500   0.71600917   -7.0919826     3864.059         2841 
   68600   0.69765707   -7.0631912    3851.0049         2815 
   68700   0.70458545   -7.0851402    3852.2892         2847 
   68800   0.68985685   -7.0483579    3851.9686         2794 
   68900   0.70885709   -7.0748493    3867.4415         2837 
   69000   0.68685915   -7.0754154    3858.3403         2837 
   69100   0.70837425   -7.0746636    3857.1311         2779 
   69200   0.69810345   -7.0847646    3859.5654         2839 
   69300   0.69551348   -7.0740144    3853.3051         2851 
   69400   0.71365344   -7.0809882    3850.6714         2914 
   69500   0.70572702   -7.1072863    3846.2723         2911 
   69600   0.71309924   -7.1062935    3845.0602         2904 
   69700   0.69722326   -7.1057079    3858.9968         2931 
   69800   0.70306344   -7.0710971     3867.504         2870 
   69900   0.69833257   -7.0698357    3851.9049         2908 
   70000    0.7141202   -7.1104054    3847.1256         2967 
   70100   0.70169093   -7.1057737    3852.3534         2981 
   70200   0.70163504   -7.0902784    3852.0081         2950 
   70300   0.69693273    -7.097701    3847.4199         2939 
   70400   0.69979158   -7.1111922    3844.9104         3049 
   70500    0.6944957   -7.1160219    3840.0598         3014 
   70600   0.69895365   -7.0839126    3844.2683         3041 
   70700   0.69330207     -7.10837    3853.7564         3019 
   70800   0.69520237   -7.1170047    3849.1033         3030 
   70900   0.69372605   -7.1028639    3844.4028         3024 
   71000   0.71031557   -7.0993788    3847.0239         3044 
   71100     0.692068   -7.1033954    3846.7809         3024 
   71200   0.68760372   -7.1315131    3845.7047         3047 
   71300   0.69331689   -7.1131774    3845.4295         3023 
   71400   0.71293615   -7.1087895    3844.1808         2993 
   71500   0.70270969   -7.1241535    3852.0406         3016 
   71600    0.7063188   -7.1140707     3848.122         3033 
   71700   0.69433882    -7.126788    3843.7148         3061 
   71800   0.69258536    -7.126211    3837.3198         3086 
   71900   0.69793536   -7.1091642    3847.9754         3096 
   72000   0.71670549   -7.1160368    3853.8827         3086 
   72100   0.70132149   -7.1039212    3839.9474         3089 
   72200   0.71328367   -7.1058305    3833.4278         3102 
   72300   0.70115141   -7.1133477    3845.0235         3091 
   72400   0.69517449    -7.140326    3843.1881         3057 
   72500   0.68783751   -7.1288966    3841.6587         3078 
   72600   0.71125988   -7.1278623    3845.0012         3143 
   72700   0.68811581   -7.1186455    3840.0365         3154 
   72800   0.70845852   -7.1187437    3846.7178         3148 
   72900   0.69513961   -7.1290441     3851.303         3152 
   73000   0.68568747   -7.1020596    3843.8862         3138 
   73100   0.69742807   -7.1170125    3841.5655         3151 
   73200   0.69737643   -7.1363568    3829.2824         3134 
   73300   0.70528681   -7.1396268     3840.487         3125 
   73400   0.71311444   -7.1452466    3844.5246         3110 
   73500   0.68668353   -7.1205356    3833.3002         3147 
   73600   0.71064883   -7.1137904      3840.57         3165 
   73700   0.70336905   -7.1333582    3835.6925         3196 
   73800   0.69827602   -7.1437443    3847.4521         3164 
   73900    0.7033188    -7.116978    3840.5807         3102 
   74000    0.7375966     -7.12199    3836.4434         3106 
   74100   0.70973205   -7.1285412    3841.4543         3130 
   74200   0.69996738   -7.1420158     3839.438         3135 
   74300   0.68057702   -7.1396948    3827.0172         3196 
   74400   0.68809661    -7.120145    3832.0997         3224 
   74500   0.71478011   -7.1459408    3844.4775         3205 
   74600   0.67994908   -7.1130118    3830.9667         3136 
   74700   0.69672294   -7.1302559    3846.6108         3174 
   74800   0.70160068   -7.1204255    3839.8038         3223 
   74900    0.6863044   -7.1165398    3840.3057         3183 
   75000   0.70621714   -7.1396636    3845.5096         3161 
   75100   0.69927494   -7.1473312    3836.2176         3208 
   75200   0.71012651   -7.1446349    3829.8133         3200 
   75300   0.69739372   -7.1320593      3825.02         3215 
   75400   0.71288239   -7.1448751    3844.0205         3253 
   75500     0.704206   -7.1534946    3845.2488         3238 
   75600   0.69979669   -7.1357051     3820.544         3270 
   75700   0.70470209   -7.1234272     3833.344         3266 
   75800   0.69640611   -7.1496402    3845.1912         3238 
   75900   0.68724445   -7.1538522    3837.1877         3253 
   76000   0.70155998   -7.1337848     3831.038         3233 
   76100   0.70156183   -7.1341823    3836.9708         3197 
   76200   0.68521909   -7.1419312    3844.9564         3244 
   76300    0.7016561   -7.1382493    3850.4418         3215 
   76400   0.69777293   -7.1316273     3839.916         3215 
   76500   0.68711003   -7.1494815    3831.0793         3280 
   76600   0.69246559   -7.1390818    3843.0725         3253 
   76700    0.6950604   -7.1290879    3835.1734         3263 
   76800   0.69007987   -7.1427076    3841.3668         3230 
   76900   0.70167459   -7.1371408    3847.3424         3257 
   77000    0.6936189   -7.1394566    3835.6367         3209 
   77100   0.69779261   -7.1500791     3828.818         3266 
   77200   0.71901507   -7.1493452    3842.9852         3312 
   77300   0.70694924   -7.1395234    3831.6144         3303 
   77400    0.6985334   -7.1498263    3837.3722         3256 
   77500   0.68928375    -7.172842    3839.3555         3297 
   77600   0.68670203   -7.1529924    3824.5111         3296 
   77700   0.68759226   -7.1289647    3826.1759         3315 
   77800   0.69226403   -7.1738202    3832.4833         3353 
   77900   0.69449742    -7.175454    3832.6851         3360 
   78000   0.69145271   -7.1354486    3830.5336         3337 
   78100   0.69340119   -7.1246638    3836.6188         3285 
   78200     0.687471   -7.1580772    3839.1817         3345 
   78300   0.68814206   -7.1721421     3831.416         3391 
   78400   0.71150577   -7.1500556    3834.2599         3400 
   78500   0.70258728   -7.1329011    3819.9848         3354 
   78600   0.68527857   -7.1565508    3825.9582         3334 
   78700   0.70577649   -7.1846534    3834.5839         3367 
   78800   0.69641147   -7.1815656    3830.8294         3329 
   78900   0.70796877   -7.1726436    3825.7687         3317 
   79000   0.70434222   -7.1545492    3831.5751         3347 
   79100   0.69765213   -7.1736677    3831.1472         3348 
   79200   0.69449427   -7.1754153    3821.3536         3322 
   79300   0.70358561   -7.1688587    3830.8398         3310 
   79400   0.69959197   -7.1589985    3828.2238         3371 
   79500   0.70613762   -7.1741555    3827.0674         3394 
   79600   0.68915389   -7.1831572    3828.5636         3414 
   79700   0.69727731   -7.1572962    3831.3396         3394 
   79800   0.68752453   -7.1545411    3833.7267         3397 
   79900   0.69492125   -7.1819888     3832.358         3395 
   80000   0.68921581   -7.2129327    3820.0663         3449 
   80100   0.67326311   -7.1823311    3820.2222         3474 
   80200   0.70156115   -7.1992865    3829.6064         3473 
   80300   0.68558079    -7.154346    3837.8591         3446 
   80400   0.71356227   -7.1652667    3827.7376         3463 
   80500    0.7011804   -7.1767063    3814.9474         3479 
   80600   0.72468255   -7.1995264    3823.9829         3488 
   80700   0.69073014   -7.1872705    3822.0204         3488 
   80800   0.69035413   -7.1913026    3816.4817         3568 
   80900   0.70437805   -7.1870139    3826.7243         3576 
   81000   0.69103033   -7.1841322    3817.0017         3554 
   81100   0.70544281   -7.1981856    3816.9305         3565 
   81200   0.69223675   -7.1984056    3821.3567         3555 
   81300   0.70140458   -7.2165272    3827.4836         3571 
   81400   0.69452343    -7.183974    3825.9938         3569 
   81500    0.6957078   -7.2123494    3816.6244         3519 
   81600   0.69873474   -7.2048872    3822.1599         3528 
   81700   0.72504494   -7.2128029    3810.4564         3550 
   81800   0.70547433   -7.1967863    3805.0034         3522 
   81900   0.71495192   -7.2082354    3815.5889         3587 
   82000   0.68354067   -7.2237527    3821.5475         3598 
   82100   0.69667621   -7.2182607    3816.9322         3586 
   82200   0.70086786    -7.225228    3807.0472         3567 
   82300   0.69045005   -7.2320731    3804.1214         3591 
   82400   0.71060676   -7.2257791    3809.6649         3614 
   82500   0.70379372   -7.2310191    3810.0161         3566 
   82600   0.69095132   -7.2472403    3810.2209         3540 
   82700    0.6856196   -7.2238107    3804.8174         3571 
   82800   0.69813822   -7.2130466    3807.3352         3614 
   82900   0.71388891   -7.2366742    3817.2089         3611 
   83000   0.70613977   -7.2205179    3812.5915         3621 
   83100   0.70238826   -7.2419837    3803.4939         3650 
   83200   0.68716957   -7.2499639    3803.3017         3646 
   83300   0.70745138   -7.2556949    3812.3874         3656 
   83400   0.70501894   -7.2269129     3801.791         3634 
   83500   0.68874829   -7.2569806     3811.128         3643 
   83600   0.70223519   -7.2510188    3808.7187         3645 
   83700   0.70314346   -7.2190423    3804.5638         3632 
   83800   0.70958125   -7.2681393    3801.9514         3689 
   83900   0.70091444   -7.2796137    3802.2176         3720 
   84000   0.70822985   -7.2646655    3804.2471         3732 
   84100   0.68732347   -7.2565538    3792.1949         3701 
   84200   0.70298866   -7.2883601    3788.5445         3702 
   84300   0.72009556    -7.293554    3800.6467         3703 
   84400   0.69460445   -7.2785772    3806.1607         3717 
   84500   0.71126973   -7.2624431    3797.5919         3724 
   84600   0.70290064   -7.2803722    3791.3803         3717 
   84700   0.69427338   -7.2935014    3793.1665         3737 
   84800   0.70758717   -7.3037306    3799.2022         3745 
   84900    0.7040791   -7.2694013    3794.8795         3748 
   85000   0.70742891   -7.2575049    3786.7333         3754 
   85100     0.701327   -7.2946841    3794.0992         3760 
   85200    0.6915119    -7.297691    3793.6358         3742 
   85300   0.70936883   -7.2763015    3798.7352         3730 
   85400    0.6951478   -7.2773953    3794.6287         3770 
   85500   0.69993891   -7.2827286    3793.0837         3771 
   85600   0.69259459    -7.291603    3792.4232         3801 
   85700   0.69844727   -7.2946761    3791.6766         3768 
   85800   0.70100022   -7.2626448    3791.1215         3755 
   85900   0.68725546   -7.2760557    3793.4871         3772 
   86000   0.68723898   -7.2865961    3798.5107         3771 
   86100   0.70597777   -7.2732539    3787.6441         3747 
   86200   0.69290191   -7.2974735    3787.3671         3756 
   86300   0.69545532   -7.3027209    3796.3309         3781 
   86400   0.70154427    -7.277153    3803.1194         3761 
   86500   0.69054622   -7.2734157    3792.2585         3788 
   86600   0.69921849   -7.2896945    3788.1795         3794 
   86700   0.68815339   -7.2993692    3796.0837         3766 
   86800   0.70859768   -7.2801905    3794.2137         3759 
   86900   0.71078271   -7.2667317    3788.1366         3776 
   87000   0.69733163   -7.2976267    3792.9242         3790 
   87100    0.6861155   -7.2914461    3793.4919         3820 
   87200   0.69761642    -7.283352     3794.823         3806 
   87300   0.67765959    -7.280375    3797.4821         3780 
   87400   0.69004609   -7.2892358    3797.6602         3782 
   87500   0.70609296    -7.272068    3800.1053         3788 
   87600   0.70664182   -7.2982933    3785.3295         3788 
   87700   0.69317884   -7.2881802    3784.0528         3786 
   87800   0.71034468   -7.3021302    3795.5143         3781 
   87900   0.70094431   -7.2782899    3793.2894         3792 
   88000   0.68490218   -7.3055852    3790.1589         3819 
   88100   0.69672226   -7.2928265    3793.5061         3786 
   88200   0.70678471   -7.3081183    3798.3889         3782 
   88300   0.68614046   -7.3055788    3784.4071         3804 
   88400   0.70317592   -7.3192275    3786.6897         3829 
   88500    0.7152914   -7.2998618    3781.1188         3816 
   88600   0.70345465   -7.3028684     3782.711         3808 
   88700   0.69454721   -7.3009609    3790.3795         3796 
   88800   0.71144477   -7.3100138    3798.0555         3807 
   88900   0.70149988    -7.307334    3789.6408         3829 
   89000   0.69609711   -7.3016181     3781.867         3830 
   89100   0.70325911    -7.311303    3784.7692         3821 
   89200    0.7171654   -7.3039277    3794.1194         3838 
   89300   0.69639374   -7.3021727    3782.3956         3833 
   89400   0.69694526   -7.3096273    3783.3436         3853 
   89500   0.70900752   -7.3328673    3787.9714         3842 
   89600    0.7053373   -7.3122442      3792.07         3839 
   89700   0.70060072   -7.2995275     3788.624         3815 
   89800   0.69307781   -7.3205929    3780.9894         3824 
   89900   0.70139717   -7.3284006    3791.7718         3810 
   90000   0.69919235   -7.2990129    3800.0469         3816 
   90100   0.70337354   -7.2943106     3792.422         3819 
   90200   0.70289516   -7.3150549    3778.0012         3806 
   90300   0.70143419   -7.3294378    3780.9096         3833 
   90400   0.71197035   -7.3061307     3781.541         3825 
   90500   0.70326126   -7.3174908    3783.2002         3825 
   90600     0.685326   -7.3231194    3789.3656         3819 
   90700   0.69958528   -7.3026853    3790.0455         3838 
   90800   0.69145978   -7.3225612    3781.3173         3815 
   90900    0.6948829   -7.3134692    3777.2635         3838 
   91000   0.71036969   -7.3164776    3776.0846         3835 
   91100   0.72094565   -7.3434594    3784.1639         3835 
   91200   0.72125423   -7.3166744    3782.9758         3855 
   91300   0.69837849    -7.304692    3788.6933         3847 
   91400   0.69362816   -7.3463824    3782.4686         3856 
   91500   0.68670283   -7.3229161    3791.2278         3846 
   91600   0.68972404   -7.3084327    3787.2893         3861 
   91700   0.70274901    -7.341265    3790.3688         3859 
   91800    0.6873733   -7.3330778    3776.1547         3865 
   91900   0.69719681     -7.31564    3794.7312         3884 
   92000   0.69621053   -7.3106748    3778.1971         3879 
   92100   0.69004386   -7.3166983    3768.4961         3861 
   92200   0.69242473   -7.3305885    3792.3379         3864 
   92300   0.69173152   -7.3153168     3791.342         3870 
   92400    0.6973445    -7.349875    3783.3476         3869 
   92500   0.69849513   -7.3226218    3780.3018         3849 
   92600   0.69238008   -7.3169303    3774.7842         3857 
   92700   0.71120474   -7.3374371    3784.8411         3838 
   92800   0.69881783   -7.3059847    3777.7056         3830 
   92900   0.69371651   -7.3357989    3778.2955         3857 
   93000   0.69729865   -7.3310942    3780.7649         3875 
   93100   0.71729556   -7.3262631    3783.8871         3854 
   93200   0.70613069   -7.3386766    3779.0107         3880 
   93300   0.69477675   -7.3473799    3778.2057         3893 
   93400   0.70858609   -7.3596407    3776.5503         3892 
   93500   0.70927347   -7.3225715    3770.5709         3885 
   93600   0.70895864   -7.3412653     3775.617         3865 
   93700   0.69244878   -7.3503885    3782.8494         3851 
   93800   0.70485302   -7.3362748    3785.0759         3854 
   93900   0.70577823   -7.3362392    3774.5553         3881 
   94000   0.70655935   -7.3582326    3775.8008         3881 
   94100   0.70316072   -7.3442675    3773.3312         3895 
   94200   0.69865103    -7.364985      3778.03         3898 
   94300   0.70759256   -7.3409479    3782.6475         3878 
   94400   0.68591464   -7.3331415     3777.142         3882 
   94500   0.69544649   -7.3557503    3773.1661         3893 
   94600   0.69872848   -7.3567222    3773.3437         3890 
   94700   0.68628776   -7.3329422    3779.4019         3852 
   94800   0.70606316   -7.3409017    3788.1316         3862 
   94900   0.70557488   -7.3351125    3778.8242         3877 
   95000    0.7078088   -7.3564229    3766.2923         3877 
   95100   0.69152555   -7.3542527    3770.5882         3874 
   95200   0.68139955   -7.3245733    3785.6767         3865 
   95300   0.69346632   -7.3471341    3795.1781         3857 
   95400   0.69745853    -7.348753    3778.9314         3879 
   95500   0.70480266   -7.3367779    3771.4592         3884 
   95600   0.70068849   -7.3384703    3783.5014         3869 
   95700   0.70448282   -7.3642451    3770.1119         3862 
   95800   0.70517763   -7.3624054    3771.9455         3882 
   95900   0.70216516   -7.3493114    3777.9486         3881 
   96000   0.70547582   -7.3532697    3774.4113         3882 
   96100   0.69107394   -7.3633568    3775.4287         3888 
   96200   0.70374669   -7.3674456    3777.0614         3910 
   96300    0.6975389   -7.3373509    3768.4468         3909 
   96400   0.70089554   -7.3616178    3769.1753         3904 
   96500   0.71682442    -7.368997    3785.5778         3904 
   96600   0.68928806   -7.3570863    3780.8748         3903 
   96700   0.71481945   -7.3667618    3761.7322         3897 
   96800   0.70174056   -7.3473681    3757.7358         3911 
   96900   0.69927083   -7.3457795    3785.1505         3897 
   97000   0.70089381   -7.3579261    3783.7159         3914 
   97100   0.69476856   -7.3720656    3771.7486         3897 
   97200   0.71184265   -7.3726869    3774.3094         3884 
   97300   0.69971059   -7.3583356    3770.5876         3895 
   97400   0.70615775   -7.3599522    3767.7855         3889 
   97500     0.699273   -7.3589818    3776.2006         3881 
   97600   0.70247258   -7.3540126    3777.6946         3896 
   97700   0.68200044    -7.341767     3769.121         3893 
   97800   0.69797634   -7.3479785     3774.777         3902 
   97900   0.70074665    -7.351493    3794.1263         3885 
   98000   0.69704961   -7.3665813    3783.4785         3893 
   98100   0.69721589   -7.3549346    3773.9083         3887 
   98200   0.71115516   -7.3472695    3767.1915         3894 
   98300   0.70821066     -7.38576    3764.9567         3889 
   98400   0.70511862   -7.3670943    3772.5198         3892 
   98500   0.71682068   -7.3498544    3765.6558         3894 
   98600    0.7132987   -7.3679802    3765.3777         3887 
   98700   0.69263473   -7.3795477    3770.9212         3895 
   98800   0.69886091     -7.36557    3765.4736         3893 
   98900   0.71084333   -7.3740467    3773.9468         3891 
   99000   0.68743778   -7.3701843    3769.0119         3873 
   99100   0.68793579   -7.3610528    3771.7156         3887 
   99200   0.68918365   -7.3439299    3775.7228         3873 
   99300   0.68001655   -7.3437861    3772.8985         3889 
   99400   0.69444513    -7.385414    3777.7554         3891 
   99500   0.70346151   -7.3542663    3775.5769         3877 
   99600   0.71013169   -7.3383081    3759.3575         3886 
   99700   0.71735486   -7.3809463    3761.3134         3875 
   99800   0.71766054   -7.3806256    3772.7369         3882 
   99900   0.69409675   -7.3531641    3780.8106         3879 
  100000   0.69241838    -7.378624     3769.118         3875 
  100100   0.69425868   -7.3549217     3772.741         3881 
  100200   0.70157507    -7.343904    3768.2101         3893 
  100300   0.68828652   -7.3739344    3770.4647         3880 
  100400   0.69258258   -7.3623288    3773.6526         3882 
  100500   0.70406458   -7.3336429    3779.8139         3891 
  100600    0.7152142   -7.3562304    3776.3159         3895 
  100700   0.71727047    -7.370801    3770.2731         3898 
  100800   0.70358559   -7.3731417    3760.3085         3897 
  100900   0.71042671   -7.3731802    3765.8076         3904 
  101000    0.7249358   -7.3646085     3773.241         3889 
  101100   0.70041791   -7.3636553    3761.6978         3888 
  101200    0.7049003   -7.3675565    3767.6283         3894 
  101300   0.72061784   -7.3567277    3775.4668         3881 
  101400   0.70662608   -7.3628264    3775.4541         3882 
  101500   0.70209068   -7.3738991    3764.8007         3882 
  101600   0.68151708   -7.3647866    3768.2972         3861 
  101700   0.70328548   -7.3696544    3780.7669         3840 
  101800   0.70606802   -7.3684734    3769.4141         3874 
  101900   0.68851702   -7.3736627    3769.8227         3876 
  102000   0.70077149   -7.3774005    3777.0798         3880 
  102100     0.699602   -7.3820612    3763.6058         3906 
  102200   0.68752582   -7.3710645    3769.9951         3894 
  102300   0.69570485   -7.3665567    3776.0756         3878 
  102400   0.70258424   -7.3506981    3776.6065         3888 
  102500   0.70116326   -7.3539706    3781.5632         3881 
  102600    0.7077012   -7.3893332    3771.3086         3875 
  102700   0.69481948   -7.3725667    3770.0618         3898 
  102800   0.71506241    -7.355697    3776.6913         3881 
  102900   0.70926111       -7.369    3762.9302         3890 
  103000   0.70935651   -7.3836333    3760.3879         3913 
  103100   0.68789664   -7.3933783    3763.6673         3926 
  103200   0.68787534   -7.4038543    3759.3658         3921 
  103300   0.69450538   -7.3748886    3774.4622         3913 
  103400   0.69595645   -7.3552458    3767.0099         3903 
  103500   0.69274219   -7.3856304    3763.7873         3911 
  103600   0.70381649   -7.3733235    3767.2281         3899 
  103700   0.71978795   -7.3807477     3774.687         3908 
  103800   0.69734049   -7.3692612    3758.4262         3900 
  103900   0.71210548   -7.3686774    3760.9954         3911 
  104000    0.7095074   -7.3829422    3766.0533         3906 
Loop time of 189.15 on 32 procs for 100000 steps with 4000 atoms

Performance: 91356.283 tau/day, 528.682 timesteps/s
99.7% CPU use with 32 MPI tasks x no OpenMP threads

MPI task timing breakdown:
Section |  min time  |  avg time  |  max time  |%varavg| %total
---------------------------------------------------------------
Pair    | 16.451     | 16.733     | 17.06      |   3.5 |  8.85
Neigh   | 1.6304     | 1.6557     | 1.6893     |   1.0 |  0.88
Comm    | 8.7175     | 9.357      | 10.309     |  13.0 |  4.95
Output  | 5.7833     | 5.7839     | 5.7956     |   0.1 |  3.06
Modify  | 150.71     | 153.11     | 154.29     |   7.6 | 80.94
Other   |            | 2.515      |            |       |  1.33

Nlocal:        125.000 ave         130 max         120 min
Histogram: 1 2 5 4 1 6 2 3 4 4
Nghost:        2033.53 ave        2053 max        2013 min
Histogram: 2 3 2 2 7 2 5 4 3 2
Neighs:        15103.9 ave       15756 max       14398 min
Histogram: 3 3 3 3 2 3 5 4 3 3
FullNghs:      30207.1 ave       31477 max       29011 min
Histogram: 4 3 4 2 3 5 1 3 5 2

Total # of neighbors = 966627
Ave neighs/atom = 241.65675
Neighbor list builds = 4999
Dangerous builds = 0

#clear
#
#next RN
#
#jump SELF
Total wall time: 0:03:10
