
units lj                  # Use reduced LJ style units
atom_style atomic         # Uncharged point particles
atom_modify map hash      # Needed for indexing of clusters etc
                          # Used to be able to find where atoms are in relation to each other.

# Define a lattice with which to populate the simulation cell. With units
# set to 'lj' the second argument to the lattice command is the reduced
# density rho* and the spacings are multiples of that required to acheive
# that density. Also define a simulation cell called 'box' in lattice units
# and fill it with atoms. Here we're creating a box which is ten lattice
# constants in each direction.
lattice fcc 1.0 spacing 1 1 1                 # All equal sizes - gives the right reduced density.
Lattice spacing in x,y,z = 1.5874011 1.5874011 1.5874011

region box block 0 10 0 10 0 10 units lattice # Defines a region, "box", in lattice units
create_box 1 box                              # Creates a simulation box as specified above,
Created orthogonal box = (0.0000000 0.0000000 0.0000000) to (15.874011 15.874011 15.874011)
  4 by 4 by 4 MPI processor grid
                                              # with one type of atom
create_atoms 1 box                            # Creates particles on lattice points
Created 4000 atoms
  using lattice units in orthogonal box = (0.0000000 0.0000000 0.0000000) to (15.874011 15.874011 15.874011)
  create_atoms CPU = 0.003 seconds


# Set the mass of the first (and only) atom type.
mass 1 1.0

# Lennard-Jones interactions between particles, 3.5 sigma cut-off. Apply
# long range tail corrections to energy and pressure and set all coefficients
# to unity since we work in reduced units here. Note that this doesn't shift
# the potential such that it goes to zero at the cutoff. That would require
# pair_modify('shift', 'yes').
pair_style lj/cut  3.5      # non-GPU version
pair_modify tail  yes
pair_coeff 1  1  1.0  1.0   # Intearaction between 1 and 1 set with epsilon = 1 and sigma = 1

write_data data.*
System init for write_data ...
Neighbor list info ...
  update every 1 steps, delay 10 steps, check yes
  max neighbors/atom: 2000, page size: 100000
  master list distance cutoff = 3.8
  ghost atom cutoff = 3.8
  binsize = 1.9, bins = 9 9 9
  1 neighbor lists, perpetual/occasional/extra = 1 0 0
  (1) pair lj/cut, perpetual
      attributes: half, newton on
      pair build: half/bin/atomonly/newton
      stencil: half/bin/3d
      bin: standard

#############################
#   M E L T   S Y S T E M   #
#############################

velocity all create 2.4 5300450 mom yes dist gaussian # Assign velocities
                                                    # Temperature 2.4, random number seed, zero linear momentum
						                                                        # Gaussian distribution

timestep 0.002   # simulation timestep
thermo 100       # output thermodynamic data every 100 steps

# Define a fix  in this case with index 1 applied to all
# particles in the simulation. This fix is for simulations
# in the anisotropic NPT ensemble. Note that we use the MTK
# correction.
fix 1 all npt temp 2.4 2.4 0.1 iso 5.68 5.68 0.5 mtk yes tchain 5 pchain 5 # Use NPT ensemble
                                                                         # Set temperature and pressure and damping
                                                                         # Numbers of thermostats in chain and in barostat
run 1000         # run for 10000 steps
Per MPI rank memory allocation (min/avg/max) = 3.630 | 3.630 | 3.630 Mbytes
Step Temp E_pair E_mol TotEng Press Volume 
       0          2.4   -8.3859253            0   -4.7868253   -2.2405722         4000 
     100    1.2568457    -6.520638            0   -4.6358408    5.4054415    4090.5418 
     200    1.4749962   -6.3123998            0   -4.1004586    5.9706789    4139.2832 
     300    1.6124068   -6.0569481            0   -3.6389426    5.7397492    4264.5301 
     400    1.7168752   -5.7431758            0   -3.1685069    5.9205944    4390.8204 
     500    1.7900089   -5.4300953            0   -2.7457532    5.8244207    4548.9907 
     600    1.8749878   -5.1356604            0   -2.3238818    5.7834378    4705.6354 
     700    1.9882515   -4.8678934            0   -1.8862617    5.9915018     4837.506 
     800    2.1327811   -4.6988753            0   -1.5005035    5.7798366    4974.3967 
     900    2.2952123   -4.5871705            0   -1.1452128    5.7568633    5062.5276 
    1000    2.3419515   -4.4435081            0  -0.93145903    5.7034406     5160.776 
Loop time of 0.203841 on 64 procs for 1000 steps with 4000 atoms

Performance: 847718.833 tau/day, 4905.780 timesteps/s
99.5% CPU use with 64 MPI tasks x no OpenMP threads

MPI task timing breakdown:
Section |  min time  |  avg time  |  max time  |%varavg| %total
---------------------------------------------------------------
Pair    | 0.058979   | 0.062874   | 0.067308   |   0.8 | 30.84
Neigh   | 0.013963   | 0.014715   | 0.015544   |   0.3 |  7.22
Comm    | 0.093224   | 0.097142   | 0.10125    |   0.6 | 47.66
Output  | 0.00028955 | 0.00029342 | 0.00034752 |   0.0 |  0.14
Modify  | 0.024769   | 0.02691    | 0.028776   |   0.5 | 13.20
Other   |            | 0.001906   |            |       |  0.93

Nlocal:        62.5000 ave          69 max          56 min
Histogram: 7 2 3 12 7 7 13 5 2 6
Nghost:        1253.14 ave        1273 max        1234 min
Histogram: 2 7 6 8 11 5 9 8 7 1
Neighs:        5540.11 ave        6253 max        4768 min
Histogram: 2 5 5 12 10 8 5 5 7 5

Total # of neighbors = 354567
Ave neighs/atom = 88.641750
Neighbor list builds = 87
Dangerous builds = 24

# Equilibrate just above the melting temperature to avoid step fn in T

fix 1 all npt temp 1.25 1.25 0.1 iso 5.68 5.68 0.5 mtk yes tchain 5 pchain 5
run 1000
Per MPI rank memory allocation (min/avg/max) = 3.631 | 3.631 | 3.631 Mbytes
Step Temp E_pair E_mol TotEng Press Volume 
    1000    2.3419515   -4.4435081            0  -0.93145903    5.7034406     5160.776 
    1100    1.9505664   -4.6860744            0   -1.7609562    5.6875043    4990.5455 
    1200    1.7145364   -4.9478458            0   -2.3766842    5.6803952    4813.9806 
    1300    1.5789627   -5.2178493            0   -2.8499973     5.626771    4671.2595 
    1400     1.466042   -5.4083802            0    -3.209867    5.7430009    4553.7478 
    1500    1.3483489   -5.5238765            0   -3.5018588    5.7608991    4484.5069 
    1600    1.3065005   -5.6674797            0   -3.7082189    5.6719356    4427.5375 
    1700    1.2613667   -5.7293973            0   -3.8378202     5.676448    4393.2208 
    1800    1.2706154   -5.8058844            0   -3.9004378    5.6537836    4362.5534 
    1900    1.2416506   -5.8085169            0   -3.9465067    5.6540218    4357.9646 
    2000    1.2530204     -5.85012            0   -3.9710592    5.4158949    4363.6997 
Loop time of 0.200731 on 64 procs for 1000 steps with 4000 atoms

Performance: 860854.055 tau/day, 4981.794 timesteps/s
99.9% CPU use with 64 MPI tasks x no OpenMP threads

MPI task timing breakdown:
Section |  min time  |  avg time  |  max time  |%varavg| %total
---------------------------------------------------------------
Pair    | 0.058149   | 0.061809   | 0.065731   |   0.7 | 30.79
Neigh   | 0.011945   | 0.01264    | 0.013449   |   0.3 |  6.30
Comm    | 0.093663   | 0.098305   | 0.10247    |   0.7 | 48.97
Output  | 0.00029851 | 0.0003049  | 0.00035411 |   0.0 |  0.15
Modify  | 0.023314   | 0.02526    | 0.027363   |   0.6 | 12.58
Other   |            | 0.002412   |            |       |  1.20

Nlocal:        62.5000 ave          68 max          53 min
Histogram: 1 1 3 0 5 10 20 8 12 4
Nghost:        1399.92 ave        1420 max        1382 min
Histogram: 6 4 6 9 5 11 12 6 2 3
Neighs:        6535.45 ave        7153 max        5253 min
Histogram: 1 0 2 4 2 9 13 19 7 7

Total # of neighbors = 418269
Ave neighs/atom = 104.56725
Neighbor list builds = 74
Dangerous builds = 4


# Small amount of linear quench

fix 1 all npt temp 1.25 ${temp} 0.1 iso 5.68 5.68 0.5 mtk yes tchain 5 pchain 5
fix 1 all npt temp 1.25 0.05 0.1 iso 5.68 5.68 0.5 mtk yes tchain 5 pchain 5
run 2000
Per MPI rank memory allocation (min/avg/max) = 3.631 | 3.631 | 3.631 Mbytes
Step Temp E_pair E_mol TotEng Press Volume 
    2000    1.2530204     -5.85012            0   -3.9710592    5.4158949    4363.6997 
    2100    1.2133041   -5.8577029            0   -4.0382017    5.4858114    4349.7207 
    2200    1.1938291   -5.9150453            0   -4.1247493     5.549706    4318.5475 
    2300    1.1490778   -5.9804126            0   -4.2572268    5.6222162    4281.0126 
    2400     1.094196   -6.0459886            0    -4.405105    5.5929825    4256.0727 
    2500    1.0399324   -6.1232221            0   -4.5637134    5.5416466    4224.6234 
    2600   0.98885627   -6.2036032            0   -4.7206896     5.633534    4183.3614 
    2700   0.93416544   -6.2792996            0   -4.8784017     5.675012     4145.811 
    2800   0.89244683    -6.393101            0   -5.0547654    5.5860669    4108.7863 
    2900   0.82848276   -6.4814195            0    -5.239006    5.5852445    4072.0622 
    3000    0.7729487   -6.5676181            0   -5.4084849    5.7421858    4028.2752 
    3100   0.72325315   -6.6615167            0   -5.5769082    5.7995833      3988.73 
    3200   0.65086322   -6.7316757            0   -5.7556249    5.8182718    3958.3553 
    3300   0.60331697   -6.8334999            0   -5.9287507    5.7414024    3927.7581 
    3400   0.53995003   -6.9201945            0    -6.110472    5.6216561    3904.1215 
    3500   0.48956476   -7.0086794            0   -6.2745159    5.6524062    3870.0902 
    3600   0.43026376   -7.0964387            0   -6.4512044    5.5406202    3846.0479 
    3700   0.36544893   -7.1669274            0    -6.618891    5.5709687    3819.0728 
    3800   0.31630983   -7.2524791            0    -6.778133     5.630773    3787.5654 
    3900   0.25504518   -7.3259987            0   -6.9435266    5.6732526    3761.2584 
    4000   0.18929417   -7.3997701            0   -7.1158998    5.7054166    3734.7993 
Loop time of 0.421124 on 64 procs for 2000 steps with 4000 atoms

Performance: 820661.189 tau/day, 4749.197 timesteps/s
100.0% CPU use with 64 MPI tasks x no OpenMP threads

MPI task timing breakdown:
Section |  min time  |  avg time  |  max time  |%varavg| %total
---------------------------------------------------------------
Pair    | 0.13203    | 0.13935    | 0.15307    |   1.0 | 33.09
Neigh   | 0.017721   | 0.01858    | 0.019907   |   0.3 |  4.41
Comm    | 0.1877     | 0.20238    | 0.21131    |   1.0 | 48.06
Output  | 0.00078819 | 0.00079692 | 0.00090014 |   0.0 |  0.19
Modify  | 0.050398   | 0.053      | 0.056372   |   0.6 | 12.59
Other   |            | 0.007024   |            |       |  1.67

Nlocal:        62.5000 ave          69 max          58 min
Histogram: 6 9 5 15 7 11 4 2 3 2
Nghost:        1556.94 ave        1575 max        1534 min
Histogram: 1 0 3 10 10 13 10 8 5 4
Neighs:        7730.05 ave        8562 max        7048 min
Histogram: 5 0 12 10 13 10 4 6 2 2

Total # of neighbors = 494723
Ave neighs/atom = 123.68075
Neighbor list builds = 101
Dangerous builds = 0

#############################
# F R E E Z E  S Y S T E M  #
#############################

# Define solid atoms. This closely follows ten Wolde  Ruiz-Montero and Frenkel  Faraday Discuss  1996  104  93-110
# Compute components of the per-atom q6 vector
compute q6 all orientorder/atom degrees 1 6 components 6 nnn NULL cutoff 1.3 # compute the Q6 parameter.
                                                                             # Use all neighbours within 1.3 unit cell.

# get number of connections
compute coord_number all coord/atom orientorder q6 0.5

# An atom is solid if it has 8 or more connections (of a possible 14)
variable is_solid atom c_coord_number>=8
group solid dynamic all var is_solid    # Must be dynamic to update
dynamic group solid defined

# do clustering
compute cluster solid cluster/atom 1.3 # Create a cluster where all atoms within are solid and max 1.3 units from another member

# define chunks one chunk per cluster
compute clus_chunks solid chunk/atom c_cluster nchunk every compress yes  # Says which atoms are in which chunk

# count the size of each chunk
compute size_chunks solid property/chunk clus_chunks count


# Find the maximum entry in the vector of chunk sizes
variable max_n equal max(c_size_chunks)


# Thermo style which includes this variable
thermo_style custom step temp pe vol v_max_n

thermo ${N}  # Print the thermo information every 100 steps
thermo 100  

# Reset the npt fix at a lower temperature (below freezing)
fix 1  all npt temp  ${temp} ${temp}  0.1  iso  5.68  5.68  0.5  mtk yes tchain  5  pchain  5
fix 1  all npt temp  0.05 ${temp}  0.1  iso  5.68  5.68  0.5  mtk yes tchain  5  pchain  5
fix 1  all npt temp  0.05 0.05  0.1  iso  5.68  5.68  0.5  mtk yes tchain  5  pchain  5

dump dmp2 all dcd ${N} traj_${rand}.dcd
dump dmp2 all dcd 100 traj_${rand}.dcd
dump dmp2 all dcd 100 traj_462431.dcd


# fix rnuntil all halt ${N} v_max_n >= 3980 error soft message no   # Stop when solidified


run 100000 # 5000000  # Run for this many steps
Neighbor list info ...
  update every 1 steps, delay 10 steps, check yes
  max neighbors/atom: 2000, page size: 100000
  master list distance cutoff = 3.8
  ghost atom cutoff = 3.8
  binsize = 1.9, bins = 9 9 9
  4 neighbor lists, perpetual/occasional/extra = 1 3 0
  (1) pair lj/cut, perpetual
      attributes: half, newton on
      pair build: half/bin/atomonly/newton
      stencil: half/bin/3d
      bin: standard
  (2) compute orientorder/atom, occasional
      attributes: full, newton on
      pair build: full/bin/atomonly
      stencil: full/bin/3d
      bin: standard
  (3) compute coord/atom, occasional
      attributes: full, newton on
      pair build: full/bin/atomonly
      stencil: full/bin/3d
      bin: standard
  (4) compute cluster/atom, occasional
      attributes: full, newton on
      pair build: full/bin/atomonly
      stencil: full/bin/3d
      bin: standard
Per MPI rank memory allocation (min/avg/max) = 9.353 | 9.358 | 9.363 Mbytes
Step Temp PotEng Volume v_max_n 
    4000   0.18929417   -7.3997701    3734.7993           44 
    4100   0.14392857   -7.4658941      3714.01           33 
    4200    0.1130054   -7.5122629    3700.2104           47 
    4300  0.090932413   -7.5425267    3692.7523           88 
    4400  0.077633355   -7.5658881    3686.9946           60 
    4500  0.068430333   -7.5831847    3682.8588          123 
    4600   0.06139914   -7.5930064    3677.6987          116 
    4700  0.057156574   -7.5986707     3671.374          144 
    4800  0.055056144   -7.6066279    3667.4528          109 
    4900  0.053162919   -7.6144498     3666.124          108 
    5000   0.05195508   -7.6227331    3666.0467          141 
    5100  0.050088184   -7.6276688     3666.914          152 
    5200  0.051232826   -7.6328863    3666.2025          144 
    5300   0.04973802   -7.6350979    3665.2423           79 
    5400  0.050876824    -7.638092    3663.3202          111 
    5500  0.050295326    -7.639198     3661.996          109 
    5600  0.049794644   -7.6393755    3660.9934          113 
    5700  0.051875177   -7.6399161    3660.5347          116 
    5800  0.050119687   -7.6423217     3660.129           89 
    5900  0.050513263   -7.6463073    3660.2407           83 
    6000  0.049677218   -7.6492102    3660.6039          115 
    6100  0.050161249    -7.650761    3660.9449          155 
    6200  0.051171055   -7.6529424    3660.4299          189 
    6300  0.050291993   -7.6536826    3658.6987          126 
    6400  0.050346779    -7.652421    3656.0729          155 
    6500  0.049179289   -7.6499279    3654.5208          142 
    6600  0.051049739    -7.650948    3655.1146           98 
    6700  0.050779449   -7.6563824    3656.3108          155 
    6800  0.050622211   -7.6593296    3657.3819          198 
    6900   0.04974343   -7.6609776    3657.5533          160 
    7000  0.050097274   -7.6617572    3657.2302          199 
    7100  0.049542485   -7.6623293    3656.3432          166 
    7200   0.04990647     -7.65975    3655.9619          147 
    7300  0.050336662   -7.6608144    3654.9654          189 
    7400  0.049938766   -7.6627629    3654.1148          183 
    7500  0.050105592   -7.6653124    3653.4966          184 
    7600  0.049839511   -7.6676327    3653.6349          205 
    7700  0.050924045   -7.6691534    3654.6557          177 
    7800  0.051012391   -7.6705789    3655.8155           91 
    7900  0.050176351   -7.6724849    3655.5405          128 
    8000  0.050046293   -7.6712845    3654.5249          219 
    8100  0.050654455   -7.6672205    3653.0278          252 
    8200  0.050808226   -7.6657437    3651.6749          201 
    8300  0.050122478   -7.6676546    3650.9347          286 
    8400  0.049977254   -7.6706253    3651.6852          162 
    8500  0.048419438   -7.6719081    3652.6912          299 
    8600   0.05027151   -7.6724405    3653.4797          239 
    8700  0.051303317   -7.6743373    3653.1136          374 
    8800  0.050710142   -7.6751724    3652.6553          242 
    8900  0.049479208   -7.6749391    3652.3089          181 
    9000  0.049988198   -7.6740356    3652.1033          204 
    9100  0.049009556   -7.6724929     3651.818          272 
    9200  0.049673839   -7.6721139    3651.4586          407 
    9300  0.051467703   -7.6737897     3651.182          295 
    9400  0.049044534   -7.6742576    3652.2972          263 
    9500  0.051281016    -7.677576    3653.6521          253 
    9600  0.050042542   -7.6793551    3653.9421          404 
    9700  0.050528929   -7.6792958    3653.5606          279 
    9800   0.05064157   -7.6753121    3652.3332          242 
    9900  0.050223077   -7.6744549    3650.2316          402 
   10000  0.049671553    -7.673851    3649.3403          429 
   10100  0.050118157   -7.6747358    3649.6979          443 
   10200   0.05020895   -7.6758343    3650.7963          381 
   10300  0.050321119   -7.6793122    3651.3414          254 
   10400  0.049760848   -7.6790727    3651.9114          440 
   10500  0.051240542   -7.6795096    3651.7392          451 
   10600  0.050517368   -7.6801346    3650.9575          454 
   10700   0.05019521    -7.680668    3650.4703          450 
   10800  0.049792759   -7.6794927    3650.4847          390 
   10900  0.050935356   -7.6803453    3650.2148          261 
   11000  0.049873928   -7.6810853    3649.9083          282 
   11100  0.050693063   -7.6806499    3650.2453          435 
   11200  0.050020325   -7.6833601    3650.1084          475 
   11300  0.050559502   -7.6856036    3649.8351          451 
   11400  0.049422162   -7.6858629    3650.0054          379 
   11500  0.050592866   -7.6843485    3650.1494          366 
   11600   0.05094622   -7.6860199    3649.1729          494 
   11700  0.050043641   -7.6861349    3647.9855          450 
   11800  0.049855919    -7.686462    3647.0217          458 
   11900  0.051314251   -7.6859238    3647.1352          406 
   12000  0.050245645   -7.6864191     3647.912          479 
   12100  0.049387023   -7.6890971    3649.2512          351 
   12200  0.049797201   -7.6920152    3650.7843          457 
   12300  0.050172946   -7.6921808    3651.1507          477 
   12400  0.050519074   -7.6922716    3649.5388          496 
   12500  0.049742238   -7.6897182     3647.968          518 
   12600  0.050658139   -7.6875939     3647.602          482 
   12700   0.04976694   -7.6888874    3647.3547          340 
   12800   0.04961148   -7.6892269    3647.5204          415 
   12900  0.049385936   -7.6892653    3648.0129          502 
   13000  0.050103901   -7.6912356    3648.1655          396 
   13100  0.049408603   -7.6919428    3648.4521          440 
   13200  0.050108064   -7.6921593    3648.7488          487 
   13300  0.050396873   -7.6928092    3648.4433          524 
   13400  0.051038525   -7.6935521    3647.0803          474 
   13500   0.05003537   -7.6914391    3645.8987          541 
   13600  0.050072763   -7.6892958    3645.2919          468 
   13700  0.050970902   -7.6897469    3645.5617          559 
   13800  0.049880914   -7.6926431    3646.1249          540 
   13900  0.049730975   -7.6937865    3648.0634          458 
   14000  0.050381571   -7.6958322    3648.8181          480 
   14100  0.049889991   -7.6979926    3648.4781          514 
   14200  0.050515983   -7.6972773    3647.7635          474 
   14300  0.051249108    -7.694256    3647.0075          479 
   14400  0.049805138   -7.6943503    3645.7175          493 
   14500  0.048871558   -7.6928455    3645.3293          532 
   14600  0.050945605   -7.6935483    3645.7653          507 
   14700  0.050329472   -7.6959722    3645.8729          571 
   14800  0.049640523   -7.6968273    3646.4672          568 
   14900  0.048529159   -7.6979167    3646.1892          593 
   15000  0.049639424   -7.6975616     3646.501          530 
   15100  0.050647445   -7.6985386     3645.957          561 
   15200  0.050624814   -7.7004115    3645.0881          642 
   15300  0.050410297   -7.7006044    3645.0151          648 
   15400  0.048688071   -7.7011186    3644.6031          683 
   15500  0.049618075   -7.6999197    3644.6071          636 
   15600  0.050598887   -7.6995007    3644.7585          583 
   15700  0.050647236   -7.6995725    3645.5176          606 
   15800  0.050571817   -7.7027875    3645.8449          623 
   15900  0.050048933   -7.7039115    3646.0946          629 
   16000  0.050047356   -7.7033996    3646.1441          628 
   16100  0.049834976    -7.700343    3645.5952          646 
   16200  0.049687605   -7.6992006    3643.6449          620 
   16300  0.048316382   -7.6981909     3642.316          640 
   16400  0.050266134   -7.6984099    3642.1146          647 
   16500  0.050003227   -7.7006618    3643.1831          653 
   16600  0.049693912   -7.7040436    3644.3623          643 
   16700  0.047940248   -7.7042352    3645.1459          644 
   16800  0.050815593   -7.7053616    3645.0762          694 
   16900  0.050071958    -7.703863     3645.177          675 
   17000   0.05142339   -7.7029401    3644.7436          674 
   17100   0.04956361   -7.7027263    3644.0741          645 
   17200  0.049848331    -7.701801    3643.9106          657 
   17300  0.050210542   -7.7009443    3643.8477          659 
   17400  0.048889871    -7.702093    3643.8564          681 
   17500  0.049380036   -7.7029136     3644.184          660 
   17600  0.050366367   -7.7041801     3645.774          666 
   17700  0.049550468    -7.706497    3646.5102          672 
   17800  0.049187814   -7.7073097    3646.1409          668 
   17900  0.050164894   -7.7042463    3645.3256          707 
   18000  0.049897981   -7.7018962    3643.5845          691 
   18100  0.050056576   -7.7013135    3642.3333          677 
   18200  0.050105007   -7.7009122    3642.4184          685 
   18300  0.050269811   -7.7020884    3643.0775          722 
   18400  0.049946052   -7.7045596    3643.6095          696 
   18500  0.050777465   -7.7048828    3644.2747          685 
   18600  0.050430967   -7.7049996    3644.9007          686 
   18700  0.050333843    -7.705485    3644.2093          698 
   18800  0.049765097   -7.7042386    3644.1945          682 
   18900  0.050716124   -7.7035119    3644.1439          688 
   19000  0.049967382   -7.7045011    3643.8208          661 
   19100   0.05027531     -7.70395    3643.6702          628 
   19200  0.050122875   -7.7042887    3643.7149          624 
   19300  0.049305933   -7.7050905    3643.6461          618 
   19400  0.049685165   -7.7045822    3644.0591          639 
   19500  0.050963103   -7.7050152    3644.4053          701 
   19600  0.049370743    -7.706408     3644.314          693 
   19700  0.050109944   -7.7057013    3644.1721          714 
   19800  0.050011993   -7.7036724    3644.1625          714 
   19900  0.049895903   -7.7039402    3643.0518          661 
   20000  0.049100741   -7.7027164    3642.5441          659 
   20100  0.050440334   -7.7021338    3642.7558          677 
   20200  0.049625186   -7.7040012    3643.1919          658 
   20300  0.050703382   -7.7074303    3644.3665          661 
   20400  0.050372684   -7.7077716    3646.4464          622 
   20500  0.049725567   -7.7083734    3646.8588          636 
   20600  0.050576711   -7.7086496    3645.2458          702 
   20700  0.050412985   -7.7038783    3644.2679          683 
   20800  0.050404994   -7.7036624    3643.0617          712 
   20900  0.051005465   -7.7047423    3642.6771          665 
   21000  0.048454123    -7.702439    3643.4665          663 
   21100  0.049983131   -7.7042532    3643.5299          669 
   21200  0.050130904   -7.7044862     3644.069          661 
   21300  0.050202785   -7.7058049    3644.3324          695 
   21400  0.049037361   -7.7059125    3644.6426          666 
   21500  0.050514997   -7.7059395    3644.6636          661 
   21600  0.049008954   -7.7047286    3644.2951          730 
   21700  0.050106048   -7.7041802    3642.8671          681 
   21800  0.049825614   -7.7005478    3642.1575          655 
   21900  0.048943574   -7.7008904    3641.5418          656 
   22000  0.049798042   -7.7031457     3642.195          662 
   22100  0.050436823     -7.70426    3644.4692          662 
   22200  0.049681321   -7.7066905    3645.4552          653 
   22300  0.050718663   -7.7079352     3645.691          648 
   22400  0.050713953   -7.7071345    3645.4432          673 
   22500  0.050105146   -7.7066828    3644.1687          685 
   22600  0.050058559    -7.704447    3643.2159          702 
   22700  0.050125186   -7.7022027    3643.0994          672 
   22800  0.048755564   -7.7030203    3642.8205          693 
   22900  0.049459245   -7.7045423    3643.0378          663 
   23000  0.050762061   -7.7046984    3643.9505          646 
   23100  0.049560703   -7.7040574    3644.3424          652 
   23200  0.050821669   -7.7057577     3644.053          646 
   23300  0.050134628   -7.7065019    3643.7308          643 
   23400  0.050070339   -7.7045039    3644.0871          667 
   23500  0.050132004   -7.7039666      3643.85          676 
   23600   0.05046892   -7.7050819    3643.3706          680 
   23700  0.050060749   -7.7050987    3642.9714          674 
   23800  0.050459582   -7.7025588    3643.4528          665 
   23900  0.049912832   -7.7040444     3643.789          682 
   24000  0.048919063   -7.7047784    3644.7022          675 
   24100   0.04970524   -7.7061304    3645.7425          669 
   24200   0.05072147   -7.7061902    3646.0109          674 
   24300  0.049190772   -7.7063162    3645.1417          680 
   24400  0.050101082   -7.7041852    3643.4787          653 
   24500  0.050829507   -7.7024779    3642.0418          668 
   24600  0.048831786   -7.7007651    3641.5639          715 
   24700  0.050088207   -7.7013261    3642.3293          693 
   24800   0.04918652   -7.7040335    3643.2828          653 
   24900  0.049890277   -7.7058943    3644.0796          700 
   25000  0.050519556   -7.7048544    3644.7867          664 
   25100  0.049507051   -7.7055316     3644.501          705 
   25200  0.050279847   -7.7055162    3644.2504          654 
   25300  0.050707174   -7.7029496    3644.3317          659 
   25400  0.050285349   -7.7036221    3643.7038          674 
   25500  0.050274601    -7.704923    3643.0412          664 
   25600  0.049426514   -7.7040047    3642.8574          691 
   25700  0.050487098   -7.7035949    3643.3211          655 
   25800  0.049318622   -7.7041626    3644.6018          675 
   25900   0.04904632   -7.7082017    3645.6077          688 
   26000  0.050880021   -7.7091106    3646.2635          648 
   26100  0.050200071   -7.7073758    3645.5659          640 
   26200  0.049989947   -7.7026821    3644.7849          673 
   26300  0.049564508   -7.7019692    3643.1412          681 
   26400  0.050804517   -7.7033356    3642.0932          665 
   26500  0.047930427   -7.7038214    3642.4199          702 
   26600  0.049497006   -7.7038164     3643.153          653 
   26700  0.049933081    -7.704684    3644.1499          616 
   26800  0.050687562   -7.7055426     3644.345          648 
   26900  0.049998252   -7.7054577    3644.1349          675 
   27000  0.049647904   -7.7053193    3644.0132          635 
   27100  0.050590767   -7.7033059    3644.2171          713 
   27200  0.050627559   -7.7049433    3643.5407          680 
   27300  0.049609642   -7.7042905    3643.6977          671 
   27400  0.051099175   -7.7047091    3643.8629          653 
   27500  0.049587254   -7.7047868    3643.6749          679 
   27600  0.049988554   -7.7059294    3643.5075          648 
   27700   0.05089561   -7.7040771    3644.1217          674 
   27800  0.050350117    -7.705347    3644.1563          673 
   27900   0.04970126   -7.7061509    3643.8167          662 
   28000  0.050504406   -7.7049614    3643.9973          681 
   28100  0.050859445   -7.7052948     3643.463          698 
   28200  0.048756483   -7.7051044    3643.3292          666 
   28300  0.050495354   -7.7048051    3642.8281          680 
   28400  0.049915619   -7.7032297     3643.641          712 
   28500  0.049801588   -7.7043535    3643.8363          665 
   28600  0.049148855   -7.7064717    3644.1697          669 
   28700  0.051491215   -7.7074674    3645.1983          653 
   28800  0.050317472   -7.7078728    3645.4801          653 
   28900  0.049075249   -7.7077773    3644.5216          667 
   29000  0.049478285   -7.7037982    3643.4517          658 
   29100   0.05034985    -7.701677    3641.8985          648 
   29200  0.049494924   -7.7016352    3641.1954          683 
   29300  0.049950555   -7.7034585    3641.7587          740 
   29400  0.050085189   -7.7036222    3643.5132          693 
   29500  0.050978694       -7.706    3644.2655          656 
   29600  0.049178914   -7.7061117    3644.4106          649 
   29700  0.050797403   -7.7060619     3644.268          648 
   29800  0.049898939   -7.7057857    3643.9914          615 
   29900  0.050922331   -7.7047415      3644.01          645 
   30000  0.049948991   -7.7040573     3643.596          653 
   30100  0.049681156   -7.7037522    3643.2097          670 
   30200  0.051073326   -7.7036732    3643.3237          687 
   30300   0.04974554   -7.7050768    3643.2794          654 
   30400  0.048910943    -7.704566    3644.2635          669 
   30500  0.049594473   -7.7059815    3645.1734          659 
   30600  0.050269389   -7.7071175    3645.5799          689 
   30700   0.05233186   -7.7070829    3645.2388          700 
   30800  0.050209251   -7.7052794    3643.9911          646 
   30900  0.049905606   -7.7033336    3642.6373          630 
   31000  0.049996214   -7.7012639    3642.0648          661 
   31100  0.051214667   -7.7021323    3641.7097          629 
   31200  0.050256965     -7.70401    3642.5655          667 
   31300  0.049319673   -7.7051331    3643.9497          677 
   31400  0.050772792   -7.7061974     3645.139          669 
   31500  0.049624037   -7.7071934    3644.7619          687 
   31600  0.049593119   -7.7061821    3644.5515          688 
   31700  0.050198233   -7.7049951     3644.127          660 
   31800  0.049700913   -7.7047019    3643.4151          702 
   31900  0.049770835   -7.7046651    3643.0513          684 
   32000  0.050706047   -7.7039167    3643.2199          650 
   32100  0.048899358   -7.7036886    3643.5469          687 
   32200  0.049432627   -7.7057282     3643.595          724 
   32300  0.051074366    -7.706578    3645.0724          640 
   32400  0.049786522   -7.7081088     3646.235          656 
   32500  0.049635652   -7.7102714    3645.6671          642 
   32600  0.050085814   -7.7065022    3644.6818          635 
   32700  0.050062043   -7.7033424    3643.2501          679 
   32800  0.051077888   -7.7027774    3642.0354          657 
   32900  0.050094271   -7.7032064    3642.0066          680 
   33000  0.050242562   -7.7038907    3642.8391          682 
   33100  0.051441435   -7.7045639    3644.0564          675 
   33200  0.050577797   -7.7058721    3644.1394          702 
   33300  0.050801271   -7.7064702    3644.4113          668 
   33400  0.050723542   -7.7045701    3644.9031          663 
   33500  0.050348497   -7.7055565    3644.0637          651 
   33600  0.050413704   -7.7059384    3643.3037          655 
   33700  0.050183479   -7.7041323    3643.5292          683 
   33800  0.050644501   -7.7038316     3643.376          637 
   33900  0.050626412   -7.7047227    3643.3694          689 
   34000  0.049656818   -7.7063572    3643.2875          702 
   34100   0.05017944   -7.7051067    3643.8913          636 
   34200  0.050390461   -7.7052081    3643.9486          660 
   34300  0.048655769   -7.7056061    3643.9403          705 
   34400  0.049799919   -7.7045174     3644.405          704 
   34500  0.050111208   -7.7041326    3643.9311          667 
   34600  0.049165093   -7.7057735    3643.0698          653 
   34700  0.049289295   -7.7029492    3643.0555          665 
   34800  0.051266685   -7.7032005     3642.758          709 
   34900  0.050204186   -7.7049733    3643.0031          664 
   35000  0.048480658    -7.704737    3644.8183          649 
   35100   0.05072419   -7.7077005    3646.0019          660 
   35200  0.049431184   -7.7081229    3646.5233          697 
   35300  0.050260243   -7.7073712    3645.7412          682 
   35400  0.051542568   -7.7044878    3644.2375          670 
   35500  0.049932844   -7.7026458    3642.5824          647 
   35600  0.049999828   -7.7031629    3642.2297          654 
   35700  0.050515906   -7.7028241    3643.0882          671 
   35800  0.049452115   -7.7041224    3643.6577          712 
   35900  0.050449362   -7.7060399    3643.6719          640 
   36000  0.051146078   -7.7059103    3644.3886          662 
   36100  0.049593489   -7.7056999    3644.6033          638 
   36200  0.049522601   -7.7058735     3644.342          691 
   36300  0.049775174   -7.7052736    3643.9266          661 
   36400  0.050266393   -7.7040896    3643.3137          663 
   36500  0.049900205   -7.7019776    3643.0883          659 
   36600   0.04956337    -7.703443    3642.3978          649 
   36700  0.049401809   -7.7031943     3643.237          638 
   36800  0.050435981   -7.7044156    3644.2036          679 
   36900  0.050090064   -7.7075162    3644.8722          694 
   37000  0.050710843   -7.7067271    3645.5866          663 
   37100  0.050314481   -7.7060014    3645.6637          668 
   37200  0.049846732   -7.7069784    3644.1239          695 
   37300  0.050126362   -7.7035812    3643.1169          663 
   37400  0.050248492   -7.7010381    3641.9997          669 
   37500  0.050458301   -7.7016414    3641.5222          657 
   37600  0.049855362   -7.7031051    3642.2087          699 
   37700  0.049440525   -7.7055654    3643.4079          656 
   37800  0.050486823   -7.7057425    3644.9544          671 
   37900  0.049939409   -7.7067327    3645.3499          664 
   38000  0.050420164   -7.7072478    3644.7405          672 
   38100  0.050222373   -7.7056534    3644.2455          630 
   38200  0.051142573   -7.7049745    3643.5122          654 
   38300  0.049163616   -7.7043289    3643.1783          679 
   38400  0.049794874   -7.7030534    3643.3993          651 
   38500  0.050621012   -7.7052718    3643.2806          676 
   38600  0.049930341   -7.7056474    3643.4834          672 
   38700  0.050104525    -7.704509    3643.9606          659 
   38800  0.049493087   -7.7040226    3644.3026          716 
   38900  0.049129803   -7.7048714    3644.0046          656 
   39000  0.048868245   -7.7058832    3643.4924          616 
   39100  0.049876748   -7.7041035    3643.8256          652 
   39200  0.048571252   -7.7030749    3644.0649          695 
   39300  0.051002438   -7.7035871    3643.9284          684 
   39400  0.050861447   -7.7053955    3643.3484          690 
   39500  0.050064691   -7.7052397    3643.6418          666 
   39600  0.049192701    -7.703885      3644.32          691 
   39700   0.05101585   -7.7042563    3644.7495          669 
   39800  0.050210394   -7.7062213    3644.3534          654 
   39900  0.050011851   -7.7051428    3644.2601          688 
   40000  0.050899166   -7.7028739    3644.1977          668 
   40100  0.050819108   -7.7035221    3642.6539          695 
   40200  0.050010778   -7.7035098    3641.9302          653 
   40300  0.050228754   -7.7015458    3642.4944          657 
   40400  0.049588701   -7.7032756    3643.4146          656 
   40500  0.050317512    -7.706733    3644.7338          629 
   40600  0.050619593     -7.71003    3645.2205          619 
   40700   0.05008853   -7.7067044    3646.3644          659 
   40800  0.049707036   -7.7063231    3645.1219          672 
   40900  0.049693224   -7.7049209    3643.6049          643 
   41000  0.050695664   -7.7037282    3642.2424          667 
   41100  0.050761005   -7.7019314    3642.1967          655 
   41200  0.049980829    -7.702903    3642.2751          669 
   41300  0.049726745   -7.7042411    3643.1058          681 
   41400  0.050003963     -7.70531    3644.5125          701 
   41500  0.050043057   -7.7053524    3645.3009          636 
   41600  0.050676115   -7.7064259    3645.5847          654 
   41700   0.04963282   -7.7061816    3644.9419          682 
   41800   0.05022956   -7.7051123    3643.9394          647 
   41900  0.050344402   -7.7020993    3643.3649          680 
   42000  0.049450335   -7.7022205    3641.9291          651 
   42100  0.049456958   -7.7018435    3642.0729          675 
   42200  0.051345744    -7.702787    3642.7606          660 
   42300  0.049918572   -7.7059141    3644.1788          694 
   42400  0.049572255   -7.7072227    3646.0284          694 
   42500  0.051267736   -7.7079432    3646.5703          671 
   42600  0.049523279    -7.706167    3645.5599          677 
   42700   0.05087048   -7.7050277    3644.1521          655 
   42800  0.049642752   -7.7041038    3643.3192          652 
   42900  0.048415687   -7.7033273    3643.1322          682 
   43000  0.050525661   -7.7041079    3642.8349          650 
   43100   0.05032272   -7.7036891    3643.7679          688 
   43200  0.050103742   -7.7047072    3643.8058          653 
   43300   0.04937292     -7.70597    3644.2251          651 
   43400  0.049858053   -7.7076568    3644.5126          647 
   43500  0.050227822   -7.7070609    3645.6324          692 
   43600  0.049815326   -7.7059011    3644.6415          671 
   43700  0.050616495    -7.702689    3642.9464          669 
   43800  0.049686839    -7.701269    3641.1738          671 
   43900  0.049479034   -7.7014815    3641.2173          647 
   44000  0.050294897   -7.7025975    3642.5695          659 
   44100  0.049392186   -7.7048642    3643.7021          653 
   44200  0.050336268   -7.7064266    3644.3421          687 
   44300  0.051341104   -7.7061334    3645.0195          666 
   44400  0.049811827   -7.7056457    3645.0437          664 
   44500  0.050007973   -7.7052456    3644.1396          649 
   44600  0.049456098   -7.7035892    3643.7023          735 
   44700  0.050189167   -7.7041722    3642.5326          670 
   44800  0.050178344   -7.7013192    3642.7073          690 
   44900  0.049813506   -7.7023606    3641.9794          662 
   45000  0.049143068    -7.703728    3643.2885          658 
   45100   0.05077087   -7.7062829    3645.8504          692 
   45200  0.049964351   -7.7086635    3646.8694          708 
   45300  0.049464189   -7.7081319    3646.1322          664 
   45400  0.049648211   -7.7081823    3644.6009          686 
   45500  0.050846687   -7.7048142    3643.6265          655 
   45600  0.050485377   -7.7039561    3642.5684          655 
   45700  0.050171424    -7.703204    3641.9289          654 
   45800  0.049931432   -7.7027185    3642.6389          691 
   45900  0.050121565   -7.7037167    3643.3871          702 
   46000  0.049408951   -7.7065643    3644.0818          656 
   46100  0.049637346   -7.7062732    3645.4713          664 
   46200  0.050460433   -7.7078936    3645.5227          657 
   46300  0.049707596   -7.7071573    3645.0813          699 
   46400  0.050571425   -7.7041727    3644.2037          644 
   46500   0.05060072   -7.7033964    3641.9088          652 
   46600  0.050182947   -7.6999456    3640.1538          651 
   46700  0.049616685   -7.6991963    3640.2191          688 
   46800  0.049207067   -7.7037791    3642.0967          639 
   46900  0.049095364   -7.7040522    3644.6965          657 
   47000  0.050759147   -7.7064017    3645.0103          675 
   47100  0.049631431   -7.7064944    3645.1802          682 
   47200  0.049757111   -7.7063044    3644.7703          687 
   47300  0.050479414   -7.7050543    3644.0674          662 
   47400  0.051390694     -7.70287    3643.4802          669 
   47500  0.050358735   -7.7031816    3642.7664          658 
   47600   0.05059013   -7.7035076     3642.262          654 
   47700  0.048966138   -7.7042032    3642.6555          703 
   47800  0.050701385   -7.7062771    3643.6856          662 
   47900  0.050654989   -7.7068037    3645.7516          665 
   48000  0.050386375    -7.709698    3646.5506          660 
   48100  0.049294645   -7.7071939    3646.7898          713 
   48200  0.050320895   -7.7054311    3644.9762          675 
   48300   0.05050083   -7.7044574    3643.0472          650 
   48400  0.049166769   -7.7045506    3642.7191          663 
   48500  0.050377082    -7.703571    3643.1797          647 
   48600  0.050191297   -7.7039702    3643.4137          656 
   48700  0.048785423   -7.7050609     3643.728          646 
   48800  0.050731708   -7.7067098    3644.1962          670 
   48900   0.05044577   -7.7057236    3644.9415          668 
   49000   0.04931175   -7.7056589    3644.9497          685 
   49100  0.051012182   -7.7060134    3644.6072          673 
   49200  0.050741857   -7.7033333    3643.6514          708 
   49300   0.05029951   -7.7023429    3641.5527          633 
   49400  0.049611918   -7.7006181    3641.2107          690 
   49500  0.049071959   -7.7015929    3641.8943          662 
   49600  0.050441489   -7.7036195    3643.4739          647 
   49700  0.049275631   -7.7057589    3645.0169          660 
   49800  0.049334406   -7.7077537    3645.6001          656 
   49900   0.04920085   -7.7065873    3645.8379          635 
   50000  0.049681357   -7.7052266    3644.9873          677 
   50100  0.050607136   -7.7037819    3644.0774          641 
   50200  0.049585702   -7.7034213    3642.7512          632 
   50300  0.048611283   -7.7022067     3642.686          657 
   50400  0.049713665    -7.702423    3643.2224          681 
   50500  0.050142016   -7.7045522    3643.2688          669 
   50600   0.04952252   -7.7062818    3644.0429          671 
   50700  0.049329075   -7.7048611    3645.0787          644 
   50800  0.049753359   -7.7062937    3644.8438          678 
   50900  0.049381884   -7.7053661    3644.5055          661 
   51000  0.049344506   -7.7037338    3644.3832          657 
   51100  0.050962765   -7.7028958    3643.2104          688 
   51200  0.050418716   -7.7035007    3641.6291          709 
   51300   0.05026936   -7.7014099    3641.2311          654 
   51400  0.051335872   -7.7030364     3642.444          629 
   51500  0.049266278   -7.7060366    3644.5433          655 
   51600  0.049619321   -7.7071329     3646.183          678 
   51700  0.050144415   -7.7062096    3646.4796          687 
   51800  0.049200408   -7.7070307    3645.0678          679 
   51900  0.050350848     -7.70518    3644.1966          679 
   52000   0.05080844   -7.7041035    3643.0212          635 
   52100  0.050426777   -7.7036258    3642.2819          689 
   52200  0.049260822   -7.7031889    3642.1729          674 
   52300  0.049034143   -7.7031084    3643.1036          657 
   52400  0.050480096   -7.7041837    3644.2174          676 
   52500  0.049892053   -7.7055967      3645.28          661 
   52600  0.050304314   -7.7086056    3645.5515          675 
   52700  0.049458031   -7.7074415    3645.9219          730 
   52800  0.051120827   -7.7060614    3645.0291          657 
   52900  0.049041021   -7.7012119    3642.3526          695 
   53000  0.049477682   -7.7013286    3639.6928          675 
   53100  0.050002321   -7.7004501    3641.3401          659 
   53200   0.05042779   -7.7030101    3642.6253          689 
   53300  0.050150367   -7.7064461    3643.2741          660 
   53400  0.050205561   -7.7062841    3644.5956          645 
   53500  0.050773098   -7.7065178    3645.4533          649 
   53600  0.049936265   -7.7074371     3644.866          656 
   53700  0.049802262   -7.7054561    3644.5642          656 
   53800  0.050021518   -7.7040128    3643.7447          661 
   53900  0.050445656    -7.704357    3641.9512          681 
   54000   0.04900837   -7.7001989    3641.6058          657 
   54100   0.05001181   -7.7008477    3641.6885          646 
   54200  0.049874505   -7.7039021    3643.0946          653 
   54300  0.048826968   -7.7075142    3645.3664          686 
   54400  0.049802256   -7.7071139    3646.3787          662 
   54500  0.049480055   -7.7056682    3645.2176          649 
   54600  0.048663861   -7.7048287    3644.6122          692 
   54700  0.050488241   -7.7037646    3644.0192          709 
   54800  0.049826559   -7.7033743    3643.5308          665 
   54900   0.05023742   -7.7036753    3642.7103          652 
   55000  0.050496578   -7.7041564    3642.7471          643 
   55100  0.049988602   -7.7045181    3643.2105          675 
   55200  0.049748167   -7.7047441    3645.0712          671 
   55300  0.050147644   -7.7087149    3645.8869          671 
   55400  0.049284256   -7.7086647    3646.7527          663 
   55500  0.050086089    -7.707221    3646.0143          665 
   55600  0.049622112   -7.7051668    3643.8896          675 
   55700  0.049927418   -7.7022213     3642.428          686 
   55800  0.050312578    -7.701272    3641.8259          660 
   55900  0.049920717   -7.7035233    3641.7782          606 
   56000   0.04928475   -7.7020111    3643.5544          674 
   56100  0.050421807   -7.7054792    3644.4101          674 
   56200  0.049380263   -7.7069567    3645.0667          663 
   56300    0.0506196   -7.7062249    3645.6114          651 
   56400  0.050019916   -7.7060163    3645.0709          661 
   56500  0.049168209   -7.7049733    3644.0174          654 
   56600  0.049694174   -7.7034162    3642.7729          665 
   56700  0.050999965   -7.7009615    3641.7484          696 
   56800  0.050237692   -7.6995159    3640.7475          645 
   56900   0.04990334   -7.7018526    3641.3259          689 
   57000  0.050831531   -7.7050864    3644.2825          645 
   57100  0.051223047   -7.7074806    3645.8547          668 
   57200  0.050785785   -7.7087544    3645.0033          641 
   57300  0.050225998   -7.7060771    3645.1509          660 
   57400   0.05011074   -7.7051465    3644.1764          690 
   57500  0.048609031   -7.7037454    3643.1592          679 
   57600    0.0498595   -7.7016844    3642.9207          654 
   57700  0.050135094   -7.7029526    3642.1845          672 
   57800   0.05032303   -7.7038083    3642.4298          690 
   57900  0.049977312    -7.704104    3643.9418          660 
   58000  0.049515485   -7.7063478    3645.3258          677 
   58100  0.049139522   -7.7083475    3646.4299          671 
   58200  0.049793452   -7.7091866    3646.5884          676 
   58300  0.050177504   -7.7052427    3645.3463          666 
   58400  0.050067726   -7.7044163    3643.0915          641 
   58500  0.050110748   -7.7035638    3642.4347          664 
   58600  0.049435563   -7.7026999    3642.8786          687 
   58700  0.050617898    -7.704065    3643.2614          641 
   58800  0.050644975   -7.7050366    3643.6641          717 
   58900  0.049094825   -7.7058125    3643.9983          718 
   59000  0.050074938   -7.7056655    3644.7948          702 
   59100  0.049936735   -7.7061341    3644.8881          694 
   59200  0.048958296   -7.7070689    3644.0462          667 
   59300   0.04877862   -7.7032751    3643.7997          724 
   59400  0.049104356    -7.701463    3642.6109          659 
   59500  0.049180941   -7.7013136    3641.2229          674 
   59600  0.050739406   -7.7013007    3641.6636          671 
   59700  0.049155487   -7.7036544    3643.2694          650 
   59800  0.049412612   -7.7061243    3644.9747          642 
   59900  0.050230181   -7.7063529    3646.0208          634 
   60000  0.049388593   -7.7069863    3645.9055          682 
   60100  0.049784882   -7.7062588     3644.893          710 
   60200  0.050348238   -7.7047764    3643.7964          684 
   60300  0.050056388   -7.7030241    3643.3378          675 
   60400  0.051173483   -7.7051341    3642.3293          666 
   60500  0.050525022    -7.704108     3643.129          661 
   60600  0.050794207   -7.7043475     3643.713          716 
   60700  0.049018235   -7.7051397    3643.9053          670 
   60800  0.050529526   -7.7048166    3644.2412          650 
   60900  0.049869134   -7.7048183    3644.1493          728 
   61000  0.049515274    -7.706842    3643.5163          643 
   61100   0.05035287   -7.7050936    3643.8808          656 
   61200  0.050678469   -7.7041046    3643.7824          663 
   61300  0.049813013   -7.7042023    3642.9821          667 
   61400   0.05066835   -7.7043297      3642.69          674 
   61500  0.051062332   -7.7030331    3643.6563          638 
   61600  0.049830546   -7.7045561    3644.2232          686 
   61700  0.050089556   -7.7067189     3644.704          676 
   61800  0.049209261   -7.7068465    3645.2488          691 
   61900  0.050529862   -7.7064554    3645.3876          712 
   62000  0.049510669    -7.704838    3644.4554          685 
   62100  0.049583138   -7.7027164    3642.9839          709 
   62200  0.050146541   -7.7021332    3640.9433          680 
   62300  0.050450848   -7.7001354     3640.978          681 
   62400  0.050073162   -7.7012955    3642.1449          681 
   62500  0.049886907   -7.7046614    3643.9728          671 
   62600  0.048850757   -7.7059318     3644.805          661 
   62700  0.050727277   -7.7065396    3644.7208          672 
   62800   0.04869339    -7.705089    3644.7786          682 
   62900  0.049797283   -7.7062613    3643.8701          657 
   63000  0.050784266   -7.7047477    3643.5332          684 
   63100  0.050479425   -7.7041053    3642.9296          657 
   63200  0.049363754   -7.7042228    3642.5484          643 
   63300  0.050536302   -7.7031506    3642.9842          676 
   63400  0.049308383   -7.7036038    3643.6761          682 
   63500  0.050093039   -7.7063971    3645.0412          691 
   63600  0.050870549   -7.7084707    3646.6833          662 
   63700  0.050098051   -7.7081093    3646.5915          676 
   63800  0.050387704   -7.7077439    3644.7009          666 
   63900  0.049883013   -7.7043063      3643.49          689 
   64000  0.050447166   -7.7023998     3642.466          676 
   64100   0.04912149   -7.7018981    3642.0881          682 
   64200  0.049821975   -7.7026452    3642.3801          678 
   64300  0.051069958   -7.7035741    3643.5969          647 
   64400  0.049713467   -7.7042647    3644.6962          688 
   64500  0.050278852   -7.7074354    3644.8409          655 
   64600  0.050028268   -7.7070985    3645.3109          675 
   64700  0.050065754   -7.7063677    3644.8897          679 
   64800  0.049154144   -7.7050035    3643.6409          647 
   64900  0.050178446   -7.7017499    3642.0087          695 
   65000  0.049440164   -7.6996272    3640.2407          676 
   65100  0.050345857   -7.6987022    3640.8586          660 
   65200  0.049873311   -7.7027971    3642.8581          684 
   65300  0.049216207   -7.7053629     3644.662          700 
   65400  0.050841278   -7.7067267    3645.3817          627 
   65500  0.050867454   -7.7061668    3645.5269          632 
   65600  0.049561229   -7.7061547    3644.8081          638 
   65700  0.050992113   -7.7046285    3644.0783          678 
   65800  0.049890772   -7.7036378    3642.9755          657 
   65900  0.048900206   -7.7020213    3642.5888          685 
   66000  0.049755233   -7.7017438    3642.3512          688 
   66100  0.049892278   -7.7036796    3642.9297          658 
   66200  0.049733539    -7.705524    3644.2189          673 
   66300  0.050334459   -7.7069442    3646.3818          641 
   66400  0.050364621   -7.7096479    3647.0947          645 
   66500  0.049481271   -7.7083077    3646.2438          647 
   66600  0.049617142   -7.7045146    3644.6236          638 
   66700   0.05037218   -7.7040617    3643.1843          631 
   66800  0.048909102   -7.7029918    3643.0516          642 
   66900  0.050880304   -7.7040218    3643.0915          709 
   67000  0.050137919   -7.7036157    3643.5923          663 
   67100  0.049348024   -7.7054029    3643.7886          656 
   67200  0.050090003    -7.705181    3644.5124          653 
   67300  0.050183928   -7.7052151    3645.0173          669 
   67400  0.050504314   -7.7077268    3644.5715          661 
   67500  0.049567425   -7.7051285    3644.5607          629 
   67600  0.049988581    -7.703116    3643.0886          668 
   67700  0.049446275   -7.7012964    3641.3711          651 
   67800   0.04988419   -7.7012581    3641.1517          675 
   67900  0.050003821   -7.7005695    3642.5665          653 
   68000  0.051034982   -7.7025283    3644.2308          672 
   68100  0.050653757   -7.7069341    3644.9823          637 
   68200  0.049856753   -7.7068431    3645.5438          650 
   68300  0.051502027   -7.7056183    3645.5159          653 
   68400  0.050542912   -7.7052133     3644.522          671 
   68500  0.050244691   -7.7050029    3643.3195          671 
   68600  0.050682636   -7.7039104    3643.0831          674 
   68700  0.050466964   -7.7026788    3643.3716          711 
   68800  0.049289479   -7.7036761    3643.2755          682 
   68900  0.050704187   -7.7039861    3643.9989          670 
   69000  0.049926582   -7.7049146    3643.9615          667 
   69100  0.049427793   -7.7047571    3644.3077          651 
   69200  0.049818193   -7.7048728    3644.2482          678 
   69300  0.050349064   -7.7048623    3644.2214          666 
   69400  0.051176696   -7.7045365    3643.8578          644 
   69500  0.049390913   -7.7046243    3643.6989          653 
   69600  0.050884737   -7.7044059    3643.6123          633 
   69700  0.050930879   -7.7040897    3643.6967          661 
   69800  0.049871917   -7.7049107    3643.7342          673 
   69900     0.049412   -7.7050346     3644.067          684 
   70000  0.051170919   -7.7055469    3644.3557          667 
   70100  0.049374768   -7.7055579    3644.7796          629 
   70200  0.050646661   -7.7050764    3644.6006          669 
   70300  0.050086572   -7.7056769    3643.8108          657 
   70400  0.049428191   -7.7035242    3642.8072          640 
   70500  0.050147602   -7.7009721    3642.4498          652 
   70600  0.050343819   -7.7025593    3641.6324          644 
   70700  0.050234422    -7.703958    3642.6456          660 
   70800  0.049762592   -7.7052186    3644.7319          656 
   70900   0.05013035   -7.7081178    3645.7806          669 
   71000  0.049123774   -7.7087963    3645.8057          650 
   71100   0.05027309   -7.7057725    3645.1511          711 
   71200  0.050034611   -7.7044058    3644.2278          635 
   71300  0.049638354    -7.705136    3643.0863          685 
   71400  0.050325567   -7.7044903    3643.0912          647 
   71500   0.04990282   -7.7032692    3643.2996          656 
   71600   0.05003864   -7.7040553    3643.3505          614 
   71700  0.049362466   -7.7063391    3643.5984          662 
   71800  0.048942187    -7.704751    3644.7314          677 
   71900  0.049506735   -7.7055157    3645.1499          650 
   72000  0.048962805   -7.7073718     3644.767          647 
   72100  0.050288631   -7.7068697    3644.2131          648 
   72200  0.050309967   -7.7031852    3643.2137          622 
   72300  0.049610961   -7.7019731    3641.8302          666 
   72400  0.049361565   -7.7025923    3641.2864          653 
   72500  0.049970409   -7.7021482    3642.6147          679 
   72600  0.050120165   -7.7040856    3643.8765          643 
   72700    0.0489802   -7.7071535    3644.6096          669 
   72800  0.049952842    -7.707287    3645.4151          677 
   72900  0.049126423   -7.7057976    3645.1944          679 
   73000  0.050597219   -7.7047086    3644.3704          647 
   73100  0.050780463   -7.7045353    3643.6069          696 
   73200  0.049537059   -7.7043796    3643.6773          695 
   73300  0.050794527   -7.7041978    3643.3892          702 
   73400  0.048453153   -7.7042488    3643.6179          644 
   73500  0.050188403   -7.7052327      3643.72          712 
   73600  0.050287751    -7.704838    3644.1242          676 
   73700   0.05109743   -7.7047751    3644.5771          664 
   73800  0.049859319   -7.7063099    3644.4423          720 
   73900  0.050377154   -7.7056203    3644.3566          674 
   74000  0.050035289   -7.7036652    3643.8639          640 
   74100  0.049529491   -7.7036092    3642.5987          670 
   74200  0.049968575   -7.7010687    3642.4398          699 
   74300  0.049864232    -7.701557    3642.5937          657 
   74400  0.050851774   -7.7049948    3642.8951          659 
   74500   0.05022169   -7.7052998    3645.0319          652 
   74600  0.050919915   -7.7072802    3646.2604          648 
   74700  0.049306702   -7.7084328    3646.3102          699 
   74800  0.049973367   -7.7069232    3645.4229          664 
   74900  0.050757931   -7.7031969    3644.1792          679 
   75000  0.049763095   -7.7027848    3642.8748          679 
   75100  0.049488268   -7.7030138    3642.8101          659 
   75200  0.049965727   -7.7040137    3642.9786          684 
   75300  0.050139904   -7.7030698    3643.9105          652 
   75400  0.050394942   -7.7062405    3643.6454          660 
   75500  0.049319552   -7.7050083     3644.528          667 
   75600  0.050603226   -7.7058717    3644.5661          667 
   75700  0.049373082   -7.7049754    3644.8197          690 
   75800  0.048996801   -7.7045478    3643.8919          678 
   75900  0.049982496    -7.703919    3641.9955          687 
   76000  0.050934697   -7.7000973    3640.8393          700 
   76100  0.049834228   -7.7010932    3641.0267          721 
   76200  0.049797264   -7.7025128    3642.6401          666 
   76300  0.049780286   -7.7039691    3644.7956          683 
   76400  0.050001107   -7.7068549    3644.8705          696 
   76500  0.050487853   -7.7072165    3645.1862          700 
   76600  0.051721859   -7.7057006    3644.8103          681 
   76700  0.050319932   -7.7047053    3644.1514          674 
   76800   0.04982918   -7.7041006    3643.2148          668 
   76900    0.0498932   -7.7031345    3642.6532          631 
   77000  0.049371167   -7.7025197     3642.542          665 
   77100  0.050666335   -7.7024581    3642.7584          642 
   77200  0.050996822   -7.7042038    3644.3585          702 
   77300  0.050076272   -7.7089958    3646.0093          672 
   77400  0.049587703   -7.7090359    3647.3468          700 
   77500  0.049852295   -7.7067796    3646.5968          663 
   77600   0.04958584   -7.7066253    3644.4482          647 
   77700  0.050189691   -7.7047985    3643.1979          639 
   77800  0.050669252   -7.7017783      3642.54          628 
   77900   0.04969507   -7.7018448    3642.2242          670 
   78000  0.049102477   -7.7028679    3642.7856          655 
   78100  0.050617916   -7.7035254     3644.083          643 
   78200  0.051176021   -7.7057392    3645.0841          637 
   78300  0.050011816   -7.7070364    3645.6954          704 
   78400  0.050229263   -7.7079308    3645.2825          668 
   78500  0.049513823   -7.7062267     3644.526          678 
   78600  0.050114557   -7.7027508    3643.6164          681 
   78700  0.048361214   -7.7005982     3642.149          667 
   78800  0.049665646   -7.7010622    3641.0314          661 
   78900  0.049983198   -7.7014026    3642.0131          621 
   79000  0.050085394     -7.70482     3643.206          669 
   79100  0.050267203   -7.7075423    3644.3836          631 
   79200  0.050151202   -7.7058724     3645.463          671 
   79300  0.050214387   -7.7062445    3645.1492          679 
   79400   0.04991052   -7.7064784    3644.1509          672 
   79500  0.050380653   -7.7055222    3643.5818          697 
   79600  0.050818186   -7.7037659    3643.3579          680 
   79700  0.050407723    -7.704394    3642.8717          676 
   79800  0.049619777    -7.703599    3643.1872          672 
   79900   0.04983877   -7.7029456    3643.8042          656 
   80000   0.04939723   -7.7060372    3644.0498          650 
   80100  0.049434503   -7.7065907    3645.4574          629 
   80200  0.049772413   -7.7071713    3646.3604          660 
   80300  0.049357339   -7.7079251    3645.5424          698 
   80400  0.050247031   -7.7052066    3643.8588          676 
   80500  0.051102272   -7.7023019    3642.0901          672 
   80600  0.049245805   -7.7004418    3641.7684          655 
   80700  0.048929818     -7.70121    3642.4847          660 
   80800  0.049913074   -7.7029418    3643.2838          699 
   80900  0.049366608   -7.7048231     3644.175          655 
   81000  0.049907864    -7.705509     3644.603          656 
   81100  0.049919778   -7.7048601    3644.8016          637 
   81200  0.048691833   -7.7044787    3644.4251          659 
   81300   0.04970384   -7.7053822     3643.806          627 
   81400  0.050327278   -7.7036145    3643.8463          672 
   81500  0.049529361   -7.7044615    3643.6673          688 
   81600  0.050775018   -7.7057598     3643.358          657 
   81700  0.050149998   -7.7041645    3643.7936          639 
   81800  0.050100771   -7.7036543    3644.0542          696 
   81900  0.049383744   -7.7052833     3643.809          697 
   82000  0.051157253   -7.7056974    3643.8271          701 
   82100  0.048986966   -7.7042168    3644.1194          664 
   82200  0.048879037    -7.704764    3643.7774          638 
   82300  0.050271691   -7.7043031     3643.921          670 
   82400   0.05015223   -7.7053823    3643.4995          658 
   82500  0.048107247   -7.7055632    3643.5743          661 
   82600  0.049847534    -7.704436    3643.8085          671 
   82700  0.049998919   -7.7038344    3643.8689          626 
   82800  0.049481282   -7.7057653     3643.623          642 
   82900  0.049272122   -7.7047055    3644.0731          643 
   83000  0.051410006   -7.7053441    3644.0846          642 
   83100  0.050266079   -7.7052045    3643.7187          679 
   83200  0.050073688   -7.7046534    3643.6647          664 
   83300  0.050130748   -7.7048404    3643.3355          671 
   83400  0.048612692    -7.704245    3643.2399          650 
   83500  0.049899109   -7.7041906    3643.3752          673 
   83600  0.050330645   -7.7042271     3644.059          688 
   83700  0.049352119    -7.704892      3644.55          664 
   83800  0.049925509   -7.7071355    3645.2645          646 
   83900  0.049856295   -7.7065754    3645.6023          659 
   84000  0.050726496     -7.70519    3645.0415          659 
   84100  0.049587674   -7.7043754     3643.236          662 
   84200  0.049784924   -7.7015485     3641.932          643 
   84300  0.051441749   -7.7007224    3641.4949          674 
   84400  0.050774113    -7.702469    3642.0807          722 
   84500  0.049447348   -7.7041798    3643.2755          685 
   84600  0.050973939   -7.7067291    3644.4862          649 
   84700   0.05006589   -7.7068008    3644.9998          644 
   84800  0.049112937   -7.7063179    3644.8805          646 
   84900  0.050635876    -7.705076    3644.5005          688 
   85000  0.050106601   -7.7044439    3643.8756          645 
   85100  0.049595193   -7.7034252    3643.4186          673 
   85200  0.048755439   -7.7034511    3643.0925          634 
   85300  0.049041316   -7.7037469    3643.3264          670 
   85400  0.049590046   -7.7039892    3643.8366          662 
   85500  0.050965844   -7.7047928    3644.1181          673 
   85600   0.05068648   -7.7031113    3644.8866          675 
   85700  0.049719053   -7.7050651    3644.5678          684 
   85800  0.049293332   -7.7055706      3644.08          667 
   85900  0.050573618   -7.7040692    3644.0968          672 
   86000  0.049779991   -7.7034067    3643.1695          672 
   86100  0.049806954   -7.7021677    3642.1488          682 
   86200  0.049910278   -7.7023861    3642.2848          664 
   86300  0.050215721    -7.704094    3642.7581          680 
   86400  0.050304268   -7.7054878    3644.3288          649 
   86500  0.050390525   -7.7063527    3646.1192          647 
   86600  0.049665772   -7.7075804    3646.3025          721 
   86700  0.049906591   -7.7078087    3645.2355          667 
   86800  0.050551402   -7.7052192    3643.8961          716 
   86900  0.051236271    -7.704114    3643.0631          689 
   87000  0.049875964   -7.7039417    3642.5887          666 
   87100  0.050301022   -7.7043029    3642.8129          702 
   87200  0.050199705   -7.7044844     3643.291          679 
   87300  0.050209517   -7.7051953    3643.9632          641 
   87400  0.050192684   -7.7033834      3644.67          675 
   87500   0.04993355   -7.7060353    3644.2416          656 
   87600  0.049449605   -7.7043785     3644.353          711 
   87700  0.050297672   -7.7041449    3644.1242          678 
   87800  0.048996957   -7.7039427         3644          700 
   87900  0.048937604   -7.7047539    3643.5809          677 
   88000   0.04992338   -7.7042767    3643.5559          673 
   88100  0.050755331    -7.704408    3643.6449          703 
   88200   0.05070489   -7.7059015    3643.5392          653 
   88300  0.050293111   -7.7046081    3644.3241          675 
   88400  0.050527596   -7.7049259    3644.6705          665 
   88500  0.049417559   -7.7061368    3644.4707          661 
   88600  0.050526472    -7.705407    3644.4155          675 
   88700  0.049900997   -7.7033828    3643.7049          684 
   88800  0.049343814   -7.7024621    3642.3688          663 
   88900   0.04882108   -7.7031932    3641.2679          657 
   89000  0.049656352   -7.7025172    3641.8014          670 
   89100  0.050868896   -7.7044946    3643.4683          641 
   89200  0.049819624   -7.7070851    3645.2049          699 
   89300  0.049036478   -7.7088861    3645.4579          709 
   89400  0.050864107     -7.70742    3645.5935          704 
   89500  0.050430752   -7.7057749     3644.365          650 
   89600  0.049755512   -7.7059716    3643.1682          654 
   89700  0.049412364   -7.7032396    3643.4808          665 
   89800  0.050807621   -7.7039685    3643.2391          666 
   89900  0.050129378   -7.7041851    3643.0848          656 
   90000  0.050425109   -7.7052842    3643.3203          668 
   90100  0.050817972   -7.7047748    3644.4771          653 
   90200  0.049473395   -7.7057691     3644.993          665 
   90300  0.050466797   -7.7066957    3645.4542          713 
   90400  0.049931957   -7.7074416    3644.8816          692 
   90500  0.049667148   -7.7051778    3643.7375          673 
   90600  0.051404217   -7.7035738    3641.9858          658 
   90700  0.049064363   -7.7010978    3641.2051          718 
   90800  0.047616808    -7.701641    3641.6796          641 
   90900  0.049806021   -7.7030676    3643.0964          678 
   91000  0.049870693   -7.7056457    3644.3604          625 
   91100  0.050495082   -7.7076408    3645.4419          674 
   91200  0.050407326   -7.7069382    3645.8957          641 
   91300   0.05024216    -7.707533    3645.0942          628 
   91400  0.050347878   -7.7060061     3643.671          647 
   91500  0.050892415   -7.7042052    3642.7422          678 
   91600  0.050063543   -7.7037285     3642.054          649 
   91700  0.050053539   -7.7015951     3642.424          647 
   91800  0.051477698   -7.7041997    3643.0895          691 
   91900  0.049622837   -7.7058355    3643.7298          678 
   92000  0.049871793   -7.7054882    3645.0647          652 
   92100  0.049861607   -7.7060122    3645.3938          671 
   92200  0.049705285   -7.7068848    3644.9805          630 
   92300  0.048714237   -7.7048954     3644.277          653 
   92400  0.050268386   -7.7031732    3643.4082          637 
   92500  0.050230042   -7.7028719    3641.6042          685 
   92600  0.050411604   -7.7011717    3640.9721          685 
   92700  0.051216801   -7.7001354    3641.9364          639 
   92800  0.050607234   -7.7042119    3644.0407          605 
   92900   0.04908555   -7.7069889    3645.8352          652 
   93000  0.049721739   -7.7064387    3645.9783          633 
   93100  0.051521778   -7.7061902    3645.1934          664 
   93200  0.050243844   -7.7057637    3644.1618          676 
   93300  0.048577299   -7.7037507    3643.5896          650 
   93400  0.050400612   -7.7027415      3643.26          660 
   93500  0.050028905   -7.7037106    3642.8104          712 
   93600  0.050301326    -7.704304    3643.1249          663 
   93700  0.050558699   -7.7035165     3644.052          675 
   93800  0.049599019   -7.7064069    3644.6803          697 
   93900  0.049327241   -7.7073147    3646.0335          637 
   94000  0.049982818   -7.7072539    3646.7929          644 
   94100  0.049966401   -7.7067805    3645.4813          682 
   94200  0.050262131   -7.7050245    3643.2193          714 
   94300  0.049294927   -7.7018778    3641.9519          669 
   94400  0.049666684   -7.7002781    3641.8453          672 
   94500  0.049341868   -7.7029621    3641.9351          661 
   94600  0.050029715   -7.7041557    3643.1523          697 
   94700  0.050429653   -7.7049511    3644.7585          632 
   94800  0.049458525   -7.7064719    3645.4371          653 
   94900   0.04975163    -7.706481    3645.4186          647 
   95000  0.050498338   -7.7047711    3645.0474          661 
   95100  0.049904193     -7.70538    3643.6043          672 
   95200  0.049357081   -7.7039586    3643.2587          716 
   95300  0.050645421   -7.7037654    3643.5181          634 
   95400    0.0488487   -7.7033758    3643.7768          649 
   95500  0.049616004   -7.7047674    3643.6416          643 
   95600  0.049768993   -7.7045503    3644.0324          655 
   95700  0.051160672   -7.7046646    3644.2959          679 
   95800  0.049853277   -7.7047318    3644.5149          673 
   95900    0.0504883   -7.7063165    3643.9968          653 
   96000  0.050033486   -7.7039163    3643.8847          677 
   96100  0.050390511   -7.7030623    3643.4945          658 
   96200  0.049634147   -7.7029058    3642.3234          666 
   96300  0.050990199   -7.7025028    3642.2919          675 
   96400  0.049060804   -7.7035113    3642.8531          667 
   96500  0.050178006   -7.7054308     3644.072          667 
   96600  0.050357305   -7.7073193    3645.4861          648 
   96700  0.050413579    -7.707433    3646.1072          666 
   96800  0.050338803   -7.7071723    3645.4851          661 
   96900  0.049100551   -7.7055923    3644.2339          641 
   97000  0.050345523   -7.7027313    3643.2382          663 
   97100  0.049858972   -7.7013554    3642.4406          659 
   97200  0.049568164    -7.702811    3642.1378          666 
   97300  0.049310416   -7.7039896    3643.0493          695 
   97400  0.050304579   -7.7045947     3644.111          653 
   97500  0.049740543   -7.7062796    3644.3809          678 
   97600  0.048566035    -7.708081    3644.1275          711 
   97700  0.049585699   -7.7059962    3644.2455          662 
   97800  0.049517267   -7.7041218    3644.3622          671 
   97900   0.05021045   -7.7035237    3644.2183          663 
   98000   0.05047302   -7.7053435    3643.4616          623 
   98100  0.049682447   -7.7053267    3643.3745          696 
   98200  0.049518752   -7.7032648    3643.9847          672 
   98300  0.050046044   -7.7042848    3643.9304          643 
   98400  0.050137638   -7.7051977    3643.8549          620 
   98500  0.050199546    -7.705246    3643.9953          699 
   98600  0.050599979   -7.7036722     3644.382          694 
   98700  0.049883303    -7.704585    3644.1195          643 
   98800   0.05009513   -7.7052754       3643.6          677 
   98900  0.050544517   -7.7044284    3643.1868          653 
   99000  0.049821655   -7.7036241    3643.1185          659 
   99100  0.049650689   -7.7047577    3642.5318          673 
   99200  0.050499673    -7.703947     3643.461          692 
   99300  0.049236009   -7.7046684    3644.7834          676 
   99400  0.049572224   -7.7078146    3645.4987          663 
   99500  0.049678112   -7.7063758    3646.6702          684 
   99600  0.049295135   -7.7065781    3645.5555          644 
   99700  0.050360526   -7.7049227     3643.712          686 
   99800  0.050404378   -7.7036528    3642.2387          687 
   99900   0.04997007   -7.7022964    3641.9648          633 
  100000  0.050799793   -7.7029108    3642.8466          710 
  100100  0.050479924   -7.7051036    3643.2287          658 
  100200  0.049029643   -7.7064641     3643.643          664 
  100300  0.051087306   -7.7061958    3643.9928          689 
  100400  0.049956145   -7.7046443    3644.6759          679 
  100500  0.050618067   -7.7044198    3644.5889          675 
  100600  0.049784429   -7.7055469    3643.7502          682 
  100700  0.050319315   -7.7042741    3643.3142          679 
  100800  0.050317718   -7.7028178    3643.1204          674 
  100900  0.049933431   -7.7038864    3642.4214          690 
  101000  0.049869284   -7.7041705    3643.0271          699 
  101100  0.049628109   -7.7042504    3644.3008          690 
  101200   0.05029038   -7.7073895    3645.4127          667 
  101300  0.049084253   -7.7068962    3646.1698          656 
  101400  0.051198826    -7.707032    3645.5628          653 
  101500  0.049603226   -7.7058539     3644.254          670 
  101600  0.049056146   -7.7033647    3642.8655          679 
  101700  0.050504273   -7.7016432    3642.4139          702 
  101800  0.049599438   -7.7020342    3642.1685          649 
  101900  0.050624563   -7.7048103    3642.4994          657 
  102000   0.05136457   -7.7053413    3643.5946          678 
  102100  0.049939069    -7.704959    3644.5625          642 
  102200  0.050528648   -7.7053397    3644.5749          639 
  102300  0.049120944   -7.7053339    3644.1784          644 
  102400  0.050741029    -7.704584    3644.3122          667 
  102500  0.050014553   -7.7040058    3644.0217          655 
  102600  0.049774827   -7.7040592    3643.2984          627 
  102700  0.050591534   -7.7047455    3643.0093          667 
  102800   0.05002865   -7.7033986    3643.4261          724 
  102900  0.050554539    -7.703175    3643.8758          698 
  103000  0.049957221   -7.7072317    3644.5431          674 
  103100  0.050320221   -7.7078367    3646.0594          638 
  103200  0.050601216   -7.7073684    3645.9119          640 
  103300  0.049568689   -7.7069683     3644.899          638 
  103400  0.049990787   -7.7033497    3643.5455          627 
  103500   0.04966407   -7.7031327    3641.9331          683 
  103600  0.049467346   -7.7015376    3642.0559          663 
  103700  0.049898334   -7.7032812    3642.5859          679 
  103800   0.05009124   -7.7049157    3643.6066          674 
  103900  0.050942389   -7.7047112    3644.5882          685 
  104000  0.049886111   -7.7054632    3644.2633          691 
Loop time of 112.105 on 64 procs for 100000 steps with 4000 atoms

Performance: 154141.274 tau/day, 892.021 timesteps/s
99.9% CPU use with 64 MPI tasks x no OpenMP threads

MPI task timing breakdown:
Section |  min time  |  avg time  |  max time  |%varavg| %total
---------------------------------------------------------------
Pair    | 7.332      | 8.4161     | 9.2601     |  14.0 |  7.51
Neigh   | 0.11582    | 0.12966    | 0.14081    |   1.3 |  0.12
Comm    | 9.2532     | 10.301     | 11.461     |  14.5 |  9.19
Output  | 6.4352     | 6.4368     | 6.4462     |   0.1 |  5.74
Modify  | 75.737     | 80.662     | 85.895     |  23.0 | 71.95
Other   |            | 6.159      |            |       |  5.49

Nlocal:        62.5000 ave          69 max          54 min
Histogram: 1 0 2 6 13 9 18 7 6 2
Nghost:        1586.89 ave        1606 max        1571 min
Histogram: 6 10 5 5 6 7 12 7 2 4
Neighs:        7956.62 ave        8795 max        6725 min
Histogram: 1 0 2 6 10 14 11 13 5 2
FullNghs:      15913.6 ave       17688 max       13751 min
Histogram: 1 1 2 12 6 15 14 9 2 2

Total # of neighbors = 1018468
Ave neighs/atom = 254.61700
Neighbor list builds = 658
Dangerous builds = 0

#clear
#
#next RN
#
#jump SELF
Total wall time: 0:01:52
