
units lj                  # Use reduced LJ style units
atom_style atomic         # Uncharged point particles
atom_modify map hash      # Needed for indexing of clusters etc
                          # Used to be able to find where atoms are in relation to each other.

lattice fcc 1.0 spacing 1 1 1
Lattice spacing in x,y,z = 1.5874011 1.5874011 1.5874011
region box block 0 10 0 10 0 10 units lattice
create_box 2 box
Created orthogonal box = (0.0000000 0.0000000 0.0000000) to (15.874011 15.874011 15.874011)
  3 by 4 by 4 MPI processor grid
create_atoms 1 box
Created 4000 atoms
  using lattice units in orthogonal box = (0.0000000 0.0000000 0.0000000) to (15.874011 15.874011 15.874011)
  create_atoms CPU = 0.002 seconds
set type 1 type/fraction 2 0.28 78393
Setting atom values ...
  1153 settings made for type/fraction
mass 1 1.0
mass 2 1.0
pair_style lj/cut  3.5
pair_modify tail  yes
pair_coeff 1  1  1.0  1.0   # Intearaction between 1 and 1 set with epsilon = 1 and sigma = 1
pair_coeff 1  2  1.5  0.8
pair_coeff 2  2  0.5  0.88

write_data data.0
System init for write_data ...
Neighbor list info ...
  update every 1 steps, delay 10 steps, check yes
  max neighbors/atom: 2000, page size: 100000
  master list distance cutoff = 3.8
  ghost atom cutoff = 3.8
  binsize = 1.9, bins = 9 9 9
  1 neighbor lists, perpetual/occasional/extra = 1 0 0
  (1) pair lj/cut, perpetual
      attributes: half, newton on
      pair build: half/bin/atomonly/newton
      stencil: half/bin/3d
      bin: standard
WARNING: Not all mixed pair coeffs generated from mixing. Use write_data with 'pair ij' option to store all pair coeffs. (../write_data.cpp:312)


#############################
#   M E L T   S Y S T E M   #
#############################

velocity all create 2.4 6583654 mom yes dist gaussian # Assign velocities
                                                    # Temperature 2.4, random number seed, zero linear momentum
                                                                                # Gaussian distribution

timestep 0.002   # simulation timestep
thermo 1000       # output thermodynamic data every 1000 steps bf 100

# Define a fix  in this case with index 1 applied to all
# particles in the simulation. This fix is for simulations
# in the anisotropic NPT ensemble. Note that we use the MTK
# correction.
fix 1 all npt temp 2.4 2.4 0.1 iso 5.68 5.68 0.5 mtk yes tchain 5 pchain 5 # Use NPT ensemble
                                                                         # Set temperature and pressure and damping
                                                                         # Numbers of thermostats in chain and in barostat
run 10000          # run for 10000 steps
Per MPI rank memory allocation (min/avg/max) = 3.642 | 3.644 | 3.648 Mbytes
Step Temp E_pair E_mol TotEng Press Volume 
       0          2.4   -6.5468678            0   -2.9477678   -3.9245899         4000 
    1000    2.4230325   -4.9735808            0   -1.3399406    5.6880657    4202.3404 
    2000    2.4278367   -4.9755436            0    -1.334699    5.4592702    4223.0447 
    3000    2.3636906   -4.9866173            0   -1.4419679    5.4924286    4217.5329 
    4000    2.4134316   -4.9534727            0   -1.3342304    5.8811698    4204.8128 
    5000    2.4182894   -4.9076466            0   -1.2811193    5.9685209    4221.2233 
    6000    2.4183219   -4.9770979            0   -1.3505219    5.7773404    4191.9759 
    7000    2.3989534   -4.9524513            0   -1.3549208    5.6211303    4221.8518 
    8000    2.4308891   -4.9692096            0   -1.3237876    5.8960548    4189.9785 
    9000    2.4007255   -4.9673487            0   -1.3671608    5.5529376    4227.6578 
   10000    2.4043219   -4.9821992            0    -1.376618    5.2415964    4243.1434 
Loop time of 2.3918 on 48 procs for 10000 steps with 4000 atoms

Performance: 722468.947 tau/day, 4180.955 timesteps/s
99.6% CPU use with 48 MPI tasks x no OpenMP threads

MPI task timing breakdown:
Section |  min time  |  avg time  |  max time  |%varavg| %total
---------------------------------------------------------------
Pair    | 1.024      | 1.0903     | 1.2003     |   3.4 | 45.59
Neigh   | 0.20068    | 0.21015    | 0.22086    |   1.0 |  8.79
Comm    | 0.75281    | 0.83067    | 0.93257    |   4.7 | 34.73
Output  | 0.0002448  | 0.00024852 | 0.00031313 |   0.0 |  0.01
Modify  | 0.20147    | 0.24556    | 0.28216    |   5.0 | 10.27
Other   |            | 0.01483    |            |       |  0.62

Nlocal:        83.3333 ave         100 max          70 min
Histogram: 1 1 3 16 9 9 4 4 0 1
Nghost:        1575.38 ave        1612 max        1538 min
Histogram: 1 3 6 6 4 12 7 5 3 1
Neighs:        8988.92 ave       11028 max        7366 min
Histogram: 2 2 8 10 8 8 2 7 0 1

Total # of neighbors = 431468
Ave neighs/atom = 107.86700
Neighbor list builds = 910
Dangerous builds = 212

# Equilibrate just above the melting temperature to avoid step fn in T

fix 1 all npt temp 1.25 1.25 0.1 iso 5.68 5.68 0.5 mtk yes tchain 5 pchain 5
run 2000
Per MPI rank memory allocation (min/avg/max) = 3.643 | 3.645 | 3.649 Mbytes
Step Temp E_pair E_mol TotEng Press Volume 
   10000    2.4043219   -4.9821992            0    -1.376618    5.2415964    4243.1434 
   11000    1.2414404   -6.8084076            0   -4.9467126    5.8186976    3393.0995 
   12000    1.2239202   -6.7872231            0   -4.9518018      5.98525    3387.3547 
Loop time of 0.556343 on 48 procs for 2000 steps with 4000 atoms

Performance: 621199.841 tau/day, 3594.906 timesteps/s
99.7% CPU use with 48 MPI tasks x no OpenMP threads

MPI task timing breakdown:
Section |  min time  |  avg time  |  max time  |%varavg| %total
---------------------------------------------------------------
Pair    | 0.2352     | 0.26328    | 0.30031    |   2.4 | 47.32
Neigh   | 0.035768   | 0.038575   | 0.04139    |   0.6 |  6.93
Comm    | 0.16818    | 0.20174    | 0.22988    |   3.0 | 36.26
Output  | 5.1513e-05 | 5.2524e-05 | 6.7621e-05 |   0.0 |  0.01
Modify  | 0.041102   | 0.048038   | 0.055007   |   1.9 |  8.63
Other   |            | 0.004649   |            |       |  0.84

Nlocal:        83.3333 ave          90 max          77 min
Histogram: 3 4 2 10 7 6 7 3 2 4
Nghost:        1839.00 ave        1863 max        1810 min
Histogram: 2 2 4 4 9 7 7 5 4 4
Neighs:        11283.3 ave       13209 max        9722 min
Histogram: 1 1 6 13 10 8 5 2 1 1

Total # of neighbors = 541600
Ave neighs/atom = 135.40000
Neighbor list builds = 142
Dangerous builds = 8

#############################
# L I N E A R  Q U E N C H  #
#############################

# Define solid atoms. This closely follows ten Wolde  Ruiz-Montero and Frenkel  Faraday Discuss  1996  104  93-110
# Compute components of the per-atom q6 vector
compute q6 all orientorder/atom degrees 1 6 components 6 nnn NULL cutoff 1.3 # compute the Q6 parameter.
                                                                             # Use all neighbours within 1.3 unit cell.

# get number of connections
compute coord_number all coord/atom orientorder q6 0.5

# An atom is solid if it has 8 or more connections (of a possible 14)
variable is_solid atom c_coord_number>=8
group solid dynamic all var is_solid    # Must be dynamic to update
dynamic group solid defined

# do clustering
compute cluster solid cluster/atom 1.3 # Create a cluster where all atoms within are solid and max 1.3 units from another member

# define chunks one chunk per cluster
compute clus_chunks solid chunk/atom c_cluster nchunk every compress yes  # Says which atoms are in which chunk

# count the size of each chunk
compute size_chunks solid property/chunk clus_chunks count


# Find the maximum entry in the vector of chunk sizes
variable max_n equal max(c_size_chunks)


# Thermo style which includes this variable
# thermo_style custom step temp pe vol v_max_n

thermo ${N}  # Print the thermo information every 100 steps
thermo 1000  

# Reset the npt fix at a lower temperature (below freezing)
fix 1  all npt temp  ${temp} ${temp}  0.1  iso  5.68  5.68  0.5  mtk yes tchain  5  pchain  5
fix 1  all npt temp  0.45 ${temp}  0.1  iso  5.68  5.68  0.5  mtk yes tchain  5  pchain  5
fix 1  all npt temp  0.45 0.45  0.1  iso  5.68  5.68  0.5  mtk yes tchain  5  pchain  5

dump dmp2 all dcd ${N} traj.dcd
dump dmp2 all dcd 1000 traj.dcd


compute msd all msd com yes
variable twopoint equal c_msd[4]/6/(step*dt+1.0e-6)
fix 9 all vector 10 c_msd[4]
variable fit equal slope(f_9)/6/(10*dt)
thermo_style custom step temp pe c_msd[4] v_twopoint v_fit v_max_n

fix 1 all npt temp 1.25 ${temp} 0.1 iso 5.68 5.68 0.5 mtk yes tchain 5 pchain 5
fix 1 all npt temp 1.25 0.45 0.1 iso 5.68 5.68 0.5 mtk yes tchain 5 pchain 5
run 5000000 # 5000000  # Run for this many steps
Neighbor list info ...
  update every 1 steps, delay 10 steps, check yes
  max neighbors/atom: 2000, page size: 100000
  master list distance cutoff = 3.8
  ghost atom cutoff = 3.8
  binsize = 1.9, bins = 8 8 8
  4 neighbor lists, perpetual/occasional/extra = 1 3 0
  (1) pair lj/cut, perpetual
      attributes: half, newton on
      pair build: half/bin/atomonly/newton
      stencil: half/bin/3d
      bin: standard
  (2) compute orientorder/atom, occasional
      attributes: full, newton on
      pair build: full/bin/atomonly
      stencil: full/bin/3d
      bin: standard
  (3) compute coord/atom, occasional
      attributes: full, newton on
      pair build: full/bin/atomonly
      stencil: full/bin/3d
      bin: standard
  (4) compute cluster/atom, occasional
      attributes: full, newton on
      pair build: full/bin/atomonly
      stencil: full/bin/3d
      bin: standard
Per MPI rank memory allocation (min/avg/max) = 9.806 | 9.814 | 9.819 Mbytes
Step Temp PotEng c_msd[4] v_twopoint v_fit v_max_n 
   12000    1.2239202   -6.7872231 7.5632039e-31 5.2522247e-33 8.3333333e+20            1 
   13000    1.2620966   -6.8062486   0.49758936 0.0031896753  0.040364767            1 
   14000    1.2619587   -6.8116632   0.98953436 0.0058900853  0.039934089            1 
   15000    1.2388863   -6.7998593    1.4908649 0.0082825823  0.040541929            1 
   16000     1.233099   -6.8535207     1.959421  0.010205317  0.040473017            1 
   17000     1.231722   -6.7898223    2.4251301  0.011887892  0.040445816            1 
   18000    1.2193501   -6.8631658    2.8569318  0.013226536  0.039832494            1 
   19000    1.2691181   -6.8447658    3.3463267  0.014676871  0.039546488            2 
   20000    1.2300394   -6.8078897    3.8220177  0.015925074  0.039550361            1 
   21000    1.2415347   -6.8464688    4.3332067  0.017195264  0.039598276            2 
   22000    1.2445679   -6.7991786    4.8903667  0.018524116  0.039906599            1 
   23000    1.2558169   -6.8016037    5.3723721  0.019465116  0.040250939            1 
   24000    1.2538573     -6.81566    5.7676739  0.020026645   0.04027336            1 
   25000    1.2561496   -6.8120934    6.2807607  0.020935869  0.040124409            1 
   26000    1.2336057   -6.8217601    6.7198807  0.021538079  0.040055851            1 
   27000    1.2556034   -6.8505142    7.1955031  0.022208342  0.040002664            2 
   28000    1.2516008   -6.8290419    7.6616281  0.022802464   0.03989604            1 
   29000    1.2394593   -6.7895277     8.133442  0.023371959  0.039796253            1 
   30000    1.2424745   -6.8377264    8.6084301  0.023912306  0.039768999            1 
   31000    1.2376607   -6.8959997    9.1300236  0.024543074  0.039795089            2 
   32000     1.228902   -6.8105882    9.8035934  0.025530191  0.039953194            3 
   33000    1.2695378   -6.7936312    10.342545  0.026117538  0.040172028            2 
   34000    1.2635468   -6.8637416    10.802379  0.026476419   0.04038783            2 
   35000    1.2549166   -6.8136677     11.25889  0.026806881  0.040536162            1 
   36000    1.2229199   -6.8218496    11.640999  0.026946757   0.04058947            2 
   37000    1.2514214    -6.828077    12.015579  0.027062115  0.040524154            3 
   38000    1.2444542   -6.7743948    12.642918  0.027725696  0.040478755            3 
   39000    1.2464616   -6.8379252    13.114828  0.028023137   0.04048249            1 
   40000    1.2466777   -6.8270132    13.799504  0.028748967  0.040558462            2 
   41000    1.2308478   -6.8437015     14.30015  0.029065345  0.040665899            2 
   42000    1.2571161   -6.8248708    14.864042  0.029492146  0.040808841            1 
   43000    1.2485826   -6.8392015    15.371041  0.029788839  0.040949574            2 
   44000     1.218764   -6.8538587    15.845754  0.030010898  0.041040816            1 
   45000    1.2342519   -6.8223624    16.480777  0.030519957  0.041150568            1 
   46000    1.2369157   -6.7919817     16.81676  0.030465144  0.041238241            3 
   47000    1.2437229   -6.8339695    17.264471  0.030610763  0.041262694            1 
   48000    1.2291037   -6.8632583    17.717973  0.030760369  0.041276761            1 
   49000    1.2397524   -6.8191062    18.275023   0.03107997  0.041293626            3 
   50000    1.2128415   -6.8017508     18.77582  0.031293033  0.041304192            1 
   51000    1.2362209    -6.863334    19.003076  0.031050777   0.04127797            2 
   52000    1.2217705   -6.8436591    19.539219   0.03131285  0.041254344            2 
   53000    1.2695567   -6.8102332    20.097796  0.031600308  0.041220459            1 
   54000    1.2146501   -6.8668188    20.530112  0.031682272  0.041195125            4 
   55000    1.2466635   -6.8747985    20.913132  0.031686563  0.041149607            1 
   56000    1.2507965   -6.8799173    21.366607  0.031795546  0.041077463            3 
   57000    1.2736687   -6.8680321    21.864339  0.031965408  0.041033615            2 
   58000    1.2158699   -6.8485312    22.364511  0.032132918  0.040996849            2 
   59000    1.2540216   -6.8542082    22.649758  0.031991183  0.040950153            1 
   60000    1.2233007   -6.8251225    23.268672    0.0323176  0.040884798            2 
   61000    1.2482888   -6.8955206    23.552572  0.032175645    0.0408079            2 
   62000    1.2373896   -6.8376118    23.898896  0.032122172  0.040718532            1 
   63000    1.2298078   -6.8069054    24.415371  0.032295463  0.040612823            1 
   64000    1.2581859   -6.8580185    24.715412  0.032181526  0.040504084            1 
   65000     1.255096   -6.8070764    25.001711  0.032053475  0.040379544            1 
   66000    1.2270363   -6.9038485    25.412302  0.032086239  0.040253705            1 
   67000    1.2410583    -6.837866    26.073948  0.032430284   0.04014309            1 
   68000    1.2431826   -6.8116622    26.550482  0.032537356  0.040054198            1 
   69000    1.2264244   -6.8506143     26.79617  0.032362524  0.039958573            2 
   70000     1.219401   -6.8887911    27.022142  0.032169216  0.039837386            1 
   71000    1.2369015   -6.8707171    27.517789  0.032297874  0.039729569            2 
   72000    1.2312274     -6.84414    28.189497  0.032626732  0.039633898            3 
   73000    1.2376782   -6.8217125    28.556311  0.032598528  0.039553684            2 
   74000    1.2384985   -6.8043772     29.05258   0.03271687  0.039473836            1 
   75000    1.2448114   -6.8737074    29.570099  0.032855666  0.039409009            1 
   76000    1.2537652   -6.8591261    30.060491  0.032961065  0.039345851            1 
   77000    1.2415947   -6.8530803    30.623396  0.033142203  0.039295974            1 
   78000    1.2124214   -6.8244526    30.861569  0.032971762  0.039242343            1 
   79000    1.2117897   -6.8559066    31.400839  0.033123248  0.039185828            1 
   80000    1.2432432   -6.8509816    31.747779  0.033070603  0.039132431            1 
   81000    1.2287567   -6.8518845    32.183879  0.033110986  0.039078375            2 
   82000    1.2513321   -6.8572672    32.854721  0.033388944  0.039037107            1 
   83000    1.2382513   -6.8899494    33.361132  0.033495112  0.039009708            2 
   84000    1.2385258   -6.8737103     33.70203  0.033434553  0.038978465            1 
   85000    1.2342798   -6.8847461    34.067362  0.033399374  0.038938969            1 
   86000    1.2214692   -6.8779828    34.728179  0.033651336  0.038905225            2 
   87000    1.2182514   -6.8311448    35.172701  0.033690326  0.038878968            1 
   88000    1.2759438   -6.8604712    35.609133  0.033720769  0.038851327            2 
   89000    1.2448595    -6.835917    35.978407  0.033687647    0.0388249            1 
   90000    1.2380719   -6.8354561    36.569343  0.033860503  0.038800018            1 
   91000    1.2676695   -6.8588142    37.015121  0.033896631  0.038790136            2 
   92000    1.2293579   -6.8526796    37.420856  0.033895703  0.038773686            2 
   93000    1.2481368    -6.833319     38.08512  0.034126451  0.038758154            2 
   94000    1.2394735   -6.8203727     38.39149  0.034035009  0.038741195       -1e+20 
   95000    1.2399512   -6.8138024    39.033612   0.03424001  0.038724186            1 
   96000    1.2488223   -6.8659453    39.336216  0.034146021  0.038715592            1 
   97000    1.2478939   -6.8263906    39.838006  0.034225091  0.038704447            2 
   98000     1.256401   -6.8307923    40.459962  0.034404729  0.038698085            2 
   99000    1.2136318   -6.8264439    40.521815  0.034109272  0.038689679            2 
  100000    1.2058421    -6.864857    41.193666  0.034328055  0.038677629            2 
  101000    1.2449522   -6.8692479    41.685544  0.034394013  0.038667953            1 
  102000    1.2233642   -6.8927255    42.164034   0.03444774  0.038664916            2 
  103000    1.2074957   -6.8440184    42.584425  0.034453419  0.038657564            3 
  104000    1.2541084   -6.8525169     43.20264  0.034617499  0.038653422            1 
  105000     1.226263    -6.843241    43.475206  0.034504131  0.038652232            1 
  106000    1.2334263   -6.8546737    44.173646  0.034727709  0.038657661            2 
  107000    1.2322252   -6.8582752    44.784917  0.034879219  0.038665305            4 
  108000    1.1961322   -6.8428037    45.339919  0.034984506  0.038677982            1 
  109000    1.2355128   -6.8797352    45.721917  0.034955594  0.038685017            1 
  110000       1.2063   -6.8875223    46.070058  0.034901559   0.03869163            2 
  111000    1.2240977   -6.8727356    46.816024  0.035147165  0.038704313            3 
  112000    1.2322484   -6.8581818    47.245465  0.035152876  0.038714778            1 
  113000     1.219881   -6.8713343    47.618596  0.035116958  0.038725882            2 
  114000    1.2592467    -6.855571    48.165127  0.035208426  0.038733408            1 
  115000    1.2106749   -6.8345872    48.428249  0.035092934  0.038738365            2 
  116000    1.2314531   -6.8671857    48.893994  0.035124995  0.038745907            1 
  117000    1.2318944   -6.8905236    49.333445  0.035137782  0.038750693            2 
  118000    1.2011415   -6.8983749    49.684294  0.035087778  0.038752017            2 
  119000    1.2456503   -6.8927917    50.299895  0.035224016   0.03875417            1 
  120000    1.2051757   -6.8597102    50.415341  0.035010653  0.038752607            2 
  121000    1.2104399   -6.8752037    51.076497  0.035176651  0.038748781            2 
  122000    1.2422393   -6.8570478    51.539564   0.03520462  0.038746181            1 
  123000    1.2385399   -6.8793585    51.876149  0.035146442  0.038741391            2 
  124000    1.2637939   -6.8504753    52.292769   0.03514299  0.038734559            2 
  125000    1.2523482   -6.8612345    52.564656  0.035043104  0.038722197            2 
  126000    1.2262673   -6.8908951    53.034476  0.035075711  0.038709346            1 
  127000     1.222387    -6.843555    53.461996   0.03508005  0.038694967            1 
  128000    1.2081727   -6.8982854    53.822848  0.035040916  0.038678059            3 
  129000    1.2568187   -6.8151841    54.439178  0.035167428  0.038661631            2 
  130000    1.2303827    -6.888519     54.76799  0.035107686  0.038645469            1 
  131000    1.2466133   -6.8861041    55.080074  0.035038215  0.038627069            2 
  132000    1.2165701   -6.8871861    55.411305  0.034981884  0.038607808            2 
  133000    1.2442168   -6.8593909    56.157933  0.035186675  0.038591474            1 
  134000    1.2153862    -6.855552    56.559783  0.035173994  0.038576524            1 
  135000    1.2140201   -6.8737299    56.909594  0.035129379  0.038560757            2 
  136000     1.221299    -6.876338    57.393896  0.035167828  0.038542263            2 
  137000    1.2415379   -6.8412001    57.927418  0.035235655  0.038526812            2 
  138000    1.2486309   -6.8785714    58.132656  0.035104261  0.038511581            5 
  139000    1.1737717   -6.9053837     58.98055  0.035360042  0.038497289            1 
  140000     1.248079   -6.8618109    59.238171  0.035260816  0.038485547            1 
  141000    1.2502642    -6.872279    59.933727  0.035421824  0.038475867            2 
  142000    1.2295529   -6.8880793     59.91116  0.035159131  0.038462679            2 
  143000    1.2129225   -6.9136318    60.348967  0.035168395  0.038446306            2 
  144000    1.2390392   -6.9066437    60.834472  0.035205134  0.038426435            1 
  145000    1.2168813    -6.865759    61.459672  0.035321651  0.038405968            2 
  146000    1.2339929   -6.8963439    61.547477  0.035129839  0.038385713            1 
  147000    1.2102636   -6.8917927    61.791902  0.035029423  0.038361404            1 
  148000    1.2098291   -6.8643235    62.083797  0.034957093  0.038333777            1 
  149000    1.2235347   -6.8724564    62.635533  0.035031058  0.038303286            1 
  150000    1.2549554   -6.8294651    63.035639  0.035019799  0.038273306            2 
  151000    1.2369121   -6.8586864    63.300556  0.034934082  0.038242385            2 
  152000    1.2148676   -6.8840428    63.794465  0.034975035  0.038215012            2 
  153000    1.2477707   -6.8495677    64.343172    0.0350453  0.038186907            1 
  154000    1.2434336   -6.8715679    64.909464  0.035124169  0.038161464            1 
  155000    1.2425226   -6.8700172    65.654146  0.035297928  0.038145324            2 
  156000    1.2553889   -6.8423988    66.288664  0.035410611  0.038131311            1 
  157000    1.2197916   -6.8780504    66.298185  0.035190119  0.038115438            1 
  158000    1.2330217   -6.9051483    66.568712   0.03511008  0.038095199            1 
  159000    1.2163629   -6.8188651     67.15645  0.035197301  0.038077872            1 
  160000    1.2242879     -6.85973    67.639501  0.035228907  0.038059526            4 
  161000    1.2254917   -6.8949187    67.937538  0.035164357  0.038038392            3 
  162000    1.2322698   -6.8594171    68.507835  0.035240656  0.038016632            2 
  163000    1.2283974   -6.9006827    69.036853  0.035294915  0.037999836            2 
  164000    1.2200967   -6.9079147    69.178152    0.0351515  0.037981152            2 
  165000    1.1967177   -6.9150453    69.456504  0.035079042  0.037958891            1 
  166000    1.2209511   -6.8472213    69.936299  0.035108584  0.037935701            1 
  167000    1.2151429   -6.8355497    70.334824  0.035097217  0.037913716            1 
  168000    1.2101742   -6.8692044    70.638533  0.035038955   0.03789073            2 
  169000    1.2237811   -6.8741893    71.166315  0.035091871  0.037865962            2 
  170000    1.2138379   -6.8325615    71.716625  0.035155208  0.037843938            2 
  171000    1.2046272   -6.9003484    71.954426   0.03506551  0.037821597            1 
  172000    1.2181547   -6.8673387    72.102029  0.034933153  0.037795795            1 
  173000    1.2148445   -6.8282909    72.716578  0.035027253  0.037767999            1 
  174000    1.1824347   -6.8564638    73.055145  0.034988096  0.037741148            2 
  175000    1.2193543   -6.8768286    73.538176  0.035018179  0.037717133            1 
  176000    1.2095641   -6.9016513    73.927939  0.035003759  0.037691034            1 
  177000    1.2130548   -6.8893147    74.307196  0.034984556    0.0376675            2 
  178000    1.1959053   -6.8759951    74.757664  0.034998906  0.037643253            4 
  179000    1.2124788   -6.8644063    75.342701  0.035075745  0.037621526            1 
  180000    1.2410953   -6.8866444    75.666573  0.035030821  0.037597677            3 
  181000     1.230935   -6.8345759    76.606106  0.035269846    0.0375802            2 
  182000    1.2248683   -6.8749184    76.726892  0.035131361  0.037563189            1 
  183000    1.2180935   -6.8780859    77.248915  0.035177101  0.037543837            1 
  184000    1.2258373   -6.9310968    77.129906  0.034932022  0.037523237            2 
  185000    1.2069957   -6.8772985    77.853085  0.035068957  0.037502776            3 
  186000    1.2219147   -6.9114408    78.450025  0.035147861  0.037486404            1 
  187000    1.2183508   -6.8900664    78.935495  0.035176246  0.037474075            1 
  188000    1.2180644   -6.8619019     79.61539   0.03529051  0.037461722            2 
  189000    1.2036238   -6.8725187    79.671297  0.035128438    0.0374468            1 
  190000    1.2402448   -6.9099011     79.96812  0.035073737  0.037428545            1 
  191000      1.22593     -6.88227    80.353049  0.035058049   0.03741044            2 
  192000    1.1897063   -6.8946463    81.052718  0.035179131  0.037394007            2 
  193000    1.2164267   -6.8684385     81.39481  0.035144564  0.037379991            2 
  194000    1.2301602   -6.8783029    81.829978  0.035150334  0.037367577            1 
  195000    1.2312882   -6.8977954    82.578852  0.035290108  0.037355372            3 
  196000    1.2321634   -6.8791582     82.71933  0.035169783  0.037344086            2 
  197000    1.1811813   -6.9238772    83.100809  0.035152626  0.037330246            2 
  198000    1.2366088   -6.8359962     84.02595  0.035364457  0.037318057            1 
  199000    1.2313714   -6.9110181    83.998465  0.035175237  0.037305836            2 
  200000    1.2158618   -6.8689143    84.591475  0.035246448  0.037292151            1 
  201000    1.2408165   -6.9026928    84.513596  0.035038804  0.037278625            1 
  202000     1.203456   -6.8605578    85.218257  0.035156047   0.03726369            2 
  203000    1.2436072   -6.8811807    85.843439  0.035239507  0.037249773            1 
  204000    1.2308361   -6.8929101    85.855389  0.035071646  0.037234919            2 
  205000    1.2174667   -6.8864868      86.3356  0.035095772  0.037218075            2 
  206000    1.2031165   -6.8320424    86.843363   0.03513081   0.03720285            1 
  207000    1.2430502   -6.8721136    87.448248  0.035204609  0.037186368            2 
  208000    1.2142126   -6.8607053    87.549195  0.035075799  0.037170748            1 
  209000    1.2356571    -6.874319     88.24288  0.035184561  0.037155703            2 
  210000    1.1946718   -6.8798882    88.392904  0.035076549  0.037140552            1 
  211000    1.2193106   -6.8610569    88.505243  0.034954677  0.037126411            1 
  212000    1.2130661   -6.8754397    89.561568  0.035205019  0.037109953            1 
  213000     1.207185   -6.8874124    89.234347  0.034911716  0.037090185            1 
  214000    1.2238741   -6.9445966    89.963292  0.035032434  0.037072335            1 
  215000    1.2205463    -6.909557    90.601462  0.035116846   0.03705559            1 
  216000    1.2420439   -6.9026105    90.878325  0.035061082  0.037040688            1 
  217000    1.1893315   -6.8792076    91.226444  0.035033196  0.037026409            3 
  218000     1.218868   -6.9046001    91.602517  0.035016252   0.03701016            3 
  219000    1.2153745    -6.851067    92.755249  0.035294996  0.036997088            1 
  220000    1.2112243   -6.8700375    93.129666  0.035276388   0.03698601            1 
  221000     1.212344   -6.8507356    93.413738  0.035223883  0.036975303            1 
  222000    1.2129991   -6.8928194    93.768307  0.035198313  0.036964427            1 
  223000    1.2245886   -6.8919816    94.551962  0.035333319  0.036952892            1 
  224000    1.2138265   -6.8796511    94.431165  0.035130642  0.036942514            2 
  225000     1.228154   -6.9284494    94.882983  0.035141845  0.036930911            1 
  226000    1.2097763   -6.8858641    95.319941  0.035147471  0.036918239            3 
  227000    1.2313744   -6.9038515    95.424471   0.03503101  0.036903669            2 
  228000    1.2229299   -6.9237722    95.735144  0.034990915  0.036888642            1 
  229000    1.2211807   -6.8991685    96.386242  0.035075052   0.03687466            1 
  230000    1.2284922   -6.9256185    96.655497  0.035020108  0.036860937            1 
  231000    1.2314568   -6.8848572    97.300404  0.035101156  0.036847146            2 
  232000    1.2099299   -6.9043357    97.481438  0.035014884   0.03683456            1 
  233000    1.2139638    -6.900078     97.88905   0.03501039  0.036820964            1 
  234000    1.2176694   -6.8657178    98.301891  0.035007796  0.036806745            1 
  235000     1.222789   -6.9362027    98.650694  0.034982516  0.036791533            2 
  236000    1.2159235   -6.9149333    99.354816  0.035082915  0.036778042            1 
  237000    1.1984611    -6.935012    99.588015  0.035016883  0.036765862            2 
  238000    1.2105047    -6.946891    99.906347  0.034981214   0.03675439            1 
  239000    1.2128633   -6.9010048    100.73325  0.035123168  0.036743025            2 
  240000    1.2142916   -6.8671088    101.45088  0.035225998   0.03673161            1 
  241000    1.2290402   -6.9175685    101.44096  0.035076405  0.036719335            2 
  242000     1.210585   -6.9021474    101.66327  0.035008013  0.036707496            2 
  243000    1.2026515   -6.9583311    101.92872  0.034954979  0.036695545            3 
  244000    1.2009824   -6.9288484    102.40857  0.034975605  0.036682883            2 
  245000    1.2171649   -6.8604437    102.95902  0.035020074  0.036668612            2 
  246000    1.1860092   -6.8733032    103.39517  0.035025463  0.036654883            1 
  247000    1.2222789   -6.8662876     103.6559  0.034971626   0.03664091       -1e+20 
  248000    1.2194638   -6.9337665    104.07168  0.034970323   0.03662871            1 
  249000    1.2422219   -6.8782385    104.90935  0.035110223  0.036616313            1 
  250000    1.2364452   -6.9025638    105.09385  0.035031285   0.03660547            1 
  251000    1.2165232   -6.9239606    105.04298  0.034874829  0.036593726            1 
  252000    1.2067311   -6.8473725    105.93316  0.035030806  0.036581688            1 
  253000    1.1996345   -6.8760378    106.47306  0.035070177   0.03656903       -1e+20 
  254000    1.2458257   -6.8435723    107.28632  0.035198923  0.036558558            2 
  255000    1.2294395   -6.9090141    107.25776  0.035051556  0.036548639            3 
  256000    1.2122718   -6.8974113    107.73958  0.035071479  0.036538152            2 
  257000     1.219515   -6.8988178    107.90497  0.034988643  0.036527941            3 
  258000    1.2120621    -6.933246    108.76991    0.0351324  0.036518783            2 
  259000    1.2051204   -6.9193426    109.15762  0.035121498  0.036509819            1 
  260000    1.1991724   -6.8610891     110.2274  0.035329294  0.036503289            3 
  261000    1.1992531   -6.8712149    110.50832  0.035283627  0.036497035            1 
  262000    1.1959235   -6.9138461    110.92831  0.035282542  0.036492786            1 
  263000    1.2240959   -6.8810623    111.23841  0.035246645   0.03648845            4 
  264000    1.2293594   -6.9323662    111.83229  0.035300596  0.036484758            3 
  265000    1.2315312   -6.9223215    112.20072  0.035283245  0.036481469            1 
  266000    1.2162273   -6.9342582    112.73583  0.035318244  0.036477877            1 
  267000    1.2060635   -6.8683699    113.85177  0.035534261  0.036476193            2 
  268000    1.2034992   -6.8918635    113.97451  0.035439834  0.036475919            1 
  269000    1.2142418   -6.9036824     114.4756   0.03546332  0.036476828            3 
  270000    1.1827461   -6.9252989    115.58403  0.035674085  0.036477871            1 
  271000    1.2194202    -6.868544    115.92657  0.035647776  0.036479646            1 
  272000    1.2017123   -6.9081792    115.68276  0.035442021  0.036480313            2 
  273000    1.2217203   -6.8982176    116.55295  0.035577822  0.036479391            2 
  274000    1.2411375   -6.8732582    116.33583  0.035381943  0.036479581            3 
  275000    1.2117161    -6.931051    116.92393  0.035431495  0.036478854            1 
  276000    1.2128932   -6.9362159    117.26899  0.035407304  0.036478706            3 
  277000    1.2188626   -6.9394625    117.87818   0.03546275   0.03647698            1 
  278000    1.2243166   -6.9543118    118.14275  0.035414493  0.036474445            2 
  279000    1.2187206   -6.9084038    118.66891  0.035444717  0.036473658            1 
  280000    1.2147215   -6.8676423    119.60819  0.035597675  0.036472369            3 
  281000    1.2108267   -6.9311634    119.76726  0.035518167  0.036472627            1 
  282000    1.2032133   -6.9182566    120.20634  0.035521967  0.036473822            1 
  283000    1.2086914   -6.9044507    120.94394  0.035613645  0.036474954            1 
  284000    1.2089715   -6.8884398    121.14369  0.035546858  0.036475034            2 
  285000    1.1997731   -6.8951471    121.57615  0.035548583  0.036475756            1 
  286000    1.2345433   -6.9165331    121.79358  0.035487641  0.036474701            1 
  287000    1.2063567   -6.8975639    122.36698  0.035530481  0.036473901            1 
  288000    1.2100613   -6.9331125    122.52107  0.035451698  0.036472153            1 
  289000     1.231213   -6.9161457    122.75376  0.035396126  0.036470036            1 
  290000    1.2021589   -6.8843816    123.60639  0.035519077  0.036468921            2 
  291000    1.2175092   -6.9432973    123.93057  0.035489854  0.036467495            3 
  292000    1.2334756   -6.9027798    124.22579  0.035452566  0.036465272            1 
  293000    1.2150116   -6.9479575    124.10025   0.03529586  0.036462385            1 
  294000    1.1890588   -6.9369363    124.84439  0.035386731  0.036459259            1 
  295000    1.2075505    -6.913039    124.97769  0.035304432  0.036455515            1 
  296000    1.2342506   -6.9658426    125.64663  0.035373488  0.036451335            1 
  297000    1.1920267   -6.8801772    125.49526  0.035211914  0.036447574            1 
  298000    1.1968262   -6.8895229    126.85925  0.035475182  0.036444021            1 
  299000    1.2236377   -6.8997867    127.26226  0.035468858  0.036441016            1 
  300000    1.1593896   -6.8938603    126.98087  0.035272464  0.036438493            1 
  301000    1.2036761    -6.926842    127.97753  0.035431209  0.036434458            1 
  302000    1.2176972   -6.9119249    128.67583  0.035506576  0.036432044            3 
  303000    1.2179617   -6.8960522    128.99913  0.035478308  0.036430501            1 
  304000     1.209176    -6.902802     129.2597  0.035433033  0.036429323            2 
  305000    1.2084753   -6.9066933    130.28653  0.035597412  0.036428044            4 
  306000    1.1907262   -6.9356816    129.87701  0.035369557  0.036425637            1 
  307000    1.2078553    -6.941527    130.36506  0.035386825  0.036422596            1 
  308000    1.2024221   -6.8933064    131.44961   0.03556537  0.036420511            3 
  309000    1.1844286   -6.9555069    131.40769  0.035438967  0.036418511            2 
  310000    1.1798661   -6.9516949    131.63554  0.035385898  0.036415996            1 
  311000    1.1786539    -6.933096    132.53862    0.0355141  0.036413895            2 
  312000    1.1812924   -6.9236859    133.00868  0.035525822  0.036412148            1 
  313000     1.185879   -6.9554812    133.30803   0.03549202  0.036410005            1 
  314000    1.2017843   -6.9432405    133.85829  0.035525023  0.036407593            1 
  315000    1.1958107   -6.9023304    133.88429  0.035419123  0.036404968            1 
  316000    1.2215497   -6.9349182    134.72651  0.035529142  0.036402382            1 
  317000    1.2027057   -6.9244204    135.04684  0.035501273  0.036400391            2 
  318000     1.246504   -6.9493463    135.60747  0.035536548    0.0364005            2 
  319000    1.2184942   -6.9253488     136.4714  0.035650837  0.036399886            1 
  320000    1.2014273   -6.8882774    137.25523   0.03574355  0.036400973            3 
  321000    1.1933242   -6.9492147    137.05408   0.03557998  0.036401767            3 
  322000    1.1864058   -6.9121246    138.35534  0.035806249  0.036403939            3 
  323000    1.1982763   -6.9183394    138.51827  0.035737428  0.036406491            2 
  324000    1.1751558   -6.8715294    139.37345  0.035847081  0.036409648            2 
  325000    1.1916956   -6.9343116    139.43007    0.0357513  0.036412721            2 
  326000    1.1843743   -6.9040966    140.39138  0.035887367   0.03641522            1 
  327000    1.2122056   -6.9076396    140.49789  0.035804762   0.03641692            1 
  328000    1.1925066   -6.9647428    140.89212  0.035795763  0.036420374            2 
  329000    1.2224408   -6.9606292    141.11584  0.035743628  0.036423811            1 
  330000    1.1886902   -6.9409784     141.2706  0.035674395  0.036426876            1 
  331000    1.2012478   -6.9560068    141.71554  0.035678635  0.036428473            1 
  332000    1.2005538   -6.8914521    142.61875  0.035797879  0.036429467            1 
  333000     1.195665   -6.9209743    142.99577  0.035784727  0.036429896            4 
  334000    1.2120426   -6.9437644    143.04899  0.035690866  0.036431029            3 
  335000    1.2047537   -6.9605988    143.37979  0.035666614  0.036431541            2 
  336000    1.2063894   -6.9404455    144.02347  0.035720105  0.036431806            2 
  337000    1.2048739   -6.8806202    144.78037  0.035801278   0.03643235            1 
  338000    1.2025284   -6.9531445    144.70551  0.035676902  0.036433918            7 
  339000    1.2398242   -6.9265982    145.17916  0.035688091  0.036434843            1 
  340000    1.1996605   -6.9302094    145.93053  0.035767286  0.036435669            1 
  341000    1.2063222   -6.8834274    147.00601  0.035925221  0.036436848            3 
  342000     1.189395   -6.9179494    147.03128  0.035826335  0.036438712            2 
  343000    1.1913188   -6.8853855    146.84957  0.035677739  0.036440948            1 
  344000    1.1683202   -6.9479558    147.60771  0.035757682  0.036441707            1 
  345000    1.2273439   -6.9141299    147.70529  0.035677605  0.036442102            1 
  346000    1.2122248   -6.9509683    148.24709  0.035704982  0.036441994            2 
  347000    1.1629803   -6.9291803    148.51291  0.035665923  0.036440682            2 
  348000    1.2050728    -6.927504    148.58717   0.03558122   0.03643994            4 
  349000    1.1907069    -6.926692    148.99126  0.035575754  0.036438714            1 
  350000    1.1952343   -6.9949015    149.45327  0.035584111  0.036436241            1 
  351000    1.1946919   -6.9703168    149.71528  0.035544939  0.036434243            1 
  352000    1.1827354   -6.9225963    151.03389   0.03575613  0.036433496            2 
  353000    1.1763975   -6.9366591    151.06237  0.035661562  0.036433174            2 
  354000    1.1981826    -6.926526    151.82109  0.035739427   0.03643194            2 
  355000    1.1827172   -6.9072248    152.30108  0.035751428  0.036432111            2 
  356000    1.1934609   -6.9434276    152.00912  0.035582659   0.03643204            1 
  357000    1.1843423   -6.9261478    153.23668  0.035769534  0.036431985            1 
  358000    1.2008036   -6.9503529    153.32336  0.035689796  0.036431547            3 
  359000    1.1824676   -6.9042158    154.15041  0.035782361  0.036432055            1 
  360000    1.2078128   -6.9109884    154.24007  0.035703719  0.036432785            2 
  361000    1.1739007   -6.9235563    154.48922  0.035662332  0.036433255            1 
  362000    1.2004118   -6.9059689    154.91357  0.035661503  0.036432975            1 
  363000    1.1931926   -6.9799494    155.50261  0.035698486  0.036433665            1 
  364000    1.1819229   -6.9367907    156.21604  0.035763745  0.036434693            3 
  365000    1.2147931   -6.9074126    156.72691    0.0357824   0.03643605            1 
  366000    1.1856568   -6.9292007    157.01553  0.035750349  0.036436411            1 
  367000    1.1816807   -6.9430184    157.54957  0.035774198  0.036436919            2 
  368000    1.2044086   -6.9296077    158.27435  0.035841112  0.036438052            1 
  369000    1.1917501   -6.9529559    158.47105  0.035788403  0.036440144            1 
  370000    1.2044289   -6.9124801    159.31623  0.035882034   0.03644222            2 
  371000    1.2006362   -6.9679726    159.36304   0.03579583  0.036443905            1 
  372000    1.1962591   -7.0098023    159.11515  0.035644074  0.036445376            2 
  373000    1.1969947   -6.9418125    160.65095  0.035891632  0.036447298            2 
  374000     1.180672   -6.9004874    161.41235  0.035965318  0.036450051            2 
  375000    1.1936436   -6.9611501    161.33333  0.035851851  0.036452856            1 
  376000    1.1765631   -6.9514731    162.31896  0.035974946  0.036455539            1 
  377000    1.2233641    -6.950732    162.66431  0.035955859  0.036458264            1 
  378000    1.1867222    -6.947543    162.92772   0.03591881  0.036460133            1 
  379000    1.2080099   -6.9233824    163.10701  0.035863459  0.036461345            2 
  380000    1.2077266   -6.9210285    163.52818  0.035861442  0.036463623            1 
  381000    1.1762599   -6.9456873    163.80303  0.035827435  0.036464063            1 
  382000    1.2012634   -6.9665769    163.72888   0.03571747  0.036464371            2 
  383000    1.1759697   -6.9071361     164.7755  0.035851936   0.03646492            1 
  384000    1.1883122   -6.9413503    164.68257  0.035738406  0.036465839            1 
  385000     1.201962   -6.9449198    165.22502  0.035762992  0.036464968            2 
  386000    1.1875099   -6.9469596    165.86569  0.035808654  0.036464396            5 
  387000    1.2067338   -6.9689909    165.53769  0.035645498  0.036463445            1 
  388000    1.1695534    -6.925736    166.44308  0.035748083  0.036461981            2 
  389000    1.1933635   -6.9463502    166.25101   0.03561504  0.036459261            1 
  390000     1.190069   -6.9624184    166.38194  0.035551697  0.036456831            1 
  391000    1.2126004   -6.9531481    166.82727  0.035555684  0.036454088            2 
  392000    1.1887154   -6.9076783    168.11931  0.035739649  0.036452252            1 
  393000    1.1781165   -6.9562387     168.5419  0.035738317  0.036450953            2 
  394000    1.1689275   -6.9680744    168.90561  0.035724538  0.036449761            1 
  395000    1.2051162    -6.926655      169.167  0.035689241  0.036447637            1 
  396000    1.1878517   -6.9476453    169.13101  0.035591542  0.036445175            1 
  397000    1.1735536   -6.9509811    169.78992  0.035640202  0.036443183            2 
  398000    1.1731276   -6.9836947    170.51389  0.035702238  0.036441176            1 
  399000    1.1961786   -6.9756231    170.66406  0.035644122  0.036439337            1 
  400000     1.161946   -6.9351992    171.45691   0.03572019  0.036437072            5 
  401000    1.1814489   -6.9612906    171.21426  0.035580686  0.036434011            3 
  402000    1.1651674   -6.9509086    171.80047  0.035613697  0.036431107            2 
  403000     1.163446   -6.9693713    172.56322  0.035683047  0.036428906            3 
  404000    1.2183778   -6.9393621    173.88633  0.035867642  0.036428142            2 
  405000    1.2060296   -6.9482993    174.29523  0.035863216   0.03642827            1 
  406000    1.1958954   -6.9432811    174.07745  0.035730182  0.036428232            1 
  407000    1.1808821   -6.9555871    174.69458   0.03576875  0.036427666            1 
  408000    1.1670629    -6.950841    174.88117  0.035719192  0.036427079            2 
  409000    1.1669004   -6.9039025    175.45478  0.035748732  0.036426521            1 
  410000    1.1732027   -6.9445001    175.59774  0.035690597  0.036425402            2 
  411000    1.1756278   -6.9341769    176.03543  0.035692503  0.036423483            1 
  412000    1.1855329   -6.9442779    176.11662  0.035622293  0.036421558            2 
  413000    1.1809172    -6.967894    176.59737  0.035633044  0.036419631            3 
  414000    1.1844581   -6.9602087    176.89906  0.035607701  0.036417498            1 
  415000    1.2026847     -6.97875    177.06666  0.035555553  0.036415192            1 
  416000    1.1965826   -6.9318765    178.01577   0.03566021   0.03641291            1 
  417000    1.2037682   -6.9871668    178.02839  0.035577217  0.036410551            2 
  418000    1.1838541   -6.9752263    178.62358  0.035610762  0.036407863            2 
  419000    1.1671522   -6.9930185    178.37323  0.035475981  0.036405018            3 
  420000     1.168106   -6.9861621     179.0613  0.035528036  0.036401404            1 
  421000    1.1895641   -6.9449702    179.46306   0.03552317   0.03639746            1 
  422000    1.1529844   -6.9858218    179.99649  0.035544331  0.036393509            2 
  423000    1.1646959   -6.9805043    180.01168  0.035463293  0.036389189            1 
  424000    1.1903329   -6.9652154    179.91378  0.035360413  0.036384362            2 
  425000     1.154866     -6.94723      181.069  0.035503725  0.036379367            2 
  426000     1.191559   -6.9649937    181.12825  0.035431975  0.036374754            2 
  427000    1.2021102   -7.0047272    181.09552  0.035342608  0.036368987            1 
  428000     1.193687   -6.9548276     181.5759  0.035353563  0.036362974            1 
  429000     1.188778    -6.985759    182.21629   0.03539555  0.036357475            2 
  430000    1.2069725   -6.9899935    182.19413   0.03530894  0.036351577            1 
  431000    1.1754489   -6.9420083    183.15664  0.035413116  0.036346766            1 
  432000    1.1926852   -6.9284919    183.52708    0.0354026  0.036341635            1 
  433000    1.1751144   -6.9256068    184.50103  0.035508281  0.036336054            1 
  434000    1.1876252   -7.0093327    184.57486  0.035440642  0.036330293            1 
  435000    1.1985334   -6.9458603    184.77637  0.035397772  0.036324885            1 
  436000    1.1921786   -6.9572585    184.99697  0.035358748   0.03631929            1 
  437000    1.1822158   -6.9217941    186.03687  0.035476137  0.036313899            1 
  438000    1.1583693   -6.9552121     185.9263  0.035374105  0.036309014            2 
  439000     1.207994   -6.9715534    186.04151  0.035315396   0.03630315            1 
  440000    1.1967959   -6.9745358    187.42895  0.035497908   0.03629761            1 
  441000    1.2020843   -6.9497523    187.42862   0.03541735  0.036292633            3 
  442000    1.1979564   -6.9360276     187.4141  0.035334484  0.036287152            2 
  443000    1.1423704   -6.9262263    188.62213  0.035481966  0.036281975            2 
  444000    1.1348515   -6.9474125    188.56403  0.035391146  0.036277105            1 
  445000    1.1865329   -6.9693289    188.76834  0.035349877  0.036272203            3 
  446000    1.1942935   -6.9726092    188.68195  0.035254475  0.036266869            2 
  447000    1.1615016   -7.0120967    188.72374  0.035183397  0.036260315            2 
  448000    1.1543382    -6.949696    189.88258   0.03532042  0.036254198            1 
  449000     1.189717   -6.9948032    189.72252  0.035212048  0.036247895            1 
  450000    1.1540046   -6.9508723     190.4086  0.035260851  0.036241602            2 
  451000    1.1619582   -6.9986049    191.06107  0.035303227  0.036235642            2 
  452000    1.1908078    -6.975723     191.2639  0.035262518   0.03622968            1 
  453000    1.1779413   -6.9839887    191.77844  0.035279331  0.036224507            5 
  454000     1.166911   -6.9581786    193.25838  0.035473271   0.03621927            1 
  455000    1.1993827   -6.9135846    192.62846  0.035279937  0.036213964            1 
  456000     1.198205   -6.9864249    192.87153   0.03524699  0.036207618            1 
  457000    1.1867255   -6.9902999    193.20351  0.035230398  0.036201487            1 
  458000    1.2094213   -6.9953447     193.3906  0.035187519  0.036195087            3 
  459000    1.1997268   -6.9659619    194.20198  0.035258166  0.036188305            2 
  460000    1.1891737   -6.9587639    194.08369  0.035160088   0.03618183            1 
  461000     1.177026   -6.9658473    194.80812  0.035214772  0.036175917            1 
  462000     1.167629   -6.9189296    196.18169  0.035386307  0.036170307            1 
  463000    1.1889753   -6.9655591    195.84254  0.035248838  0.036164508            2 
  464000    1.1713342   -7.0156707    195.52659  0.035116126  0.036158026            2 
  465000    1.1863413   -6.9907001    196.75438  0.035260641  0.036150703            2 
  466000     1.197516   -6.9922776    195.88316  0.035029178  0.036143421            2 
  467000    1.1543651   -7.0079236    196.88408  0.035132777  0.036135719            1 
  468000    1.1806239   -6.9365104    197.69292  0.035201731  0.036128453            2 
  469000    1.1450089   -6.9844675    197.79973  0.035145652  0.036121381            3 
  470000    1.1612405   -6.9592507    198.35919   0.03517007  0.036114346            2 
  471000    1.1864621   -6.9825446    198.59213  0.035136611  0.036107511            1 
  472000    1.1977673   -7.0186874    198.45879  0.035038628   0.03610071            1 
  473000    1.1700191   -6.9523212     199.5811  0.035162279  0.036094254            2 
  474000    1.1653329   -6.9778434    200.21964  0.035200359  0.036087184            1 
  475000    1.1762173   -6.9792443     199.8346  0.035058701  0.036079631            2 
  476000    1.1596437   -6.9779521    199.96043  0.035007077  0.036071296            1 
  477000    1.1653971   -6.9946264    200.54055  0.035035036  0.036062668            3 
  478000    1.1756583    -7.009319    200.28234  0.034916726   0.03605383            1 
  479000    1.1744592   -7.0313335    200.69912   0.03491634  0.036045494            2 
  480000    1.1820662   -6.9789724    201.93866  0.035058796  0.036036884            2 
  481000    1.1922893   -6.9299811    202.83546  0.035141279  0.036029374            1 
  482000    1.1815248   -6.9487622    202.17464  0.034954121  0.036021821            2 
  483000    1.1576483   -6.9609221    203.76026  0.035155325   0.03601409            1 
  484000    1.1807811     -6.96174    203.29901  0.035003273  0.036006878            5 
  485000    1.2014997   -7.0054809    203.49473  0.034964731  0.035999297            1 
  486000    1.1660207   -7.0017671    204.18305  0.035010811  0.035991778            1 
  487000    1.1713347   -6.9823814    205.01113  0.035080618  0.035985221            1 
  488000    1.1689629   -6.9770161    205.39791  0.035074779  0.035978402            5 
  489000    1.1776706   -6.9953546    206.06676  0.035117035  0.035970487            2 
  490000    1.1642485   -6.9565003    207.46353  0.035282914  0.035964032            1 
  491000    1.1766596   -6.9304993    206.90356  0.035116015  0.035957776            2 
  492000    1.1549385   -6.9749618    206.58548  0.034990765  0.035951289            1 
  493000    1.1998282   -6.9733841    206.90292  0.034973449    0.0359448            1 
  494000    1.1541784   -6.9707846    207.44474  0.034994051  0.035938525            1 
  495000    1.1585306   -6.9697467    208.84349  0.035158836  0.035932349            1 
  496000    1.1803194   -6.9532739    209.85973  0.035258692  0.035926169            1 
  497000    1.1627547   -6.9809732    209.21184  0.035079115  0.035920455            2 
  498000    1.1387055   -6.9730979    210.00825  0.035141943  0.035914663            1 
  499000    1.1648586   -6.9504447     210.4693  0.035148513    0.0359084            2 
  500000    1.1755367   -6.9533137    209.98406  0.034997342  0.035901508            2 
  501000     1.164443   -6.9772035    210.12763   0.03495137  0.035894659            1 
  502000    1.1511761   -7.0087036    210.15518  0.034886317  0.035887939            1 
  503000    1.1902572    -6.933649     211.4478  0.035031113  0.035880929            2 
  504000    1.1826857   -7.0194744      211.474   0.03496594  0.035873321            2 
  505000    1.1871224   -6.9907879    210.92711  0.034806454  0.035864926            1 
  506000    1.1727576    -6.975024    211.15288  0.034774848  0.035856205            1 
  507000    1.1622445   -7.0154101    211.90988  0.034830684  0.035847356            1 
  508000    1.1647195   -6.9651142    212.73112  0.034896837      0.03584            2 
  509000    1.1867986   -6.9764984    212.76481  0.034833794  0.035831988            2 
  510000    1.1640231   -6.9617377    213.81601  0.034937257  0.035824303            1 
  511000    1.1739924   -7.0175284    213.78099  0.034863176  0.035816596            2 
  512000    1.1468863   -6.9529845    214.64667  0.034935981  0.035809341            2 
  513000    1.1678627   -7.0004965    214.64125     0.034867  0.035801911            2 
  514000    1.1778444   -6.9624413    216.29375   0.03506708  0.035794772            3 
  515000    1.1709674   -6.9405935    216.25457  0.034992648  0.035787757       -1e+20 
  516000    1.1943017   -7.0093439    215.73515  0.034840948  0.035780484            3 
  517000    1.1597754   -6.9620734    216.84905  0.034953103  0.035773215            1 
  518000     1.173442   -6.9794139    216.20709  0.034782351  0.035766055            1 
  519000    1.1677538   -6.9507847    217.57972  0.034935729  0.035758917            2 
  520000    1.1887402   -6.9559574    217.99621   0.03493529   0.03575194            2 
  521000    1.1619719    -6.967271     218.9168  0.035015484  0.035744521            1 
  522000    1.1403873   -6.9634172    218.43992  0.034872273   0.03573814            2 
  523000    1.1773963   -6.9897214    219.14102  0.034917307  0.035731969            1 
  524000    1.1847666   -6.9657679    219.86257  0.034965421  0.035725865            1 
  525000    1.1559146    -6.994201     220.1532  0.034944953  0.035719856            3 
  526000    1.1878136   -7.0194185    221.06919  0.035023637  0.035714111            2 
  527000    1.1479707   -6.9737837    221.09455  0.034961188  0.035708664            2 
  528000    1.1800275   -6.9611297    221.96817  0.035032856  0.035703749            1 
  529000      1.15143   -6.9770982    222.18032  0.035000051  0.035698474            4 
  530000    1.1626487   -6.9567478    222.29475  0.034952005   0.03569324            2 
  531000    1.1673722   -6.9735707    222.39381  0.034901728  0.035687497            1 
  532000    1.1836379   -7.0062981    221.83691  0.034748889  0.035680517            2 
  533000    1.1665688   -6.9762988    222.76888  0.034829406  0.035673469            3 
  534000    1.1763829   -6.9944667    222.40225  0.034706968  0.035666259            2 
  535000    1.1849285   -7.0182136    222.83057  0.034708812  0.035658579            3 
  536000    1.1551759   -6.9761452    223.47512  0.034744266  0.035650775            2 
  537000    1.1600086   -7.0085523    224.31823  0.034810401  0.035643621            1 
  538000    1.1689752   -7.0164012    224.19803  0.034727081  0.035636179            2 
  539000    1.1564018   -7.0101783    224.83465  0.034761078  0.035628281            2 
  540000     1.176222   -7.0100733    225.08857   0.03473589  0.035620454            2 
  541000     1.169874     -6.98962    225.34332  0.034710923  0.035612904            2 
  542000     1.155847   -7.0030107    225.53896  0.034676962  0.035604791            2 
  543000     1.165234   -6.9943564    225.68224  0.034635088  0.035596463            2 
  544000    1.1611368   -6.9860867    226.08093  0.034632496  0.035587842            1 
  545000    1.1590177      -6.9772    226.11461  0.034574099  0.035579316            2 
  546000    1.1719799   -7.0106516      227.183  0.034673841   0.03557116            1 
  547000    1.1616147   -7.0137083    227.05389  0.034590782  0.035562179            1 
  548000    1.1717978   -6.9799738    226.24517  0.034404679  0.035552633            1 
  549000    1.1535227   -7.0463315    226.25388  0.034343333  0.035542336            1 
  550000    1.1650233   -6.9700144    227.19696  0.034423782   0.03553213            1 
  551000     1.211515   -7.0364098    227.28669  0.034374878  0.035522259            1 
  552000     1.156527   -7.0353842    227.34566  0.034321506   0.03551191            1 
  553000    1.1689872   -7.0078794    228.38676  0.034416328  0.035501337            2 
  554000    1.1533557   -7.0300206    228.65193  0.034394092  0.035491077            1 
  555000    1.1771166   -6.9900508    229.35385  0.034437515  0.035481683            2 
  556000    1.1736553   -7.0098852    229.59362  0.034411514  0.035471613            1 
  557000     1.162357   -6.9835235    229.40631  0.034321711  0.035461648            1 
  558000    1.1621925   -6.9644555    230.76324  0.034462849  0.035451254            3 
  559000    1.1582134   -7.0100421    230.25393  0.034325274  0.035441036            2 
  560000    1.1798818   -6.9947214    231.23319    0.0344097  0.035430734            1 
  561000    1.1677903   -7.0402825    231.14474  0.034335226  0.035420711            1 
  562000    1.1721444   -6.9686499    232.60727  0.034490994  0.035410636            2 
  563000     1.149987   -6.9948624    232.98077  0.034485017   0.03540082            3 
  564000    1.1582456   -7.0363162    232.78714  0.034395262  0.035391672            2 
  565000     1.175075   -7.0021802    234.03313   0.03451816  0.035382839            1 
  566000    1.1738134   -6.9901796    233.81101  0.034424471  0.035374437            1 
  567000    1.1618554    -6.976036    234.87643  0.034520345  0.035366269            2 
  568000    1.1334765   -6.9887855    235.02725  0.034481697  0.035358281            2 
  569000    1.1909696   -7.0416547    235.13841  0.034437377  0.035350304            1 
  570000     1.168031   -6.9866086    237.16845   0.03467375  0.035342724            1 
  571000    1.1467915   -6.9889124    236.51537  0.034517713  0.035335501            3 
  572000    1.1608838   -7.0023558    236.70868   0.03448553  0.035328181            1 
  573000    1.1499813   -7.0197453    237.28353  0.034508949  0.035320674            1 
  574000    1.1613213   -7.0291561    237.99151  0.034551612  0.035313235            3 
  575000    1.1645506   -6.9593408    238.30144   0.03453644  0.035305532            1 
  576000    1.1277256   -7.0175216    237.84812  0.034410898   0.03529718            2 
  577000    1.1562414   -6.9518973    239.01816  0.034520243  0.035289524            1 
  578000    1.1662529   -6.9812553    239.41713  0.034518041  0.035282332            2 
  579000     1.185436   -6.9747354    240.49645  0.034613766  0.035274871            5 
  580000    1.1814504   -6.9899334     239.5463  0.034417571   0.03526787            2 
  581000    1.1737265   -7.0213067    239.86158  0.034403555  0.035259785            2 
  582000    1.1625459   -7.0452323    240.08669  0.034376674  0.035251539            1 
  583000    1.1441205   -6.9920307    240.29282  0.034347172  0.035243042            2 
  584000    1.1514433    -7.005923    240.42997  0.034307929  0.035234558            4 
  585000    1.1604016   -7.0312562    242.11606  0.034489468  0.035226525            1 
  586000    1.1499469   -7.0287302    240.91164  0.034259334  0.035218037            1 
  587000    1.1486698    -7.014616     241.7736  0.034323339  0.035209487            2 
  588000    1.1730522   -7.0203999    241.86786  0.034278325  0.035201118            3 
  589000    1.1443425   -7.0737161    242.85146  0.034359289  0.035193215            1 
  590000    1.1701396   -7.0145034    242.92565  0.034311532  0.035185348            2 
  591000    1.1454192   -6.9807337    243.43491  0.034325284  0.035177002            2 
  592000    1.1693434   -7.0285343    243.37308  0.034258598  0.035169088            3 
  593000    1.1689185   -7.0261984    244.50407  0.034359762  0.035160482            1 
  594000    1.1450386   -6.9854104     244.7147  0.034331468  0.035152126            2 
  595000    1.1638946   -7.0542849     244.1322  0.034192184  0.035143869            2 
  596000    1.1463443   -7.0191982    245.18539  0.034282073  0.035135427            3 
  597000    1.1461189   -7.0021345    246.00646  0.034339261  0.035126673            1 
  598000    1.1779117    -7.014004    245.45823  0.034205439  0.035118636            1 
  599000    1.1504881   -6.9976535    246.62594  0.034310788  0.035109962            1 
  600000    1.1201367   -6.9877583    246.24078  0.034200108  0.035101576            2 
  601000    1.1357745   -7.0229284    246.84225  0.034226601  0.035093156            5 
  602000    1.1781548   -6.9837511    247.55434   0.03426832  0.035084801            3 
  603000    1.1715181    -7.006729    248.01595  0.034275283  0.035076308            2 
  604000    1.1503959   -6.9852697    248.44633  0.034277916  0.035067804            2 
  605000    1.1335413   -7.0151296    248.28035  0.034198395   0.03505926            2 
  606000    1.1678276   -7.0515033    247.83284  0.034080424  0.035050595            2 
  607000    1.1493187   -6.9909885    248.89188  0.034169671  0.035042006            1 
  608000    1.1252159   -7.0129495    249.41566  0.034185261  0.035033616            1 
  609000    1.1746867   -7.0640554    249.15943  0.034094065  0.035024534            2 
  610000    1.1291399   -7.0387352    250.00717  0.034153985  0.035015656            3 
  611000    1.1559856   -7.0380258    249.73267  0.034060648  0.035006847            2 
  612000    1.1431372   -6.9791244    251.43225  0.034236418  0.034998462            4 
  613000    1.1457548   -7.0240708    250.37086  0.034036278  0.034989409            1 
  614000    1.1343525   -6.9984169    251.94345   0.03419428  0.034980206            1 
  615000    1.1459814   -7.0444525    251.37169  0.034061205  0.034971158            1 
  616000    1.1679347   -7.0357415    251.64886  0.034043406  0.034962604            2 
  617000    1.1690817   -7.0105467    252.90453  0.034157825  0.034953847            2 
  618000    1.1467053   -7.0287331    253.23929  0.034147693  0.034945744            2 
  619000    1.1598196   -6.9944157    253.09289  0.034072818  0.034937174            3 
  620000    1.1250516    -6.989648    254.76002  0.034241938  0.034929137            1 
  621000    1.1526104   -7.0011493    254.15849  0.034106078  0.034921329            2 
  622000    1.1490361    -7.009444    254.42434  0.034086862  0.034913243            4 
  623000    1.1482957   -6.9983356     255.0923  0.034121496  0.034905026            2 
  624000    1.1604803    -7.053035    255.32511  0.034097904  0.034896622            2 
  625000    1.1610849   -7.0109883    255.29024  0.034038699   0.03488818            3 
  626000    1.1554285   -7.0098249    256.98282   0.03420964  0.034880009            1 
  627000    1.1414324   -7.0031282    255.70051   0.03398465  0.034871384            4 
  628000    1.1504055   -6.9790436    257.06633  0.034111774  0.034862373            1 
  629000     1.131662   -7.0385929    256.24886   0.03394924  0.034853395            2 
  630000    1.1557091   -7.0150715    256.87231  0.033977819  0.034844306            2 
  631000    1.1691066   -7.0263358    257.52063  0.034009592  0.034835384            2 
  632000    1.1751066   -7.0055648    258.43074  0.034075783  0.034827015            2 
  633000    1.1675545   -6.9970363    258.94735  0.034089961  0.034818419            1 
  634000    1.1614503   -7.0988304    257.74521  0.033878182  0.034809931            2 
  635000    1.1617943   -7.0188918    259.41805  0.034044363  0.034801448            1 
  636000    1.1537599   -7.0160865    259.99833  0.034066868  0.034793392            2 
  637000    1.1559958   -7.0467088    259.82805  0.033991111  0.034784906            1 
  638000    1.1654835   -7.0292389    260.76465  0.034060168  0.034777159            2 
  639000     1.155154   -7.0410092    261.03644  0.034042311  0.034769034            1 
  640000    1.1639422   -7.0225951    261.94406  0.034107299  0.034762027            2 
  641000    1.1315104   -7.0451763    262.29743   0.03410003   0.03475486            2 
  642000    1.1513459   -7.0437384    263.42158  0.034192833  0.034747903            1 
  643000     1.159636   -7.0268072    263.34134  0.034129256  0.034740737            1 
  644000     1.153618   -7.0130667    263.94211     0.034154  0.034733616            2 
  645000    1.1751373   -7.0180777    264.07839  0.034118655  0.034726648            1 
  646000    1.1337199    -7.014549    264.59701  0.034132741   0.03471996            2 
  647000    1.1556733   -7.0365252    264.26712  0.034037497  0.034712928            2 
  648000    1.1442532   -7.0488163    265.48131  0.034141115  0.034706021            3 
  649000    1.1354475   -7.0953586    265.29804  0.034064976  0.034699055            2 
  650000     1.159793    -7.023382    265.71834  0.034066453  0.034692258            2 
  651000    1.1490532   -7.0092217    266.47758  0.034111313  0.034685534            1 
  652000    1.1572495   -7.0178063    265.78787  0.033970842  0.034678641            2 
  653000      1.12186   -7.0442871    266.03481  0.033950333  0.034670874            1 
  654000     1.136624    -7.039205    266.68062  0.033980711  0.034663444            1 
  655000    1.1438918   -7.0691389    267.01694  0.033971621  0.034655595            2 
  656000    1.1351435   -7.0111426     267.9704  0.034040955  0.034648375            3 
  657000    1.1284745   -7.0324756    268.55938  0.034063849  0.034641776            1 
  658000    1.1350989   -7.0204568    269.22545  0.034096435  0.034634698            1 
  659000    1.1372307   -7.0234688    268.36567  0.033935973  0.034627538            2 
  660000    1.1515645   -7.0069514    270.72453   0.03418239  0.034621132            2 
  661000    1.1604896   -7.0265661    270.36166  0.034084929  0.034614765            2 
  662000    1.1520719   -7.0381532    269.68023  0.033947663  0.034608034            1 
  663000     1.161133   -7.0320586    270.78336  0.034035113  0.034601267            2 
  664000    1.1160417    -7.056868    270.64155  0.033966058  0.034594868            1 
  665000     1.141261   -7.0181453    271.85094  0.034066534  0.034588224            1 
  666000    1.1515943   -7.0488854    271.77681  0.034006107  0.034581625            1 
  667000    1.1224979   -7.0141944    272.72217  0.034073234  0.034574453            3 
  668000     1.144882   -7.0537543    272.94809  0.034050411  0.034567492            1 
  669000    1.1569499   -7.0877978    271.99432  0.033880708  0.034560399            1 
  670000    1.1439521   -7.0672579     272.6989  0.033917774  0.034553527            2 
  671000    1.1577596   -7.0447637    272.80849  0.033880835   0.03454615            1 
  672000    1.1487172   -7.0164296     273.5214  0.033918825  0.034539066            2 
  673000    1.1445449   -7.0139368    275.01466  0.034053326  0.034532913            1 
  674000    1.1441775   -7.0396783    273.85746  0.033859726  0.034526331            1 
  675000    1.1195994   -7.0287554    275.16848  0.033971417  0.034519487            1 
  676000    1.1423323   -7.0517661    274.64434  0.033856551  0.034512724            2 
  677000    1.1471722   -7.0087375    276.60903  0.034048378  0.034505332            2 
  678000    1.1220676   -7.0427846     276.1549  0.033942343   0.03449861            1 
  679000    1.1592328    -7.019948    277.04778  0.034001936  0.034491798            1 
  680000    1.1788092   -7.0160014    277.55824   0.03401449   0.03448502            1 
  681000    1.1551146   -7.0280321    277.44983  0.033951276  0.034478063            1 
  682000    1.1213993   -7.0446315    277.24425  0.033876374   0.03447073            1 
  683000    1.1598442   -7.0471922    276.93134  0.033788597  0.034463565            2 
  684000    1.1733144   -7.0515327    277.35868  0.033791262   0.03445641            3 
  685000    1.1334562   -7.0486887    277.97383  0.033816767    0.0344491            1 
  686000    1.1333878   -7.0458136    278.02314  0.033773462  0.034441879            2 
  687000    1.1463028    -7.079308    278.44373  0.033775319  0.034434641            3 
  688000    1.1474467   -7.0368819    279.20221  0.033818097  0.034427535            1 
  689000    1.1649958   -7.0354451    279.85363  0.033847803  0.034420587            1 
  690000    1.1422259   -7.0211632    281.39153  0.033984484  0.034413347            1 
  691000    1.1294357    -7.060991    280.14652  0.033785157  0.034405876            2 
  692000    1.1413824   -7.0281374    280.75981  0.033810189  0.034398672            3 
  693000    1.1291127   -7.0693451    280.36119  0.033713466  0.034391431            2 
  694000    1.1067365   -7.0811838    280.93587  0.033733894  0.034383808            1 
  695000    1.1446238   -7.0326442    281.64603  0.033770507  0.034376222            1 
  696000    1.1365279   -7.0258288    282.44918  0.033818149  0.034368859            1 
  697000    1.1177268   -7.0320471    281.23297  0.033624219  0.034361181            1 
  698000    1.1194066    -7.056497    282.25666  0.033698264  0.034353079            2 
  699000    1.1497138   -7.0672217    281.54049  0.033564674  0.034344695            2 
  700000    1.1463816   -7.0004532     282.9116  0.033679953  0.034336748            4 
  701000    1.1455081   -7.0454244    282.70534  0.033607387  0.034328934            1 
  702000     1.126281   -7.0528936    283.36093  0.033637337  0.034321007            4 
  703000    1.1401221      -7.0389     284.2724  0.033697534  0.034312894            1 
  704000     1.134541    -7.046535    283.74923  0.033587741  0.034305316            1 
  705000    1.1198356   -7.0105961    284.18282   0.03359135  0.034297379            3 
  706000    1.1228264   -7.0203679    285.07288  0.033648829   0.03428927            2 
  707000     1.127448   -7.0815662    284.49425  0.033533033  0.034281067            1 
  708000    1.1510307   -7.0228614    286.30155  0.033698393  0.034273151            1 
  709000    1.1186879   -7.0392959     286.6213  0.033688447  0.034265296            2 
  710000     1.125203   -7.0218996    286.31849  0.033605457  0.034257857            1 
  711000    1.1341507   -7.0919082    287.09558  0.033649271  0.034249742            2 
  712000    1.1398324    -7.024195    287.45694  0.033644304  0.034241894            1 
  713000    1.1202771   -7.0981425    286.25951  0.033457166  0.034233925            2 
  714000    1.1474028   -7.0546992    286.49285  0.033437541  0.034225392            2 
  715000    1.1486229   -7.0817074    286.88822  0.033436856  0.034216676            2 
  716000     1.151499   -7.0986637    286.45184  0.033339367  0.034207459            3 
  717000    1.1200516   -7.0399322    288.18656  0.033494486  0.034198796            1 
  718000    1.1468966   -7.0707109    288.47931  0.033481814  0.034190278            2 
  719000    1.1686481   -7.0854879    288.91564  0.033485818  0.034181939            3 
  720000    1.1432969    -7.101723    288.39277  0.033378793  0.034173723            1 
  721000    1.1257184   -7.0682424     289.6411   0.03347678  0.034165098            3 
  722000    1.1424878   -7.0879767    290.03212  0.033475545  0.034156638            3 
  723000    1.1196958   -7.0565747    291.05947  0.033547657  0.034148605            2 
  724000    1.1307867   -7.0531314    290.59448  0.033447799  0.034140554            1 
  725000    1.1316501   -7.0745809    290.99198  0.033447354   0.03413194            1 
  726000    1.1457953   -7.0738083    290.95705  0.033397274  0.034123542            2 
  727000    1.1263574   -7.0703583    291.99553  0.033470373   0.03411532            1 
  728000    1.1219391   -7.0430646    292.23798   0.03345215  0.034106772            2 
  729000    1.1369945   -7.0501778    293.19672  0.033515857  0.034098567            1 
  730000    1.1396432   -7.0893714    291.79806  0.033310281  0.034090254            2 
  731000    1.1129703   -7.0489253    292.78055  0.033376715  0.034081601            2 
  732000    1.1201904   -7.0648746    292.77791  0.033330818    0.0340729            2 
  733000    1.1462622   -7.0548519    293.11771  0.033323977  0.034063925            2 
  734000    1.1483516    -7.017135    294.51164  0.033436835  0.034055576            1 
  735000      1.15916    -7.061191    293.57868  0.033285564  0.034047121            4 
  736000    1.1245961   -7.0787074    294.73737  0.033371532  0.034038628            2 
  737000    1.1380836     -7.06444     294.9495  0.033350237   0.03403039            3 
  738000    1.1292676   -7.0316201    296.35582  0.033463846  0.034022469            2 
  739000    1.1679382   -7.0735356    296.04638  0.033383669   0.03401459            2 
  740000    1.1254772    -7.060292    296.05747  0.033339805  0.034006295            1 
  741000    1.1354331   -7.0841892    296.05649  0.033294702  0.033997973            2 
  742000     1.164698   -7.0268687    296.51773  0.033301632  0.033989787            1 
  743000    1.1326697   -7.0907818    297.67263  0.033386342  0.033981635            1 
  744000     1.148969   -7.0652703    298.47577  0.033431426  0.033973762            2 
  745000     1.135803   -7.0671032    298.72764  0.033414725  0.033966501            1 
  746000    1.1271619   -7.1109372    298.69212  0.033365965   0.03395884            1 
  747000    1.1047241   -7.0593971    299.26195  0.033384867  0.033951128            2 
  748000    1.0903179   -7.0166863    299.22295  0.033335891  0.033943841            1 
  749000    1.1102062   -7.0502296    299.68673  0.033342983  0.033936301            5 
  750000    1.1202021   -7.1012893    300.15665  0.033350739  0.033928779            3 
  751000    1.1578801   -7.0751666    300.45712  0.033339672  0.033921101            1 
  752000    1.1621646   -7.0515685    301.79536  0.033443635  0.033913747            1 
  753000    1.1527473   -7.0492319      301.838   0.03340394  0.033906549            1 
  754000    1.1256005   -7.1057921    300.38745   0.03319932  0.033899035            2 
  755000    1.1405407   -7.1005315    300.96086  0.033218638  0.033891155            2 
  756000    1.1716825    -7.021122    303.80849   0.03348859  0.033883906            2 
  757000    1.1338039   -7.1064554    302.42697  0.033292269  0.033876591            1 
  758000    1.1301174   -7.0923696     303.4893  0.033365138  0.033869454            2 
  759000     1.130572   -7.0716329    302.94584   0.03326151  0.033861975            2 
  760000    1.1629206   -7.0698566    304.27517  0.033363506  0.033854749            1 
  761000    1.1201834   -7.0617671    304.17898   0.03330913   0.03384762            2 
  762000    1.1506289   -7.0652152    304.26701  0.033275045  0.033840483            1 
  763000    1.1442263   -7.0596699     305.1635  0.033329347   0.03383321            2 
  764000    1.1331879   -7.0699323    305.12823  0.033281875  0.033825949            1 
  765000     1.156927   -7.0750141    304.63596  0.033184745  0.033818463            5 
  766000    1.1214582    -7.047916    306.47708  0.033341719  0.033811242            1 
  767000    1.1523443   -7.0818527    305.46352  0.033188127  0.033803931            2 
  768000    1.1436918   -7.0471468    306.98271  0.033309755  0.033796484            1 
  769000    1.1262022   -7.0546583    307.24371  0.033294724  0.033788969            2 
  770000    1.1285903   -7.0947695    306.20938  0.033139543  0.033781452            1 
  771000    1.1180909   -7.1100822    307.05491   0.03318795  0.033773779            1 
  772000    1.1448479   -7.0862332    307.99253  0.033246172  0.033766351            1 
  773000      1.14016   -7.0602624    308.84079  0.033294609  0.033759007            2 
  774000    1.1417339     -7.07446    308.63507  0.033229443  0.033751599            3 
  775000    1.1456801   -7.0785757    308.32492  0.033153218  0.033744137            1 
  776000    1.1363386   -7.0696548    309.02329  0.033185491  0.033736652            1 
  777000     1.109765   -7.0785468    308.48749  0.033085316  0.033728966            1 
  778000    1.1257843   -7.0697667    309.53133  0.033154598  0.033721104            3 
  779000    1.1271518   -7.0759714    308.34007  0.032984603  0.033713343            2 
  780000    1.1187432   -7.0762078     310.7384  0.033198547  0.033705725            1 
  781000    1.1294071   -7.1164274     310.4717  0.033127583  0.033698147            3 
  782000    1.0956956   -7.0933637    309.46997  0.032978471  0.033690062            1 
  783000    1.1099006    -7.077451    310.72305  0.033069716   0.03368217            2 
  784000    1.1230142   -7.0732697    312.68285  0.033235847  0.033674364            1 
  785000    1.1306225    -7.086187    311.13723   0.03302943  0.033666511            3 
  786000    1.1264197   -7.0691083    312.72144  0.033155369  0.033658824            1 
  787000    1.1246136   -7.1178341     312.8112  0.033122745  0.033651326            2 
  788000     1.125773   -7.0989688    312.79546  0.033079046  0.033644151            1 
  789000    1.1388163   -7.1013685    312.90563  0.033048757  0.033636614            1 
  790000    1.1099533   -7.0884922    313.22451  0.033040561  0.033629449            2 
  791000    1.1401775    -7.078417    314.90115  0.033175427  0.033622149            2 
  792000    1.0990421   -7.0778291    315.89871    0.0332385  0.033615027            1 
  793000    1.1277832   -7.0671817    315.50113  0.033154805  0.033608133            1 
  794000    1.1321107   -7.0773616     315.7468  0.033138833  0.033601158            2 
  795000    1.1111978   -7.0540684    315.89101  0.033112265  0.033594262            1 
  796000    1.1405685   -7.0679715    317.28756  0.033216872  0.033587387            1 
  797000    1.1366861   -7.0586762    317.67742  0.033215958  0.033580669            1 
  798000    1.1057357   -7.0434277    317.22927  0.033127535  0.033573946            2 
  799000    1.1341939   -7.0918445    317.15965  0.033078812  0.033567044            1 
  800000    1.1294193   -7.1328608    317.38751  0.033061199  0.033560015            1 
  801000    1.1395801   -7.0854912    317.50108  0.033031739  0.033552889            1 
  802000    1.0990284   -7.1036642    317.50045  0.032990488  0.033545317            2 
  803000    1.1095577   -7.0967797    317.57898  0.032957553  0.033537961            1 
  804000    1.1393885    -7.096964    317.71731  0.032930898  0.033530546            1 
  805000    1.1068666   -7.1285866    317.87301  0.032906108  0.033522986            2 
  806000    1.1230366   -7.0909475    319.27341  0.033010072  0.033515245            3 
  807000     1.097624   -7.0866729    319.24048  0.032965767  0.033508164            1 
  808000    1.0870451   -7.1192216    319.12219  0.032912767  0.033501111            3 
[...]
 4800000   0.49079507   -8.5629774    674.60079  0.011711819  0.010073228            4 
 4801000   0.48390755   -8.5463814    674.36625  0.011705309  0.010069888            7 
 4802000   0.48557156   -8.5558032    673.62258  0.011689966  0.010066548            3 
 4803000   0.48190943   -8.5542464    675.30251  0.011716679   0.01006321            3 
 4804000   0.47864317   -8.5553458    673.90654  0.011690025  0.010059871            3 
 4805000   0.48035471   -8.5544604    673.24807  0.011676172  0.010056535            3 
 4806000   0.48735253   -8.5589238    674.09371  0.011688405    0.0100532            7 
 4807000   0.47168703   -8.5612715    674.00717  0.011684474  0.010049868            6 
 4808000   0.48526311   -8.5677883    674.77669  0.011695381  0.010046536            4 
 4809000    0.4807737   -8.5461877    673.54479  0.011671602  0.010043207            5 
 4810000   0.47544432   -8.5596911    674.58914  0.011687269  0.010039878            2 
 4811000    0.4906298   -8.5470536    673.98835  0.011674433  0.010036552            2 
 4812000   0.47984073   -8.5550863    673.69497  0.011666926  0.010033227            3 
 4813000   0.47687763   -8.5633382    672.71821   0.01164759  0.010029902            4 
 4814000   0.48842039   -8.5529341    673.62142  0.011660806  0.010026576            6 
 4815000   0.49576042   -8.5498591    673.57709  0.011657617  0.010023254            3 
 4816000   0.47027775   -8.5616481    673.79097  0.011658897  0.010019935            2 
 4817000   0.48242074   -8.5595078    673.36977   0.01164919  0.010016613            4 
 4818000   0.47940129   -8.5507675    674.21655  0.011661418  0.010013296            5 
 4819000   0.47687946   -8.5799953    674.05141  0.011656143   0.01000998            3 
 4820000   0.48610997   -8.5491914    673.02953  0.011636057  0.010006665            3 
 4821000   0.50163021   -8.5658324    674.03556  0.011651033   0.01000335            3 
 4822000   0.47876219   -8.5559088    674.78153  0.011661509   0.01000004            4 
 4823000   0.47392122   -8.5490786    673.90448  0.011643937 0.0099967307            7 
 4824000   0.48487801   -8.5668586    674.88338  0.011658433 0.0099934226            5 
 4825000   0.48688223   -8.5730044    673.99027  0.011640592 0.0099901146            2 
 4826000   0.48207214   -8.5582972    672.80937  0.011617789 0.0099868087            2 
 4827000   0.48242407     -8.55213    673.73701  0.011631396 0.0099835027            4 
 4828000   0.48095807   -8.5486018    674.41032  0.011640609 0.0099802002            4 
 4829000   0.48828255   -8.5631334    673.49019   0.01162232 0.0099768993            2 
 4830000   0.47934572   -8.5805611    673.88297   0.01162669 0.0099736004            4 
 4831000   0.47262877   -8.5648196    673.57422  0.011618958 0.0099703029            3 
 4832000   0.47929464   -8.5550893    675.24544  0.011645375 0.0099670073            4 
 4833000    0.4790184   -8.5561568    673.61049  0.011614775 0.0099637117            2 
 4834000   0.47381524   -8.5508515    674.97916  0.011635967 0.0099604182            2 
 4835000   0.47295021    -8.566658     673.7862  0.011612999 0.0099571245            3 
 4836000   0.48718237   -8.5668916    673.86255  0.011611913  0.009953833            5 
 4837000   0.48733127   -8.5703194    673.78598  0.011608194 0.0099505413            3 
 4838000   0.47176359   -8.5753628    674.45103  0.011617249 0.0099472537            4 
 4839000   0.47614259   -8.5645071    673.57739  0.011599804 0.0099439632            3 
 4840000   0.48120137   -8.5651319    672.89783  0.011585706  0.009940677            2 
 4841000   0.47592318   -8.5659019    674.48264  0.011610594 0.0099373918            4 
 4842000   0.48291534   -8.5557353    674.75328  0.011612854 0.0099341081            4 
 4843000   0.47447771   -8.5791697    674.12163  0.011599588 0.0099308248            3 
 4844000   0.47198232   -8.5621352     674.4713  0.011603208 0.0099275406            3 
 4845000   0.48031298   -8.5722341    674.08811  0.011594223 0.0099242601            5 
 4846000   0.46945774   -8.5769492    673.68485  0.011584896 0.0099209819            3 
 4847000   0.47806016   -8.5540754    674.05178  0.011588814 0.0099177018            5 
 4848000   0.48582401   -8.5619436    673.54155  0.011577653 0.0099144259            3 
 4849000   0.48139518   -8.5522932    673.40703  0.011572954 0.0099111489            3 
 4850000   0.48084393   -8.5502469    674.04825  0.011581585  0.009907878            3 
 4851000   0.48465626   -8.5852756    673.71339  0.011573445  0.009904605            4 
 4852000     0.482305    -8.572729    674.08974  0.011577524 0.0099013319            5 
 4853000   0.46706463   -8.5566073    673.82784  0.011570641 0.0098980624            2 
 4854000   0.47185935   -8.5723012    672.65026   0.01154804 0.0098947942            3 
 4855000   0.47995911   -8.5660184    674.37762  0.011575311 0.0098915261            5 
 4856000   0.47982991   -8.5692615    672.49876  0.011540684 0.0098882604            3 
 4857000   0.47952349   -8.5549195    674.43306  0.011571496 0.0098849963            3 
 4858000   0.47322731   -8.5589735    673.01352  0.011544763 0.0098817338            2 
 4859000   0.48207627   -8.5825487    673.99926  0.011559293 0.0098784706            6 
 4860000   0.47854725   -8.5727504    673.76786  0.011552947 0.0098752083            4 
 4861000   0.47269264    -8.555247     673.4135  0.011544495 0.0098719494            3 
 4862000   0.47724147   -8.5611505    673.49029  0.011543437  0.009868689            3 
 4863000   0.47402399   -8.5641604    674.91193  0.011565425 0.0098654323            7 
 4864000   0.47937038   -8.5685942    673.13135  0.011532541 0.0098621751            4 
 4865000   0.48454171   -8.5724883    673.89679  0.011543282 0.0098589204            4 
 4866000   0.47237568   -8.5718744    674.22998  0.011546616 0.0098556671            2 
 4867000   0.47640173   -8.5762398    673.84608   0.01153767 0.0098524171            5 
 4868000   0.47598572   -8.5787037    673.43244  0.011528219 0.0098491694            7 
 4869000   0.47296068   -8.5706492    673.45227  0.011526191 0.0098459259            3 
 4870000   0.47915792    -8.570789    674.59458  0.011543371 0.0098426823            3 
 4871000   0.47043994    -8.588368    673.09246  0.011515302 0.0098394363            2 
 4872000   0.47526448   -8.5933394    674.28721  0.011533374 0.0098361931            3 
 4873000    0.4717377   -8.5658836    673.32458  0.011514546 0.0098329507            2 
 4874000   0.47018641   -8.5783612    674.29409   0.01152876 0.0098297099            3 
 4875000   0.47880173   -8.5625456    674.57132  0.011531134 0.0098264679            8 
 4876000   0.47428252    -8.574199    673.67904  0.011513519 0.0098232272            3 
 4877000    0.4702194    -8.580908    673.50026  0.011508104 0.0098199874            6 
 4878000    0.4706396   -8.5793709    673.74074  0.011509853 0.0098167498            6 
 4879000   0.47185571   -8.5786992    673.16606  0.011497678 0.0098135105            4 
 4880000     0.472207   -8.5846996    673.04306  0.011493222 0.0098102748            5 
 4881000   0.46543745   -8.5620119    673.12763  0.011492311 0.0098070385            7 
 4882000   0.47857113   -8.5747806    674.53476  0.011513976 0.0098038088            5 
 4883000   0.46612524   -8.5745607    673.60155  0.011495692 0.0098005791            2 
 4884000   0.46196574   -8.5650613    673.51784   0.01149191 0.0097973505            3 
 4885000   0.47047098   -8.5722177    673.95407  0.011496999 0.0097941229            4 
 4886000   0.46515134   -8.5765907    673.91367  0.011493957 0.0097908987            7 
 4887000   0.47895951   -8.5902846    674.40328  0.011499954 0.0097876711            2 
 4888000   0.46463023   -8.5845653    673.60365  0.011483968 0.0097844455            3 
 4889000   0.47553981   -8.5807524    674.43978  0.011495871 0.0097812194            6 
 4890000   0.46834839   -8.5787341    672.20965  0.011455515 0.0097779967            4 
 4891000    0.4730049   -8.5808434    674.38886  0.011490303 0.0097747763            5 
 4892000   0.47470884   -8.5754124    673.07082  0.011465502 0.0097715568            4 
 4893000   0.46982864   -8.5625108    673.38653  0.011468535 0.0097683379            4 
 4894000    0.4785663   -8.5754276    673.95185  0.011475818 0.0097651212            4 
 4895000   0.46673206    -8.585336    673.12534  0.011459403 0.0097619074            3 
 4896000   0.47617021   -8.5946774    674.15665  0.011474616  0.009758694            2 
 4897000   0.47309442   -8.5657965    672.79656  0.011449128   0.00975548            3 
 4898000   0.47220286   -8.5637392    673.57136  0.011459973 0.0097522696            8 
 4899000    0.4786887   -8.5876609    673.40924  0.011454876 0.0097490599            3 
 4900000   0.47430174   -8.5876057    672.83117  0.011442707 0.0097458488            3 
 4901000   0.47050528   -8.5795983    673.32097    0.0114487 0.0097426413            3 
 4902000   0.47179169   -8.5721236    672.62215  0.011434485 0.0097394354            8 
 4903000   0.46542696   -8.5790976    673.15152   0.01144115 0.0097362299            4 
 4904000    0.4576837   -8.5793285     674.2464  0.011457423 0.0097330263            3 
 4905000   0.46738128   -8.5726122    673.44625  0.011441493  0.009729823            6 
 4906000    0.4662301    -8.590959    672.83871  0.011428841 0.0097266206            5 
 4907000   0.46743186   -8.5842938    673.06946   0.01143043 0.0097234185            4 
 4908000   0.46899951   -8.5771406    672.18318  0.011413053 0.0097202169            3 
 4909000   0.45514122   -8.5839266    673.55019  0.011433934 0.0097170186            3 
 4910000   0.47750273   -8.5906054    673.57163  0.011431969 0.0097138235            4 
 4911000   0.46801435   -8.5744936    672.33965  0.011408736 0.0097106294            4 
 4912000   0.45806005   -8.5789936    673.93498  0.011433479 0.0097074375            3 
 4913000   0.45181411   -8.5807172    673.28713  0.011420163 0.0097042478            4 
 4914000   0.45919725   -8.5683221    673.31973  0.011418392 0.0097010586            4 
 4915000   0.47184888   -8.5905813    673.66041  0.011421845 0.0096978708            5 
 4916000    0.4675838   -8.5997084    672.84617  0.011405719 0.0096946821            6 
 4917000   0.46812892   -8.5838014    673.34101  0.011411786 0.0096914964            4 
 4918000   0.47382117    -8.598227    673.33175  0.011409309  0.009688311            5 
 4919000    0.4658793   -8.5797416    672.67016  0.011395781 0.0096851271            2 
 4920000   0.46785119   -8.5700026    673.11159  0.011400942 0.0096819428            5 
 4921000   0.46663367   -8.5850151    672.39229  0.011386444 0.0096787633            3 
 4922000   0.47017312   -8.5922563    673.35245  0.011400387 0.0096755852            4 
 4923000   0.46389988   -8.5921259    673.81623  0.011405922 0.0096724063            3 
 4924000   0.47700744   -8.5869846    672.28394  0.011377673 0.0096692286            2 
 4925000   0.45906636   -8.5982072    674.10673  0.011406205 0.0096660522            2 
 4926000    0.4667244   -8.5871601    673.77882  0.011398342 0.0096628769            3 
 4927000   0.46037523   -8.5738131    672.10405  0.011367703 0.0096597049            5 
 4928000   0.46863286   -8.5792402    673.34446  0.011386371 0.0096565322            4 
 4929000   0.46224654   -8.5765516    672.62693   0.01137193 0.0096533603            4 
 4930000   0.47150663   -8.5850769      672.127  0.011361173 0.0096501905            3 
 4931000   0.46729361   -8.6064482    672.46614    0.0113646 0.0096470211            3 
 4932000   0.46014884   -8.5909963    672.63135  0.011365088  0.009643856            4 
 4933000   0.46336825   -8.5796123    674.10824  0.011387733 0.0096406909            6 
 4934000   0.45601313   -8.5978096    672.59703  0.011359901 0.0096375297            5 
 4935000   0.46855079   -8.5757442    673.06409  0.011365486 0.0096343681            4 
 4936000    0.4627328   -8.5852482    674.12314  0.011381063 0.0096312061            3 
 4937000   0.46237825   -8.5828953    673.39841  0.011366525 0.0096280476            3 
 4938000    0.4633526   -8.5891839    673.10054  0.011359196 0.0096248913            3 
 4939000   0.46559096   -8.5751548    673.11695  0.011357173 0.0096217338            4 
 4940000   0.46156953   -8.5753841    672.95027  0.011352063 0.0096185807            4 
 4941000    0.4606634   -8.5860142    673.22643  0.011354423 0.0096154252            3 
 4942000   0.44453433   -8.5840139    674.26385  0.011369618 0.0096122737            3 
 4943000   0.45726905   -8.5901372    672.60614  0.011339371 0.0096091186            5 
 4944000   0.46912386   -8.5925643    674.10522  0.011362345 0.0096059666            3 
 4945000   0.45709972   -8.5863635     673.5165  0.011350126 0.0096028166            3 
 4946000     0.453911   -8.5934658    672.89194  0.011337309 0.0095996693            4 
 4947000   0.45204274    -8.582728    673.33489  0.011342478 0.0095965213            2 
 4948000   0.46527262   -8.5944642    673.76053  0.011347355 0.0095933736            4 
 4949000   0.44864251   -8.6016524    673.72521  0.011344467 0.0095902279            5 
 4950000   0.45266063   -8.5931964    672.89823  0.011328253 0.0095870849            3 
 4951000   0.44540254   -8.5918936    672.55514   0.01132019 0.0095839405            4 
 4952000   0.46026551   -8.5909817    672.79723  0.011321978 0.0095807986            6 
 4953000   0.46633908     -8.58617    673.35953  0.011329153 0.0095776593            3 
 4954000   0.45702659   -8.5826688    672.21095  0.011307545 0.0095745196            2 
 4955000   0.45000214   -8.5970884    672.37089  0.011307953 0.0095713828            2 
 4956000   0.44842473    -8.605765    673.39057  0.011322817 0.0095682474            2 
 4957000   0.44845162   -8.5891981    673.38331  0.011320411 0.0095651119            4 
 4958000    0.4621357   -8.5976217    673.82169  0.011325496 0.0095619787            2 
 4959000   0.46888054   -8.5873989    673.19461  0.011312674 0.0095588476            4 
 4960000   0.45631151   -8.5907636    672.72959   0.01130258 0.0095557177            3 
 4961000   0.45423298   -8.6013832    672.78722   0.01130127 0.0095525864            4 
 4962000   0.45539044   -8.5962014    672.58421  0.011295583 0.0095494575            5 
 4963000   0.45564094   -8.5909221    673.04906  0.011301112 0.0095463317            3 
 4964000   0.44797051     -8.59984     672.1812  0.011284267 0.0095432074            3 
 4965000   0.45533439   -8.5688658    672.44937  0.011286495 0.0095400856            4 
 4966000   0.45890354   -8.6100475    673.70469  0.011305288 0.0095369612            3 
 4967000   0.45517389   -8.5805931    672.87477  0.011289087  0.009533839            2 
 4968000    0.4605943   -8.6003973     672.9204   0.01128758 0.0095307186            3 
 4969000   0.44373644   -8.5924606    672.27757  0.011274528 0.0095275991            2 
 4970000   0.46249847   -8.6006878    673.30102   0.01128942 0.0095244809            3 
 4971000    0.4524285   -8.5931233    672.85202  0.011279622 0.0095213622            2 
 4972000   0.45191245   -8.5975769    672.59776  0.011273092 0.0095182483            4 
 4973000   0.45432801   -8.5926256    672.50789  0.011269319 0.0095151342            5 
 4974000   0.46596624   -8.6127003    673.48835   0.01128348 0.0095120224            5 
 4975000   0.45141566   -8.5780112    673.20919  0.011276536   0.00950891            2 
 4976000   0.45122163   -8.5987491    673.09507  0.011272358 0.0095058005            4 
 4977000   0.45341017   -8.5887433    673.39313  0.011275084 0.0095026906            2 
 4978000   0.46401933   -8.6052685    672.59628   0.01125948 0.0094995816            3 
 4979000   0.45423633   -8.5989082    672.51959  0.011255935 0.0094964751            4 
 4980000   0.45479226   -8.6078681    673.79041   0.01127494   0.00949337            2 
 4981000   0.46078454   -8.5946306      673.406  0.011266245 0.0094902668            5 
 4982000   0.45331413    -8.606236     673.7675   0.01127003 0.0094871651            4 
 4983000   0.44886586   -8.6030971     672.6439  0.011248978 0.0094840656            2 
 4984000    0.4526109   -8.5911882    672.32583  0.011241403 0.0094809681            3 
 4985000   0.45209961   -8.5859416    672.92639  0.011249187 0.0094778697            4 
 4986000   0.46508307   -8.5918407    671.97374  0.011231009 0.0094747752            3 
 4987000   0.45230296   -8.6051994    672.11096   0.01123105 0.0094716817            5 
 4988000   0.46132129   -8.5793996      671.852  0.011224472 0.0094685875            3 
 4989000   0.45549374   -8.6220822    671.99333  0.011224583 0.0094654946            4 
 4990000   0.46118805   -8.5967287    672.31381  0.011227686 0.0094624012            4 
 4991000   0.45426167   -8.5991862    672.76379  0.011232949 0.0094593113            4 
 4992000   0.46155432   -8.5957374    672.30434  0.011223029 0.0094562208            3 
 4993000   0.46332881   -8.6021815    672.42337  0.011222768 0.0094531306            6 
 4994000   0.45935558   -8.6068602    672.34777  0.011219259 0.0094500426            4 
 4995000   0.45721262   -8.5989071    672.54931  0.011220376 0.0094469551            4 
 4996000   0.45136964   -8.5949667    672.55525  0.011218229 0.0094438709            3 
 4997000   0.45322483   -8.5830787    673.22119  0.011227089 0.0094407885            5 
 4998000   0.45941637   -8.6050853    672.71047  0.011216328 0.0094377085            4 
 4999000    0.4507146   -8.6032764    672.53764  0.011211203   0.00943463            2 
 5000000   0.45170573   -8.6011644    672.50081  0.011208347 0.0094315525            3 
 5001000    0.4555028   -8.6061992    673.29245  0.011219297 0.0094284759            4 
 5002000   0.45896553   -8.6172819    672.42538  0.011202609 0.0094254016            5 
 5003000   0.46918682   -8.6182142    673.01269  0.011210152 0.0094223277            3 
 5004000   0.44430178   -8.6138291    672.74822  0.011203508 0.0094192519            3 
 5005000   0.46010492   -8.6096547    673.46469  0.011213198 0.0094161793            3 
 5006000    0.4505554   -8.6042443    672.23155  0.011190431 0.0094131082            3 
 5007000   0.45386008   -8.6075274    673.66976  0.011212132 0.0094100392            5 
 5008000   0.45003976   -8.6031838    673.29081  0.011203588 0.0094069733            2 
 5009000    0.4529178   -8.6031638    672.06955  0.011181033 0.0094039041            3 
 5010000   0.44867225   -8.6178101    672.28376  0.011182365 0.0094008392            5 
 5011000   0.44914028    -8.598204    672.74876  0.011187866 0.0093977744            6 
 5012000   0.44090003   -8.6111248    672.00507  0.011173269 0.0093947092            4 
Loop time of 11822.4 on 48 procs for 5000000 steps with 4000 atoms

Performance: 73081.627 tau/day, 422.926 timesteps/s
99.4% CPU use with 48 MPI tasks x no OpenMP threads

MPI task timing breakdown:
Section |  min time  |  avg time  |  max time  |%varavg| %total
---------------------------------------------------------------
Pair    | 747.2      | 800.5      | 839.54     |  89.6 |  6.77
Neigh   | 77.323     | 80.931     | 84.967     |  21.0 |  0.68
Comm    | 756.48     | 799.27     | 863.55     | 103.9 |  6.76
Output  | 24.04      | 24.045     | 24.137     |   0.3 |  0.20
Modify  | 9997.5     | 10015      | 10039      |   7.9 | 84.71
Other   |            | 103        |            |       |  0.87

Nlocal:        83.3333 ave          92 max          75 min
Histogram: 2 3 6 2 10 14 4 2 3 2
Nghost:        2032.33 ave        2049 max        2012 min
Histogram: 3 0 3 1 7 15 10 5 2 2
Neighs:        13159.5 ave       14715 max       11280 min
Histogram: 1 4 2 1 10 6 14 7 2 1
FullNghs:      26318.9 ave       29306 max       23354 min
Histogram: 3 2 5 3 10 12 6 2 3 2

Total # of neighbors = 1263308
Ave neighs/atom = 315.82700
Neighbor list builds = 267938
Dangerous builds = 0

#clear
#
#next RN
#
#jump SELF
Total wall time: 3:17:05
