
units lj                  # Use reduced LJ style units
atom_style atomic         # Uncharged point particles
atom_modify map hash      # Needed for indexing of clusters etc
                          # Used to be able to find where atoms are in relation to each other.

# Define a lattice with which to populate the simulation cell. With units
# set to 'lj' the second argument to the lattice command is the reduced
# density rho* and the spacings are multiples of that required to acheive
# that density. Also define a simulation cell called 'box' in lattice units
# and fill it with atoms. Here we're creating a box which is ten lattice
# constants in each direction.
lattice fcc 1.0 spacing 1 1 1                 # All equal sizes - gives the right reduced density.
Lattice spacing in x,y,z = 1.5874011 1.5874011 1.5874011

region box block 0 10 0 10 0 10 units lattice # Defines a region, "box", in lattice units
create_box 1 box                              # Creates a simulation box as specified above,
Created orthogonal box = (0.0000000 0.0000000 0.0000000) to (15.874011 15.874011 15.874011)
  4 by 4 by 4 MPI processor grid
                                              # with one type of atom
create_atoms 1 box                            # Creates particles on lattice points
Created 4000 atoms
  using lattice units in orthogonal box = (0.0000000 0.0000000 0.0000000) to (15.874011 15.874011 15.874011)
  create_atoms CPU = 0.002 seconds


# Set the mass of the first (and only) atom type.
mass 1 1.0

# Lennard-Jones interactions between particles, 3.5 sigma cut-off. Apply
# long range tail corrections to energy and pressure and set all coefficients
# to unity since we work in reduced units here. Note that this doesn't shift
# the potential such that it goes to zero at the cutoff. That would require
# pair_modify('shift', 'yes').
pair_style lj/cut  3.5      # non-GPU version
pair_modify tail  yes
pair_coeff 1  1  1.0  1.0   # Intearaction between 1 and 1 set with epsilon = 1 and sigma = 1

write_data data.*
System init for write_data ...
Neighbor list info ...
  update every 1 steps, delay 10 steps, check yes
  max neighbors/atom: 2000, page size: 100000
  master list distance cutoff = 3.8
  ghost atom cutoff = 3.8
  binsize = 1.9, bins = 9 9 9
  1 neighbor lists, perpetual/occasional/extra = 1 0 0
  (1) pair lj/cut, perpetual
      attributes: half, newton on
      pair build: half/bin/atomonly/newton
      stencil: half/bin/3d
      bin: standard

#############################
#   M E L T   S Y S T E M   #
#############################

velocity all create 2.4 3143649 mom yes dist gaussian # Assign velocities
                                                    # Temperature 2.4, random number seed, zero linear momentum
						                                                        # Gaussian distribution

timestep 0.002   # simulation timestep
thermo 100       # output thermodynamic data every 100 steps

# Define a fix  in this case with index 1 applied to all
# particles in the simulation. This fix is for simulations
# in the anisotropic NPT ensemble. Note that we use the MTK
# correction.
fix 1 all npt temp 2.4 2.4 0.1 iso 5.68 5.68 0.5 mtk yes tchain 5 pchain 5 # Use NPT ensemble
                                                                         # Set temperature and pressure and damping
                                                                         # Numbers of thermostats in chain and in barostat
run 1000         # run for 10000 steps
Per MPI rank memory allocation (min/avg/max) = 3.630 | 3.630 | 3.630 Mbytes
Step Temp E_pair E_mol TotEng Press Volume 
       0          2.4   -8.3859253            0   -4.7868253   -2.2405722         4000 
     100    1.2648744   -6.5290671            0   -4.6322298    5.3798688    4090.0656 
     200    1.4689665   -6.3033458            0   -4.1004469    5.9766879    4141.9478 
     300    1.5757287   -6.0115718            0   -3.6485695    5.8461614    4272.4316 
     400    1.6979232   -5.7228765            0   -3.1766284    5.8923806    4398.0373 
     500    1.7905817    -5.427445            0   -2.7422439      5.78902    4550.9794 
     600    1.8981736   -5.1583052            0   -2.3117566    5.7628382       4700.9 
     700    2.0060053   -4.8956622            0   -1.8874064    5.8620002    4837.8597 
     800     2.161964   -4.7200774            0   -1.4779421    5.9239068    4947.9616 
     900    2.2454811   -4.5521004            0   -1.1847209    5.7904219    5078.3833 
    1000    2.3595505   -4.4432956            0   -0.9048547    5.8626198    5147.5374 
Loop time of 0.248375 on 64 procs for 1000 steps with 4000 atoms

Performance: 695721.790 tau/day, 4026.168 timesteps/s
99.0% CPU use with 64 MPI tasks x no OpenMP threads

MPI task timing breakdown:
Section |  min time  |  avg time  |  max time  |%varavg| %total
---------------------------------------------------------------
Pair    | 0.059272   | 0.06276    | 0.067786   |   0.7 | 25.27
Neigh   | 0.014049   | 0.014919   | 0.016125   |   0.3 |  6.01
Comm    | 0.12247    | 0.13411    | 0.14627    |   2.2 | 54.00
Output  | 0.00034962 | 0.00035549 | 0.00040932 |   0.0 |  0.14
Modify  | 0.024957   | 0.034314   | 0.043626   |   4.1 | 13.82
Other   |            | 0.001915   |            |       |  0.77

Nlocal:        62.5000 ave          69 max          52 min
Histogram: 1 1 2 2 11 13 10 14 5 5
Nghost:        1247.56 ave        1267 max        1229 min
Histogram: 3 8 10 4 3 9 13 6 5 3
Neighs:        5551.38 ave        6501 max        4539 min
Histogram: 2 2 2 11 13 13 12 4 3 2

Total # of neighbors = 355288
Ave neighs/atom = 88.822000
Neighbor list builds = 87
Dangerous builds = 20

# Equilibrate just above the melting temperature to avoid step fn in T

fix 1 all npt temp 1.25 1.25 0.1 iso 5.68 5.68 0.5 mtk yes tchain 5 pchain 5
run 1000
Per MPI rank memory allocation (min/avg/max) = 3.631 | 3.631 | 3.631 Mbytes
Step Temp E_pair E_mol TotEng Press Volume 
    1000    2.3595505   -4.4432956            0   -0.9048547    5.8626198    5147.5374 
    1100    1.9293476   -4.6486671            0   -1.7553692    5.7282766    4999.4388 
    1200    1.7345312   -4.9601095            0   -2.3589631    5.7791767    4797.9679 
    1300    1.5644489   -5.2082186            0   -2.8621319    5.5594876    4679.9578 
    1400     1.466305   -5.4051147            0   -3.2062071    5.7438096    4550.8751 
    1500    1.3912389   -5.5752414            0   -3.4889048    5.6991581    4468.1976 
    1600    1.3078898   -5.6911598            0   -3.7298155    5.4640743    4431.8167 
    1700    1.2563777   -5.7616223            0   -3.8775269    5.4245998    4398.8172 
    1800    1.2347894   -5.7874194            0   -3.9356984    5.5426245    4376.1587 
    1900     1.276485   -5.8164585            0   -3.9022097    5.4174286    4378.1985 
    2000    1.2569289   -5.8154156            0   -3.9304936    5.6265703     4360.924 
Loop time of 0.240498 on 64 procs for 1000 steps with 4000 atoms

Performance: 718509.110 tau/day, 4158.039 timesteps/s
99.7% CPU use with 64 MPI tasks x no OpenMP threads

MPI task timing breakdown:
Section |  min time  |  avg time  |  max time  |%varavg| %total
---------------------------------------------------------------
Pair    | 0.057453   | 0.061924   | 0.067911   |   0.8 | 25.75
Neigh   | 0.012122   | 0.012874   | 0.013819   |   0.3 |  5.35
Comm    | 0.11867    | 0.13107    | 0.14272    |   2.3 | 54.50
Output  | 0.00033216 | 0.00033785 | 0.00039168 |   0.0 |  0.14
Modify  | 0.022739   | 0.03191    | 0.043018   |   4.6 | 13.27
Other   |            | 0.002377   |            |       |  0.99

Nlocal:        62.5000 ave          69 max          56 min
Histogram: 2 4 6 10 11 5 14 8 3 1
Nghost:        1404.88 ave        1424 max        1383 min
Histogram: 2 2 8 5 15 6 7 13 2 4
Neighs:        6547.39 ave        7241 max        5694 min
Histogram: 2 2 6 5 13 12 3 12 6 3

Total # of neighbors = 419033
Ave neighs/atom = 104.75825
Neighbor list builds = 75
Dangerous builds = 6


# Small amount of linear quench

fix 1 all npt temp 1.25 ${temp} 0.1 iso 5.68 5.68 0.5 mtk yes tchain 5 pchain 5
fix 1 all npt temp 1.25 0.95 0.1 iso 5.68 5.68 0.5 mtk yes tchain 5 pchain 5
run 2000
Per MPI rank memory allocation (min/avg/max) = 3.631 | 3.631 | 3.631 Mbytes
Step Temp E_pair E_mol TotEng Press Volume 
    2000    1.2569289   -5.8154156            0   -3.9304936    5.6265703     4360.924 
    2100    1.2289205   -5.8365688            0   -3.9936488    5.6262119    4349.1713 
    2200    1.2240234    -5.873015            0   -4.0374389    5.5132212     4341.855 
    2300     1.200457   -5.8731773            0   -4.0729419    5.7519608    4319.3003 
    2400    1.2009834   -5.8961145            0   -4.0950898    5.9381329    4295.5799 
    2500    1.2038026   -5.9466981            0   -4.1414456     5.809914    4286.6176 
    2600    1.1702171   -5.9452422            0   -4.1903554    5.8918181    4276.7148 
    2700    1.1448428    -5.969802            0   -4.2529671    5.7244201    4279.5233 
    2800    1.1263972   -6.0019515            0   -4.3127781    5.5327337    4278.8872 
    2900    1.1151043   -6.0312615            0   -4.3590232    5.7406898    4249.6177 
    3000    1.1140833   -6.0774175            0   -4.4067103    5.6093948    4242.8737 
    3100     1.082198    -6.067613            0   -4.4447218    5.8210325    4227.3154 
    3200    1.0839472    -6.109614            0   -4.4840996    5.6742573    4223.4013 
    3300    1.0700114   -6.1314868            0   -4.5268709    5.6747734     4210.402 
    3400    1.0623983   -6.1866699            0   -4.5934709    5.5045911    4204.2064 
    3500    1.0385764   -6.2323134            0   -4.6748382    5.3478924    4195.8534 
    3600    1.0108815   -6.2368782            0    -4.720935    5.5803705    4173.8009 
    3700   0.99474525   -6.2452026            0   -4.7534578    5.6530885    4165.2781 
    3800   0.97735906   -6.2641144            0   -4.7984424    5.7978336    4144.4407 
    3900   0.98227246   -6.2941691            0   -4.8211288    5.8514645    4129.8639 
    4000   0.96347673   -6.3252607            0   -4.8804069     5.730421    4127.1455 
Loop time of 0.506389 on 64 procs for 2000 steps with 4000 atoms

Performance: 682479.820 tau/day, 3949.536 timesteps/s
99.9% CPU use with 64 MPI tasks x no OpenMP threads

MPI task timing breakdown:
Section |  min time  |  avg time  |  max time  |%varavg| %total
---------------------------------------------------------------
Pair    | 0.12687    | 0.13319    | 0.14024    |   0.8 | 26.30
Neigh   | 0.021456   | 0.022421   | 0.023536   |   0.3 |  4.43
Comm    | 0.24839    | 0.27458    | 0.29917    |   3.5 | 54.22
Output  | 0.00069439 | 0.00070656 | 0.00081088 |   0.0 |  0.14
Modify  | 0.049125   | 0.069201   | 0.092458   |   6.6 | 13.67
Other   |            | 0.006293   |            |       |  1.24

Nlocal:        62.5000 ave          71 max          57 min
Histogram: 6 2 17 6 9 17 4 0 1 2
Nghost:        1455.97 ave        1473 max        1437 min
Histogram: 3 4 7 8 5 13 9 2 7 6
Neighs:        6922.56 ave        7902 max        6243 min
Histogram: 4 5 11 13 10 12 2 4 1 2

Total # of neighbors = 443044
Ave neighs/atom = 110.76100
Neighbor list builds = 125
Dangerous builds = 0

#############################
# F R E E Z E  S Y S T E M  #
#############################

# Define solid atoms. This closely follows ten Wolde  Ruiz-Montero and Frenkel  Faraday Discuss  1996  104  93-110
# Compute components of the per-atom q6 vector
compute q6 all orientorder/atom degrees 1 6 components 6 nnn NULL cutoff 1.3 # compute the Q6 parameter.
                                                                             # Use all neighbours within 1.3 unit cell.

# get number of connections
compute coord_number all coord/atom orientorder q6 0.5

# An atom is solid if it has 8 or more connections (of a possible 14)
variable is_solid atom c_coord_number>=8
group solid dynamic all var is_solid    # Must be dynamic to update
dynamic group solid defined

# do clustering
compute cluster solid cluster/atom 1.3 # Create a cluster where all atoms within are solid and max 1.3 units from another member

# define chunks one chunk per cluster
compute clus_chunks solid chunk/atom c_cluster nchunk every compress yes  # Says which atoms are in which chunk

# count the size of each chunk
compute size_chunks solid property/chunk clus_chunks count


# Find the maximum entry in the vector of chunk sizes
variable max_n equal max(c_size_chunks)


# Thermo style which includes this variable
thermo_style custom step temp pe vol v_max_n

thermo ${N}  # Print the thermo information every 100 steps
thermo 100  

# Reset the npt fix at a lower temperature (below freezing)
fix 1  all npt temp  ${temp} ${temp}  0.1  iso  5.68  5.68  0.5  mtk yes tchain  5  pchain  5
fix 1  all npt temp  0.95 ${temp}  0.1  iso  5.68  5.68  0.5  mtk yes tchain  5  pchain  5
fix 1  all npt temp  0.95 0.95  0.1  iso  5.68  5.68  0.5  mtk yes tchain  5  pchain  5

dump dmp2 all dcd ${N} traj_${rand}.dcd
dump dmp2 all dcd 100 traj_${rand}.dcd
dump dmp2 all dcd 100 traj_462431.dcd


# fix rnuntil all halt ${N} v_max_n >= 3980 error soft message no   # Stop when solidified


run 100000 # 5000000  # Run for this many steps
Neighbor list info ...
  update every 1 steps, delay 10 steps, check yes
  max neighbors/atom: 2000, page size: 100000
  master list distance cutoff = 3.8
  ghost atom cutoff = 3.8
  binsize = 1.9, bins = 9 9 9
  4 neighbor lists, perpetual/occasional/extra = 1 3 0
  (1) pair lj/cut, perpetual
      attributes: half, newton on
      pair build: half/bin/atomonly/newton
      stencil: half/bin/3d
      bin: standard
  (2) compute orientorder/atom, occasional
      attributes: full, newton on
      pair build: full/bin/atomonly
      stencil: full/bin/3d
      bin: standard
  (3) compute coord/atom, occasional
      attributes: full, newton on
      pair build: full/bin/atomonly
      stencil: full/bin/3d
      bin: standard
  (4) compute cluster/atom, occasional
      attributes: full, newton on
      pair build: full/bin/atomonly
      stencil: full/bin/3d
      bin: standard
Per MPI rank memory allocation (min/avg/max) = 9.328 | 9.334 | 9.338 Mbytes
Step Temp PotEng Volume v_max_n 
    4000   0.96347673   -6.3252607    4127.1455            8 
    4100   0.94626122   -6.3422751    4123.5169            7 
    4200     0.954186   -6.3807466    4109.2367           13 
    4300   0.95200052   -6.3470056    4127.1402            8 
    4400   0.94212503   -6.3375681    4128.1188            8 
    4500   0.93818124   -6.3452755    4122.4841            7 
    4600   0.94067322   -6.3320159    4119.2246            6 
    4700    0.9514319   -6.3307967    4118.1523            5 
    4800   0.96701489   -6.3697572    4113.7463            3 
    4900   0.94195444   -6.3768763    4099.6389           13 
    5000   0.94066819    -6.347131    4106.4222            9 
    5100   0.96859152   -6.3673014    4112.9207            8 
    5200    0.9422256   -6.3755355    4107.8964            7 
    5300   0.94996286   -6.3559341    4109.0468            6 
    5400   0.94748608   -6.3604879     4120.355            7 
    5500   0.97041303   -6.3566062    4121.3147            7 
    5600   0.94586048   -6.3583193    4112.5632            7 
    5700   0.95582748   -6.3717895    4114.7224            6 
    5800   0.95449476   -6.3422109    4129.6958            4 
    5900     0.946749    -6.377818    4114.9596            7 
    6000   0.94885147   -6.3605881    4119.1968            7 
    6100   0.93763775   -6.3819352    4117.6128            7 
    6200   0.94355748   -6.3722035    4127.0806           17 
    6300     0.977592   -6.3909675    4117.5086            6 
    6400   0.95593862   -6.3585267    4118.4084            6 
    6500    0.9463531    -6.334959    4121.1998            7 
    6600   0.92292109   -6.3459262    4113.1649           12 
    6700   0.95652172   -6.3665352    4122.7287            5 
    6800   0.97354556   -6.3492253    4135.0267            6 
    6900   0.98046289    -6.386558    4109.8378            3 
    7000   0.92920072   -6.3563532    4103.4146            4 
    7100   0.97785854    -6.384914    4102.9949            6 
    7200   0.92981508   -6.3630983    4103.2521            6 
    7300   0.96459592   -6.3662161    4109.9066            6 
    7400   0.96178115   -6.3587936    4103.4792            5 
    7500   0.96856851   -6.4005223    4088.3877           20 
    7600   0.95247687   -6.3558727    4089.8753            4 
    7700   0.94767249   -6.3483568     4099.962            6 
    7800   0.98853746   -6.3730581     4109.913            8 
    7900   0.93543104   -6.3365291     4101.777            9 
    8000   0.94373388   -6.3503963    4099.4375           11 
    8100   0.95872701    -6.335602    4111.7305            7 
    8200    0.9713939   -6.3623631    4119.7079           16 
    8300   0.94999464   -6.3889483    4106.7764            7 
    8400   0.95351099   -6.3785123    4109.0893            7 
    8500   0.96845097   -6.3523022    4129.8254           10 
    8600    0.9414808   -6.3538443    4126.0238            3 
    8700   0.95595019   -6.3760356    4112.9619            7 
    8800   0.94095175   -6.3780304    4124.7454            5 
    8900   0.94096792   -6.3487951    4115.0163           14 
    9000   0.95539248   -6.3827101    4108.0504            4 
    9100   0.96431719   -6.3781357    4112.9583           12 
    9200   0.96513321   -6.3558956    4113.4373            5 
    9300   0.95854535   -6.3673871    4101.3409            5 
    9400   0.97190526   -6.3636539    4109.0372            7 
    9500   0.96813475   -6.3311091    4116.7243           11 
    9600   0.93728616   -6.3524776    4114.3898            4 
    9700   0.95706802   -6.3644488    4122.0958            8 
    9800   0.96417865   -6.3356833    4137.3881            7 
    9900   0.94837318   -6.3514989    4124.2097            6 
   10000   0.93367424   -6.3739711    4117.3228            4 
   10100   0.94562572   -6.3617576    4121.9648            5 
   10200   0.96859274   -6.3682624    4128.5031           12 
   10300   0.93256284   -6.3563144     4123.118           19 
   10400   0.93959334   -6.3516507      4127.92            8 
   10500     0.954377   -6.3318559    4139.8589            7 
   10600   0.94431464   -6.3395132    4132.1578            6 
   10700    0.9292087   -6.3510608    4124.2669            7 
   10800   0.95193313   -6.3789147    4128.2479            4 
   10900   0.97596494   -6.3773358    4117.9459            7 
   11000   0.95464466    -6.368079    4102.7665            8 
   11100   0.95691719   -6.3962766     4108.951            7 
   11200   0.95036718    -6.358398     4112.194            5 
   11300   0.94344792   -6.3764139    4109.4295           11 
   11400   0.94626225   -6.3717424    4114.4462            7 
   11500   0.91884011   -6.3394981    4126.6637            6 
   11600   0.95092371   -6.3618276    4133.0017            5 
   11700   0.94473229   -6.3672712    4125.6442           10 
   11800    0.9491799   -6.3396062    4132.6505           12 
   11900   0.93027812   -6.3218154    4133.7865            8 
   12000   0.97296809   -6.3809102    4115.3427           12 
   12100   0.94833419   -6.3811042    4118.5251            7 
   12200   0.96028273   -6.3595131    4130.0204            3 
   12300   0.95634768   -6.3598903    4119.2848            8 
   12400   0.94742978   -6.3551893    4108.1386            7 
   12500   0.92419677   -6.3686656    4098.8448           20 
   12600   0.94895036   -6.3742805    4100.5407            5 
   12700   0.95685493   -6.3550935    4108.5992            6 
   12800   0.96749946   -6.3327985    4119.1941            5 
   12900   0.94920588   -6.3453425    4113.9515           10 
   13000   0.95374048   -6.3489729    4108.9811            7 
   13100   0.94275407    -6.358207    4101.8537           12 
   13200   0.95820156   -6.3487559    4119.4279            4 
   13300   0.93956606    -6.359776    4114.7879            5 
   13400   0.94021551   -6.3729846    4114.6087            7 
   13500   0.96577961   -6.3700929    4117.0533           15 
   13600   0.95765927   -6.3520968    4122.7912            8 
   13700    0.9434984    -6.366296    4108.7966            9 
   13800    0.9492147   -6.3691329    4111.7676            9 
   13900   0.97527287   -6.3666167    4121.8666           16 
   14000   0.94587891   -6.3283741    4120.0661           12 
   14100   0.96709039   -6.3741244    4111.4184            8 
   14200   0.94865255   -6.3830377    4101.4395            6 
   14300   0.94655944   -6.3847391    4100.9256            8 
   14400   0.94741541   -6.3688909    4118.3865            8 
   14500   0.93262616   -6.3761309    4128.4602            4 
   14600   0.93735849   -6.3774809    4114.6003            5 
   14700   0.96221412   -6.3731909    4121.2948            6 
   14800   0.92255768   -6.3544404    4122.8525           16 
   14900   0.94589921   -6.3347888    4122.1516            7 
   15000   0.96233621   -6.3510743    4115.7828            5 
   15100   0.95875529   -6.3658858    4118.3075            7 
   15200   0.95853406   -6.3698339    4113.8198           11 
   15300   0.93228317   -6.3702695    4102.0397           10 
   15400     0.962242   -6.3754549    4117.4859           21 
   15500   0.95237721   -6.3393817    4120.7669           10 
   15600   0.95344572   -6.3405533    4115.4716           11 
   15700   0.94047675   -6.3550868    4110.1273            6 
   15800   0.94319139   -6.3562277    4104.5474            7 
   15900   0.93614007   -6.3737886    4111.4382           12 
   16000   0.96322796   -6.3898388    4112.5806            7 
   16100   0.93930685   -6.3688748    4113.2758            7 
   16200   0.94641126   -6.3299285    4120.7754            6 
   16300   0.93442068   -6.3462094    4119.3072           13 
   16400   0.95106322   -6.3552876      4114.88           14 
   16500   0.95051154   -6.3642903    4114.1588            5 
   16600   0.96461657   -6.4012695    4111.9847           10 
   16700    0.9576704   -6.3421808    4116.3516            9 
   16800   0.95094329    -6.376963    4116.3918           10 
   16900   0.94114549   -6.3570028    4110.8618           15 
   17000   0.95654385   -6.3602356    4121.5645            8 
   17100   0.94601734   -6.3659018    4132.0335            7 
   17200   0.95978751   -6.3607118    4120.0908            4 
   17300   0.94988635   -6.3634479    4112.2419           12 
   17400   0.94428763   -6.3171509    4121.9955            6 
   17500   0.96624357   -6.3298619    4128.2575            9 
   17600   0.93871138   -6.3437502     4124.635           11 
   17700   0.94029397   -6.3528167    4129.2843           10 
   17800   0.96531487   -6.3555074    4136.5824            6 
   17900   0.95549122    -6.387772    4129.4211            5 
   18000   0.93466108   -6.3920079    4118.9702            6 
   18100   0.95738047   -6.3833701    4117.6468           20 
   18200   0.95696424    -6.384316    4113.3691           17 
   18300    0.9218424   -6.3927037    4099.6556           11 
   18400   0.95283939   -6.3872804    4108.7246            6 
   18500   0.94424776   -6.3577644    4113.1601           11 
   18600   0.95754784    -6.347846    4112.2592           18 
   18700   0.97588001   -6.3613218    4108.9237           11 
   18800   0.94413382   -6.3418308    4094.6065           16 
   18900   0.97023952   -6.3944925    4105.1869           15 
   19000   0.97321612   -6.3629832    4109.9162            7 
   19100   0.93028252   -6.3442367    4117.0245           21 
   19200   0.96484615   -6.3749682    4114.1781           15 
   19300   0.94197247   -6.3711508    4122.4602           12 
   19400   0.94386396   -6.3752401    4125.5549            6 
   19500   0.94261784   -6.3741918    4116.5082            9 
   19600   0.94744438   -6.3836211     4110.557           14 
   19700    0.9528303   -6.3613756    4123.9351            8 
   19800   0.94251753   -6.3702937    4118.8942            9 
   19900   0.95391181   -6.3773798    4115.9897            7 
   20000   0.96701387    -6.334307    4109.8485           12 
   20100   0.93748581   -6.3369181    4107.3648           13 
   20200   0.96318831   -6.3931407    4116.8851            9 
   20300   0.93812388   -6.3772674    4122.9347            6 
   20400    0.9331711    -6.393377    4116.2897           31 
   20500    0.9401182   -6.3666333    4132.6852            9 
   20600   0.93883592   -6.3479462     4116.319           13 
   20700   0.94378576   -6.3682392    4118.1768            6 
   20800   0.95535488   -6.3806905    4118.9031            5 
   20900   0.94870924   -6.4025618    4106.8231            5 
   21000   0.95249733   -6.3749919    4116.3412            8 
   21100   0.96841561   -6.3664334    4123.0835            3 
   21200   0.93882446   -6.3894984    4124.2616            6 
   21300   0.95516984   -6.3899048    4121.9101            6 
   21400   0.93411637   -6.3843795    4115.7588            8 
   21500   0.96735392   -6.3793241    4115.7751            6 
   21600   0.93395465   -6.3570692    4115.7476           12 
   21700   0.94314614   -6.3703963     4112.585           10 
   21800   0.93065832   -6.3661315    4103.6297           10 
   21900   0.94379862   -6.3527494    4120.0462           11 
   22000   0.94649409   -6.3731246     4124.407            9 
   22100   0.95053435   -6.3671055    4113.3213            6 
   22200    0.9729581   -6.3599817    4122.4991            9 
   22300   0.95428448   -6.3807227    4102.1518            6 
   22400   0.94782977   -6.3526773    4104.5442            9 
   22500   0.96105811   -6.3662928    4116.7612            7 
   22600   0.94712063   -6.3517814    4115.2193            3 
   22700   0.93115506   -6.3576006    4115.1894            5 
   22800   0.96111009   -6.3653379    4116.3677            6 
   22900   0.96388563   -6.3903628    4110.1193            7 
   23000   0.94493848   -6.3894647    4104.6469            6 
   23100   0.95253665   -6.3537725    4117.9634            7 
   23200   0.97209926   -6.3520026    4121.2555           10 
   23300   0.94244984   -6.3562759    4107.6332           12 
   23400   0.94296121   -6.3482747    4110.6667           21 
   23500   0.94670579   -6.3485507    4113.8359           25 
   23600   0.98273636    -6.361413    4105.4391           18 
   23700   0.95682248   -6.3758629    4109.7401           28 
   23800   0.94709477   -6.3637392    4118.5353           22 
   23900    0.9510978    -6.346421    4121.3251           23 
   24000   0.94302011   -6.3692219    4115.2062           24 
   24100    0.9411147   -6.3814042    4113.3044           18 
   24200   0.94878735   -6.3816599    4124.3881           13 
   24300   0.95517764   -6.3697856    4123.8758            6 
   24400   0.93739059   -6.3583858    4111.3881            9 
   24500   0.93992513   -6.3882405    4118.3698           14 
   24600   0.93670062   -6.3862627    4135.2558           13 
   24700   0.94826899   -6.3775278    4131.9192           10 
   24800   0.94026463   -6.3730074    4135.4429            7 
   24900   0.93558572   -6.3721397    4127.6002           16 
   25000   0.95398151   -6.3874306    4112.6607           11 
   25100   0.96080398   -6.3876015    4100.3803           11 
   25200   0.96347206    -6.333707    4111.9454            9 
   25300   0.95314367   -6.3632291    4101.9053           11 
   25400   0.95489364   -6.3792765    4103.4733           10 
   25500   0.96163595   -6.3715252    4116.2229            8 
   25600   0.95584494   -6.3400522    4120.4073           12 
   25700   0.94740298   -6.3620423    4106.0643            5 
   25800   0.94540071   -6.3955096    4102.2354            9 
   25900   0.95047865   -6.3731442    4104.4458            7 
   26000   0.96799916   -6.3442342    4103.9048            7 
   26100   0.93469666   -6.3419086    4103.6825           12 
   26200   0.97157925   -6.3530499     4110.743           15 
   26300   0.95375136   -6.3495905    4108.2955           11 
   26400   0.95179104   -6.3614999    4105.7495           15 
   26500   0.96177332   -6.3688173    4111.5781            8 
   26600   0.94023125   -6.3827273    4103.5211            9 
   26700   0.95557225   -6.3710489     4111.867            7 
   26800   0.95338556   -6.3661008    4109.8867           11 
   26900   0.93580869    -6.384631    4112.6503            4 
   27000   0.95166446   -6.3890663    4120.8606            7 
   27100   0.92278934   -6.3727644    4133.1494            5 
   27200   0.95383296   -6.3674061    4134.2764            4 
   27300   0.94478337   -6.3617142    4132.6809            5 
   27400   0.94368099   -6.3821964    4116.2386            7 
   27500   0.96285574   -6.3852802    4109.6275            8 
   27600   0.96175657   -6.3432836    4115.5854           11 
   27700    0.9533313   -6.3670271    4114.8251            5 
   27800    0.9321158   -6.3858927    4113.1428            4 
   27900    0.9511363   -6.3707264    4118.6078            6 
   28000   0.96636408    -6.376251    4119.1884            8 
   28100   0.94400773   -6.3701821     4108.698           13 
   28200   0.93242825   -6.3842511    4096.3762            8 
   28300   0.96269518   -6.3808677    4101.0696           10 
   28400   0.96223459    -6.356452    4099.0118            9 
   28500   0.93629872   -6.3617539    4095.2436            6 
   28600   0.96388012   -6.3736862    4093.7711           10 
   28700   0.93274613   -6.3682536    4099.7161            7 
   28800   0.95795346   -6.3640797    4111.3771            7 
   28900   0.95877446    -6.377392    4119.0471           12 
   29000   0.96232874   -6.4102827      4108.96           15 
   29100   0.92806232   -6.4056245    4109.7207            5 
   29200   0.94910542   -6.3744908    4111.0436            5 
   29300   0.93488867   -6.3655044    4108.7269            8 
   29400   0.95325357   -6.3409062     4109.045            8 
   29500   0.95092184    -6.360694    4109.6416           12 
   29600   0.94604726   -6.3873146    4098.4773           11 
   29700    0.9453314   -6.3809721    4102.5955            7 
   29800   0.96725558   -6.3814198    4115.0724            6 
   29900   0.93599003   -6.3633787    4113.9584           13 
   30000   0.95071652   -6.3844781    4112.8618            8 
   30100   0.97932461   -6.3816006    4123.4697           10 
   30200   0.95439236   -6.3711586    4119.7023            9 
   30300   0.94392853    -6.394074    4112.4741            5 
   30400   0.94410169   -6.3657111    4107.1325            8 
   30500   0.94140547   -6.3609555    4113.8875            7 
   30600    0.9551071    -6.360775    4124.9186           10 
   30700   0.94150871   -6.3808014    4108.8259            4 
   30800   0.95985293   -6.3939017    4112.4399            7 
   30900   0.93896876   -6.3868034     4124.573            8 
   31000   0.89602644   -6.3699628    4130.2115           18 
   31100   0.93810361   -6.3760021    4118.5356            4 
   31200   0.95328436   -6.3572014    4125.6025           15 
   31300   0.96027326   -6.3548865    4117.2814           27 
   31400   0.94289936   -6.3584174    4103.1842           14 
   31500   0.94823746    -6.350362    4117.1259            5 
   31600   0.95449083   -6.3570935    4130.3295           11 
   31700   0.93033876   -6.3764478    4122.8628            8 
   31800   0.94398972    -6.389218    4122.2108           17 
   31900   0.95372664   -6.3629357    4118.0229           13 
   32000   0.95561185   -6.3736634    4112.4618            6 
   32100    0.9296619   -6.3830827    4110.4324            8 
   32200   0.95248635   -6.3816979    4111.8082            9 
   32300   0.93284865   -6.3598347    4118.7754           16 
   32400   0.95736975   -6.3468241    4131.2042            6 
   32500   0.94992804   -6.3461289    4127.1379            9 
   32600   0.92654163   -6.3622612    4122.7871           24 
   32700   0.95129077   -6.3493044    4122.5548           20 
   32800   0.95776131   -6.3702414    4112.1174           18 
   32900   0.95306753   -6.3833844    4098.7008           15 
   33000   0.95630282   -6.3402399    4109.2561           10 
   33100   0.96940663    -6.373769    4106.5227            6 
   33200   0.95632398   -6.3813418     4105.491            6 
   33300   0.94244636   -6.3480971    4101.1835            9 
   33400    0.9394265   -6.3757349    4103.4392           10 
   33500   0.95655092   -6.3691392    4106.5408            9 
   33600   0.97793986   -6.3844595    4117.2496            9 
   33700   0.95098296   -6.3629873    4120.9257            4 
   33800   0.94514635   -6.3579937    4123.9354            3 
   33900   0.93887121   -6.3823647    4116.4861            5 
   34000   0.94548874   -6.3693621    4116.2551           10 
   34100   0.95357162   -6.3562649    4126.6147            8 
   34200   0.95413259   -6.3693194    4125.2282            6 
   34300   0.95204698    -6.381732    4122.6553            5 
   34400   0.95757328   -6.3560513    4115.7626            4 
   34500   0.94937556   -6.3643378    4091.2495           14 
   34600   0.97687059   -6.3607684    4100.3378            6 
   34700   0.96305566     -6.36173    4110.0137            5 
   34800   0.94907973   -6.3770204    4108.2444            6 
   34900   0.95181481   -6.3844799    4115.3122            3 
   35000   0.96500607   -6.3700588    4124.1086            6 
   35100   0.94377508   -6.3841682    4108.1303            8 
   35200   0.95632092   -6.3854145    4113.0284            5 
   35300   0.95618365   -6.3642952    4121.7697            6 
   35400   0.94352979   -6.3626187    4115.5333            4 
   35500   0.93469945   -6.3763123    4108.4529            5 
   35600   0.94471207   -6.3368751    4123.8792            5 
   35700   0.94459061   -6.3547866    4116.7867            6 
   35800   0.95585006    -6.377416    4110.2496            5 
   35900   0.94080357   -6.3501874    4113.2931            9 
   36000   0.97372743   -6.3573239    4124.4468            5 
   36100   0.95993298    -6.361342    4117.5831            4 
   36200   0.94262782   -6.3527892     4110.804            4 
   36300   0.95152465   -6.3493004    4108.2838            5 
   36400   0.98147326   -6.3586465    4116.1442            6 
   36500   0.95516468   -6.3818259    4121.6215            9 
   36600   0.93454067   -6.3810919    4121.1972            7 
   36700   0.92770461   -6.3667835    4124.4857            6 
   36800   0.95040275   -6.3581698    4123.2753            8 
   36900   0.95698495   -6.3855591     4118.875            5 
   37000   0.95260978   -6.3950399    4117.4684            8 
   37100   0.96578668   -6.3714245    4113.8802           24 
   37200   0.95825795   -6.3564721    4118.9986           12 
   37300   0.95309638   -6.3288028     4118.889            8 
   37400      0.94567   -6.3626393    4116.8008            7 
   37500   0.93016531   -6.3508297     4117.378            9 
   37600   0.95704536   -6.3520769    4125.0865            8 
   37700   0.94980564   -6.3789336    4117.3502           10 
   37800   0.94129544    -6.367594    4112.9193            4 
   37900   0.96253015   -6.3625775    4121.0931            5 
   38000   0.93015189   -6.3419019    4128.3802            4 
   38100   0.96805365   -6.3563143    4129.3184           12 
   38200   0.95098815   -6.3533985     4115.855           13 
   38300    0.9482412   -6.3887608    4110.0504           11 
   38400   0.95099578   -6.3639806    4121.3486            9 
   38500   0.93940644   -6.3587668    4128.4067           11 
   38600   0.94251573   -6.3456159    4120.9268           12 
   38700   0.95104384   -6.3755047    4108.4363           14 
   38800   0.96215116   -6.3465239    4120.1525            8 
   38900   0.96484758   -6.3659288    4114.4554            6 
   39000    0.9624255   -6.3825469    4108.8649            5 
   39100    0.9456379   -6.3706236    4106.6562            4 
   39200   0.95233457    -6.365138    4085.5722            4 
   39300   0.94703643   -6.3353966    4086.5336            4 
   39400   0.95162585   -6.3246682    4103.0759            9 
   39500   0.95762751   -6.3527992    4115.5448           11 
   39600    0.9529026   -6.3483644    4121.7263            6 
   39700   0.96060173   -6.3735636    4115.4223            9 
   39800   0.96744656   -6.3764278    4115.4175           12 
   39900   0.94735832    -6.371504    4116.6208            9 
   40000   0.94026976   -6.3272187    4126.0111            8 
   40100   0.94079261   -6.3423275    4130.4594           14 
   40200   0.97168004   -6.3418068    4122.1247            9 
   40300   0.96105465   -6.3380584    4128.0666           12 
   40400   0.94201147   -6.3594443    4112.1771            9 
   40500    0.9495764   -6.3496844    4119.0742            8 
   40600   0.94139666   -6.3494346    4118.6285            7 
   40700   0.95255843   -6.3614656    4115.7318           10 
   40800   0.95792687   -6.3738217    4108.5291           14 
   40900   0.93876711   -6.3713394    4099.8695            8 
   41000   0.95866972   -6.3693133    4109.0818            5 
   41100   0.99395427   -6.3462039    4117.3014            6 
   41200   0.96993005   -6.3574094    4109.4423            4 
   41300   0.95169999   -6.3547493    4095.6977            5 
   41400   0.93983303    -6.378519    4099.9386            8 
   41500   0.95185699   -6.3780602    4109.3279            6 
   41600   0.95563157   -6.3598191    4109.6032            6 
   41700   0.94709157   -6.3672995    4101.2532            7 
   41800   0.94637885   -6.3601721    4103.5823            5 
   41900   0.96932169   -6.3739077    4103.1996            6 
   42000   0.94481117   -6.3520092    4103.4713            9 
   42100    0.9759842   -6.3600836    4125.7955            7 
   42200   0.95989747   -6.3553774    4125.6653            3 
   42300   0.94159858    -6.364099    4106.8474           10 
   42400   0.95610245   -6.3859405    4109.9364            8 
   42500    0.9490844    -6.372922    4107.6084            7 
   42600   0.94903795   -6.3452211    4111.6057            4 
   42700   0.95858293   -6.3479503    4119.4197            4 
   42800   0.94556981   -6.3552103     4115.064            9 
   42900   0.95161057    -6.367625    4130.0844            6 
   43000   0.96958971   -6.3335415    4132.6124            7 
   43100   0.96058701   -6.3596579    4118.7666            8 
   43200   0.94147638   -6.3659733    4114.1135            5 
   43300   0.94056342   -6.3252115    4114.2843           10 
   43400   0.94635965   -6.3308504    4123.1835            7 
   43500   0.93732212   -6.3488372    4127.1152            4 
   43600   0.95176957   -6.3377805    4129.2684           10 
   43700   0.95226488   -6.3448905    4142.7052           11 
   43800   0.94289384   -6.3753934    4129.2503           20 
   43900   0.94091926   -6.3668077    4117.0164           18 
   44000   0.94558966   -6.3661198    4112.6769            7 
   44100   0.94801289   -6.3386951     4113.618            5 
   44200   0.98172578   -6.3392087    4112.1178           12 
   44300   0.96806215    -6.345308    4113.3155           17 
   44400   0.95339494   -6.3723666    4105.7252            9 
   44500   0.94194357   -6.3767166    4108.3656           14 
   44600   0.97140486   -6.3785062    4118.3546           10 
   44700   0.95166599    -6.357168    4124.0545            5 
   44800   0.93548505   -6.3613624    4130.1928            4 
   44900   0.94265374   -6.3728203    4124.9033            5 
   45000    0.9496551   -6.3520424    4134.9368            6 
   45100   0.93553096   -6.3674029    4117.3967            4 
   45200   0.94943418   -6.3814247    4110.1995            7 
   45300   0.95397658   -6.3691542    4110.2133            6 
   45400   0.96969481   -6.3462846    4122.1708            6 
   45500   0.94592844     -6.34023    4112.4217            7 
   45600   0.97905816    -6.390501    4104.6585            8 
   45700   0.94140668   -6.3615741    4095.8957            7 
   45800   0.96445767   -6.3473932    4107.0978            7 
   45900   0.95722226   -6.3310651    4112.3567            4 
   46000   0.96225428    -6.320515    4120.6939           11 
   46100   0.94647688   -6.3629541    4113.4041           17 
   46200   0.96611405   -6.3654193    4101.6211            8 
   46300   0.95165473    -6.357666    4103.8071            8 
   46400   0.96201978   -6.3345675     4112.322            7 
   46500   0.94160625   -6.3378655    4116.0411            6 
   46600   0.96071545   -6.4035074    4121.4233            8 
   46700   0.92270866   -6.3723667    4111.6855            4 
   46800   0.96070039   -6.3854402    4109.5399            6 
   46900   0.97342244   -6.3794141    4109.9504           11 
   47000   0.95290438   -6.3960712    4113.9389            5 
   47100   0.96160179    -6.384331    4116.0109            9 
   47200   0.95789843   -6.3537839    4109.9492            5 
   47300   0.93424968   -6.3473056     4110.055            6 
   47400   0.96309474   -6.3654615     4117.528            8 
   47500   0.95520163   -6.3509118    4119.8243            4 
   47600    0.9487136   -6.3768839    4109.6715           10 
   47700   0.95087255   -6.3728369    4112.4499            7 
   47800   0.97093711   -6.3838567    4109.2915            5 
   47900   0.94525601   -6.3864934    4097.7742            8 
   48000   0.94636548     -6.34837    4102.7664           14 
   48100   0.96164549   -6.3643664     4102.869            5 
   48200   0.95999831   -6.3780629    4095.9245           10 
   48300   0.94325149   -6.4032831    4104.8528           11 
   48400   0.95662864   -6.3844834    4119.8337            5 
   48500   0.94278449   -6.3623809    4122.9362            6 
   48600   0.97900738   -6.3740874    4131.7052            5 
   48700   0.94487218   -6.3711424    4128.3673            8 
   48800   0.93290458   -6.3588153    4127.5737            6 
   48900   0.95101994   -6.3520692    4141.6984            6 
   49000   0.94012805   -6.3847578    4141.4052           11 
   49100   0.92908022   -6.3676696    4116.0912            9 
   49200   0.96789453   -6.3700335      4119.32            9 
   49300   0.96111078   -6.3335682    4117.3457           10 
   49400   0.95520834   -6.3297366    4110.4969           13 
   49500    0.9475701   -6.3729386    4101.8906            8 
   49600   0.96102269   -6.3619077    4105.4937            7 
   49700   0.95679991   -6.3463136     4103.841           12 
   49800   0.95703675    -6.348345    4105.6036            7 
   49900   0.95150413   -6.3388883    4122.5245            8 
   50000   0.96726604   -6.3814315     4115.881            6 
   50100    0.9399534   -6.3788893    4113.6032            5 
   50200   0.94780469   -6.3442396    4126.5935            6 
   50300   0.94414503   -6.3547802    4128.0505           10 
   50400   0.95660435   -6.3735193    4119.6654            9 
   50500   0.93510179   -6.3756925    4099.7307            9 
   50600   0.98126339   -6.4061266    4103.5425            7 
   50700   0.95385728   -6.3659157    4107.0806           10 
   50800   0.97417952   -6.3697265    4116.0169            4 
   50900   0.94626854   -6.3539987    4107.4967            8 
   51000   0.93747206   -6.3786209    4109.5489            5 
   51100   0.95803869   -6.3777944    4111.9142            7 
   51200   0.95005313   -6.3743032    4117.8016            5 
   51300    0.9317156   -6.3864209    4107.1071            5 
   51400   0.95299805   -6.3942052    4105.1645            6 
   51500   0.96994316   -6.3857979    4106.4309            7 
   51600   0.92867773   -6.3330685    4114.1199            8 
   51700    0.9564946    -6.380734    4111.1915           14 
   51800   0.94227194   -6.3885075    4099.0022            5 
   51900   0.96792241   -6.3877588    4114.7031           13 
   52000    0.9290011   -6.3764625    4122.5924            9 
   52100   0.95008456   -6.3736634    4117.2585           10 
   52200   0.95343227   -6.3918655    4114.7148            6 
   52300    0.9359942   -6.3864911    4118.4975            5 
   52400   0.95623739   -6.3604616    4127.2525            5 
   52500   0.93747363   -6.3670694    4117.6781            7 
   52600   0.94091613   -6.3877585    4108.0506           11 
   52700   0.94525652   -6.3870448    4114.9359            6 
   52800   0.94945487   -6.3741367    4122.2818            5 
   52900   0.94098926   -6.3675224    4125.0891            5 
   53000   0.96984332   -6.3677574    4128.9581            5 
   53100    0.9307322   -6.3602407    4120.6287            8 
   53200   0.94157364   -6.3577622    4140.0331           17 
   53300   0.93684518   -6.3443132      4132.94           14 
   53400   0.94032165   -6.3307708    4118.9711           11 
   53500   0.94042973   -6.3488726    4104.7019            8 
   53600   0.94067733   -6.3443557    4109.8936            6 
   53700   0.95908516   -6.3456172    4110.6686           11 
   53800   0.95384413   -6.3678545    4099.5351           13 
   53900   0.95408145   -6.3762621    4099.8483            8 
   54000   0.96227583   -6.3618344    4111.3707            7 
   54100   0.95076263   -6.3520872    4115.0247            8 
   54200   0.94256701   -6.3739969    4103.3824           12 
   54300   0.95380319   -6.4039673    4099.6768           10 
   54400   0.95882505   -6.3708006    4102.8481            7 
   54500    0.9589696   -6.3579937    4099.7942            7 
   54600   0.95073293   -6.3453015    4098.8468           10 
   54700   0.97259509   -6.3397036    4106.6813            4 
   54800    0.9503018   -6.3677827    4104.1007           10 
   54900   0.94718679   -6.3707184    4107.1283           11 
   55000    0.9655123   -6.3713187    4107.1243           10 
   55100   0.94964134   -6.3751469     4112.348            7 
   55200   0.95916643   -6.3469153    4113.7617           10 
   55300   0.94872432   -6.3325859    4118.7087           13 
   55400   0.94136981   -6.3486971    4111.0567            9 
   55500   0.94333972   -6.3718352    4116.7583            4 
   55600   0.95078977   -6.3423641    4132.2555            4 
   55700   0.96740735   -6.3452397    4122.2518            4 
   55800   0.95663006    -6.386371    4121.5294            7 
   55900    0.9376122   -6.3882538    4114.9879           11 
   56000    0.9290875   -6.3988324    4110.4631           14 
   56100   0.94750637   -6.3830956     4113.635            9 
   56200   0.93990581    -6.340978    4114.3116            7 
   56300   0.94566275   -6.3220748    4128.6686           19 
   56400   0.95330237   -6.3607262    4117.2437           10 
   56500    0.9496815   -6.3870125    4113.3675            7 
   56600    0.9599953   -6.3807805    4109.5513           14 
   56700   0.95356372   -6.3429289    4117.8608           13 
   56800   0.94693735   -6.3510291    4121.9919           10 
   56900   0.93866636   -6.3606306    4112.2568           15 
   57000   0.95866919   -6.3391303    4118.1826            5 
   57100   0.93688072   -6.3705149    4119.2049            9 
   57200   0.96301238   -6.3799118    4119.7884           13 
   57300   0.93660279   -6.3865229    4106.9023           11 
   57400   0.94273146   -6.3971743     4110.143           10 
   57500   0.94234518   -6.3647016    4125.8964            9 
   57600   0.95618325   -6.3687393    4128.0722            3 
   57700   0.92442228    -6.381559     4115.539            8 
   57800   0.94358761    -6.386479    4115.4265            8 
   57900   0.96704384   -6.3858434    4116.5669            6 
   58000   0.95020814   -6.3656858    4104.4286            8 
   58100   0.96388447   -6.3814457     4107.077            6 
   58200   0.94849919   -6.3707009    4111.6408            7 
   58300   0.95469036   -6.3588038    4120.7913            9 
   58400   0.93267747   -6.3513917    4099.9129            7 
   58500   0.96830551   -6.3542076    4114.0706            8 
   58600   0.96210416   -6.3882188     4111.114            7 
   58700   0.94149795   -6.3494856    4107.8106            6 
   58800   0.94991285    -6.342342    4112.6309            6 
   58900   0.94894518     -6.36044    4104.1492            5 
   59000   0.94851429   -6.4056509    4106.1423            7 
   59100   0.96326549   -6.4121651    4110.2824            5 
   59200   0.94189568   -6.3670591    4112.3437            7 
   59300   0.94690109   -6.3570489    4113.6665            5 
   59400   0.93772541    -6.384966    4109.0706           11 
   59500   0.97206761   -6.3802136    4120.5783           11 
   59600   0.95295528   -6.3869979    4108.3514           10 
   59700   0.94326469   -6.3738675    4105.6093            8 
   59800   0.96836736   -6.3766769    4117.4473            5 
   59900   0.97981458   -6.3470032    4126.0163           10 
   60000   0.96194615   -6.3694882    4121.8085            5 
   60100   0.94031903   -6.3739251    4127.2945            7 
   60200   0.92100824   -6.3749971    4128.9297            6 
   60300    0.9399511   -6.3799389    4126.8064            5 
   60400   0.94964097   -6.3623619    4130.4297            8 
   60500   0.95173238   -6.3572877    4126.3428            7 
   60600   0.93858408   -6.3426437    4116.9073            6 
   60700   0.94396844   -6.3648427    4116.0339            8 
   60800   0.95082746   -6.3486145    4130.8796            5 
   60900   0.93264695    -6.363877    4135.2053           13 
   61000   0.91954015   -6.3617305    4133.0701            5 
   61100   0.93533304   -6.3410562    4138.1736            6 
   61200   0.94694183   -6.3712254    4126.8879            5 
   61300   0.93688395   -6.3635952    4124.3476            5 
   61400   0.96249722   -6.3760168    4123.2563            3 
   61500   0.93678622   -6.3700344    4126.7227            7 
   61600   0.95770774   -6.3576177    4122.2136            9 
   61700   0.94571547   -6.3807806     4122.988           21 
   61800   0.95466142   -6.4007612    4120.8438           14 
   61900   0.92409601     -6.38365    4122.6245            6 
   62000   0.95015854   -6.3800822    4119.3989           10 
   62100    0.9568033   -6.3779127    4114.0412            9 
   62200   0.93625085   -6.3681312    4122.8282            4 
   62300   0.93886214   -6.3857082     4112.675            7 
   62400   0.94386655   -6.3528964    4125.1128            7 
   62500    0.9651924   -6.3609798    4125.7488            5 
   62600   0.94562378   -6.3792326    4113.3637            7 
   62700   0.95781052   -6.3878307    4111.1956           10 
   62800   0.94658336   -6.3794597    4109.6509            8 
   62900   0.93493132   -6.3745482    4110.3906            9 
   63000   0.93343236   -6.3304533    4132.4604            5 
   63100   0.95763991   -6.3660981    4139.9296            8 
   63200   0.92280239   -6.3442446    4126.4388            6 
   63300   0.94226868   -6.3530611    4120.6364           10 
   63400   0.93787153   -6.3890732    4104.7515            6 
   63500   0.94107846   -6.3712716    4115.4452            2 
   63600   0.95463654   -6.3604238    4113.1581            3 
   63700   0.96395314   -6.3699439    4118.8318            6 
   63800    0.9574332   -6.3649078    4126.4942            7 
   63900   0.93602431   -6.3574217    4115.1696            6 
   64000   0.94992928   -6.4001441    4110.8871            7 
   64100   0.94743421   -6.3929472    4115.3868            6 
   64200   0.95554026   -6.3698409    4120.0886            4 
   64300   0.93314502   -6.3676968    4115.2401           10 
   64400   0.93477161   -6.4205648    4094.7033            6 
   64500   0.95130261   -6.4094091     4098.055            7 
   64600   0.94602768   -6.3908637    4103.1397            6 
   64700   0.97034098   -6.3856169    4108.8142            8 
   64800   0.93612675   -6.3814682    4102.2561            7 
   64900   0.93447257   -6.3545517    4105.3952            4 
   65000   0.96025137   -6.3732254    4116.2962            7 
   65100   0.93468925   -6.3815478    4115.2918            8 
   65200   0.94675274   -6.3585323    4107.7694            6 
   65300   0.96015366   -6.3737483    4110.5776           10 
   65400   0.92400491   -6.3704129     4101.628            7 
   65500   0.94055106   -6.3538003    4109.7605            9 
   65600    0.9583368   -6.3614064    4115.4807            8 
   65700   0.94853559   -6.3957323    4111.0413           21 
   65800   0.93821239    -6.364477    4118.0354           12 
   65900   0.95335102   -6.3543975    4123.7905           14 
   66000   0.95578915   -6.3345166    4121.8644            7 
   66100   0.92768342    -6.330056    4117.9251            6 
   66200   0.96173249   -6.3603463    4116.9426            8 
   66300   0.96483328    -6.359005    4121.6667           16 
   66400   0.93714982   -6.3651901    4117.2718           19 
   66500   0.95080691   -6.3616976    4121.6012           10 
   66600    0.9517708   -6.3469706    4125.5407            8 
   66700   0.94352744   -6.3739693    4122.8271            8 
   66800   0.95843964    -6.369854      4116.36            7 
   66900   0.94812897   -6.3557042    4118.7259            9 
   67000   0.94783999   -6.3910962     4116.047           10 
   67100   0.92414583   -6.3855981    4130.4182            6 
   67200   0.94890224   -6.3835717    4128.0406            7 
   67300   0.95211972   -6.3505639    4134.2371            4 
   67400   0.93692922   -6.3357786    4123.6881            8 
   67500   0.94650472   -6.3594229    4119.5055            6 
   67600   0.93730243   -6.3628212    4130.5221           15 
   67700   0.92554508   -6.3752941    4118.2612            5 
   67800    0.9446455   -6.3936846    4119.4895            9 
   67900    0.9511339    -6.356673    4127.6787            5 
   68000   0.96463836   -6.3657591    4117.7598            9 
   68100   0.92877797   -6.3736162    4111.2353            6 
   68200   0.94825129   -6.3601288    4118.3843            8 
   68300   0.96118421   -6.3654548    4107.2631            6 
   68400   0.96014913   -6.3662925    4111.3253           13 
   68500   0.96881966   -6.3518383    4113.7754           17 
   68600   0.94525766   -6.3451136    4110.7914           11 
   68700   0.94122375   -6.3579311     4114.096            4 
   68800    0.9452109   -6.3468152    4120.0175            7 
   68900   0.94752867   -6.3637501    4103.2796            4 
   69000    0.9544797   -6.3777652     4104.382            8 
   69100   0.94897856   -6.3436586    4118.0231            4 
   69200   0.96339702   -6.3809032    4117.8166            8 
   69300   0.94412017   -6.3752088    4117.5065            5 
   69400   0.93729171   -6.3567864    4122.7155           11 
   69500   0.93806442   -6.3384994    4128.0067           14 
   69600   0.94032089   -6.3525855    4118.3456            6 
   69700   0.93251134   -6.3569017    4113.8381            8 
   69800   0.95068927   -6.3807782    4126.7959            5 
   69900   0.97506711   -6.3763864    4132.9549            6 
   70000   0.94824272   -6.3522078    4117.0114            3 
   70100   0.94758167   -6.3683073    4114.1005            8 
   70200   0.97096691   -6.3567452     4132.043            8 
   70300   0.94412789   -6.3526493    4124.5047            6 
   70400   0.95937633   -6.3911567    4114.3762           10 
   70500   0.94082137   -6.3617755    4104.3941            8 
   70600   0.95099525   -6.3894413    4103.6829            9 
   70700   0.93763299   -6.3973236    4104.4708            5 
   70800   0.94112138   -6.3825231    4108.4547            5 
   70900   0.95809015   -6.3720284    4113.0527           10 
   71000    0.9429046   -6.3628224    4120.6784            8 
   71100   0.95261911   -6.3393529    4121.9196           13 
   71200   0.94350666   -6.3873682    4113.9914            8 
   71300   0.95943443   -6.3690543    4110.8913           13 
   71400   0.96969462   -6.3647057    4120.0066           10 
   71500   0.95129028   -6.3520467    4113.7472           11 
   71600   0.93076438   -6.3651739    4117.5569            9 
   71700   0.95348679   -6.3558529    4117.9797            7 
   71800   0.94487388   -6.3715823    4107.2992            8 
   71900   0.93110089   -6.3366156    4105.3038           10 
   72000   0.95493608   -6.3499252    4122.8821            8 
   72100   0.93292086   -6.3729911    4118.7038           14 
   72200   0.95940984   -6.3859937    4106.0782            4 
   72300   0.95495507   -6.3783837    4092.7446            7 
   72400   0.96318822   -6.3734563    4094.8399            7 
   72500   0.97465372    -6.336931    4110.4021           10 
   72600   0.95552809   -6.3339713    4101.3705            7 
   72700   0.95788185   -6.3806585    4103.4044            6 
   72800    0.9360134   -6.3876849     4106.903            6 
   72900   0.93429969   -6.3523018    4114.5506            9 
   73000   0.95940101   -6.3437552    4121.4522            4 
   73100   0.94295184   -6.3536051    4121.3891            8 
   73200   0.97608992   -6.3525738     4120.067            9 
   73300   0.94110965   -6.3310181    4120.5685            5 
   73400   0.96719901   -6.3852631    4109.7701            7 
   73500   0.96768632   -6.3555259    4106.1085            7 
   73600   0.95209693    -6.356967    4102.6352            6 
   73700   0.94307425   -6.3708268    4097.8372            8 
   73800   0.95632658   -6.3573887    4118.0232            5 
   73900   0.92923126    -6.373319    4113.2637           16 
   74000   0.95313927   -6.3781828    4108.9808           18 
   74100   0.95686733   -6.3479411    4118.2676            8 
   74200   0.95988524    -6.351735    4127.5628           11 
   74300   0.94587454    -6.363929     4126.286            8 
   74400   0.95876482   -6.3676595    4124.4199           15 
   74500   0.93462067   -6.3683343      4108.63           11 
   74600   0.94176707   -6.3917541    4116.2361           14 
   74700    0.9626705   -6.3775848    4126.2546            6 
   74800    0.9481576   -6.3742449    4111.5261            9 
   74900   0.95663638   -6.3904746    4106.7274            6 
   75000   0.95686764   -6.3733602    4114.9439            8 
   75100   0.94836299   -6.3760445    4122.9372            6 
   75200   0.93781472   -6.3659068    4111.4687            8 
   75300   0.95537928   -6.3629235    4114.0837           18 
   75400   0.96043722    -6.366837    4112.9619           11 
   75500   0.95091772   -6.3741006    4114.5964            6 
   75600   0.96330243   -6.3521246    4116.8499            7 
   75700    0.9578522   -6.3644148    4119.8894           13 
   75800   0.95119535   -6.3539231    4121.7847           10 
   75900   0.93111041   -6.3451876    4122.3655            8 
   76000   0.95612482   -6.3800513    4114.4661            7 
   76100   0.97287172   -6.4008116    4105.2942           11 
   76200   0.95434663   -6.3673557    4103.5456            7 
   76300    0.9617152    -6.341096    4112.0242            5 
   76400   0.94285222   -6.3522132    4115.1079           18 
   76500   0.94208209   -6.3835155    4120.3716           17 
   76600   0.94343298   -6.3555813    4127.2134            8 
   76700   0.94375834   -6.3593511     4131.992            7 
   76800   0.92457471   -6.3750121    4119.9916            6 
   76900    0.9413372   -6.3734661    4128.2827            9 
   77000   0.96795564   -6.3727534     4137.264            5 
   77100   0.94585699   -6.3584584    4124.3199           10 
   77200    0.9171783   -6.3511636    4123.7605            8 
   77300   0.92816027   -6.3301889    4133.4717            4 
   77400   0.94447177   -6.3391279    4136.6169            3 
   77500   0.93760485   -6.3656852    4125.3042            4 
   77600   0.94723671   -6.3820817    4118.7228            7 
   77700   0.94549345   -6.3307283    4136.0465            4 
   77800   0.96003671    -6.351569    4132.4819            7 
   77900   0.94425905    -6.357973    4123.3084           15 
   78000    0.9386534    -6.387968    4119.0075            6 
   78100   0.93636529   -6.3548112     4111.734            6 
   78200   0.94593196   -6.3482118     4116.157            7 
   78300   0.95870046   -6.3567813    4125.8083            6 
   78400   0.96147199   -6.3644332    4128.7497            3 
   78500   0.96059907   -6.3564802    4116.8168           14 
   78600   0.93644168   -6.3754236    4114.5569           10 
   78700   0.95921349   -6.3627132    4110.7915           14 
   78800   0.95294484    -6.334982    4108.4348            4 
   78900   0.93548804   -6.3655323    4108.5898            8 
   79000   0.96276587   -6.3593675    4116.4133            9 
   79100   0.94839471   -6.3557887    4121.2358            5 
   79200   0.93025198   -6.3535059    4116.5289           10 
   79300   0.96885005   -6.3648644    4123.6493            5 
   79400   0.93309528   -6.3489349    4114.5205            5 
   79500   0.94442582   -6.3975928    4118.5596            7 
   79600   0.94742574    -6.339684    4134.1195            6 
   79700   0.95523688    -6.363183     4136.945           12 
   79800   0.93537305   -6.3686155    4129.3024            5 
   79900   0.94675996   -6.3773878    4124.5098            3 
   80000   0.96216632   -6.3942578    4124.9213            2 
   80100   0.92569809   -6.3452423    4113.5425            7 
   80200   0.91888691    -6.359585    4113.3072           16 
   80300   0.96019387   -6.3748252    4116.6006           14 
   80400   0.95899795   -6.3688723    4123.9062           13 
   80500   0.94650228    -6.328954    4127.0231           17 
   80600   0.95418298   -6.3919768    4113.8292            9 
   80700   0.93747585   -6.3689731    4111.8238            7 
   80800   0.94957346   -6.3640193    4120.0471            9 
   80900   0.95144199   -6.3665727    4127.8467            8 
   81000    0.9372756   -6.3774581    4119.4255            5 
   81100   0.94478122   -6.3671138    4110.1662           17 
   81200   0.97281994    -6.367064    4114.8936            6 
   81300    0.9550856   -6.3534813    4115.6895            6 
   81400   0.93244046   -6.3559348    4116.0833            7 
   81500   0.96746459   -6.3594406    4122.6315            7 
   81600   0.95722991   -6.3392633    4117.0994           14 
   81700   0.94790553   -6.3813465    4112.4155           11 
   81800   0.95516334   -6.3593097     4123.561           13 
   81900    0.9504365   -6.3335858    4126.1246           27 
   82000    0.9612186   -6.3857728    4121.6909           10 
   82100     0.937507   -6.3859595    4104.1932            9 
   82200   0.93649528   -6.3694337    4104.2741            7 
   82300    0.9609338   -6.3679888     4106.262           10 
   82400   0.94869443   -6.3453429    4101.0735            7 
   82500   0.96888439   -6.3517633    4109.2544           12 
   82600   0.95906303   -6.3696855    4101.1797            8 
   82700   0.91745263   -6.3815571    4100.0729            9 
   82800   0.94140966    -6.361489    4106.9943            8 
   82900   0.95402509   -6.3616004    4116.3186            6 
   83000    0.9689577   -6.3499315    4119.2155           10 
   83100   0.94613838   -6.3559122    4114.8736            5 
   83200   0.93938011   -6.3624821    4116.6304            8 
   83300    0.9611864   -6.3660714    4133.7056            7 
   83400   0.92755629   -6.3519471    4119.0095            6 
   83500   0.94572304   -6.3448233    4121.6609            6 
   83600    0.9434874   -6.3382825    4123.7696            7 
   83700   0.96783648   -6.3469668    4125.0038            4 
   83800   0.95797502   -6.3490062    4128.4825            6 
   83900   0.94291546   -6.3548945    4124.7748           16 
   84000   0.95018963   -6.3818255    4133.9035           11 
   84100   0.92818323    -6.382316    4142.8313            8 
   84200   0.93813612   -6.3509107    4132.4435           10 
   84300   0.94155854   -6.3169452    4142.9506            8 
   84400   0.94034885   -6.3608131    4132.1212            8 
   84500   0.94947288   -6.3732478    4122.0478           10 
   84600   0.94613985   -6.3561167    4130.0637            4 
   84700   0.96084029    -6.329777    4122.9018            9 
   84800   0.93482017    -6.334841    4118.4513            7 
   84900   0.95959091   -6.3497605     4126.343            3 
   85000   0.96050543   -6.3563979    4116.8459           14 
   85100   0.96609756   -6.3745802    4119.5086           16 
   85200   0.94606939   -6.3648279    4115.4459            8 
   85300   0.92390006   -6.3518702    4109.7898            5 
   85400   0.94490989   -6.3394069    4127.8314            4 
   85500   0.97311989   -6.3616003    4118.9083            5 
   85600   0.95783851   -6.3715152    4118.2823            4 
   85700   0.94027286   -6.3708377    4111.0422            5 
   85800   0.96321419   -6.3834133    4102.5975            9 
   85900    0.9574163   -6.3542109    4121.0704           15 
   86000   0.95386888   -6.3588767    4108.7244           16 
   86100   0.94257063   -6.3771618     4108.763            7 
   86200   0.95055423   -6.3464614     4112.371            4 
   86300    0.9581197   -6.3526245    4103.7494           11 
   86400   0.94620973   -6.3484018    4107.7585           10 
   86500   0.95524191   -6.3460216    4114.2001            7 
   86600   0.95332167   -6.3804335    4106.2214            9 
   86700   0.94046169   -6.3814997    4096.1341           13 
   86800   0.95963498   -6.3782743    4101.3361           10 
   86900    0.9630759   -6.3694385    4113.0468            6 
   87000   0.94133998   -6.3588437    4115.3174            7 
   87100   0.94701635   -6.4043173    4108.0491           12 
   87200   0.93572432   -6.3876631    4102.5492           10 
   87300   0.95437708   -6.3752208    4114.6287           12 
   87400   0.97027216   -6.3766446    4114.2605            6 
   87500   0.94542756   -6.3637846    4090.7502            4 
   87600   0.95858674    -6.373981    4092.4868            9 
   87700   0.95166227    -6.359778    4104.5457           11 
   87800   0.95830219   -6.3596919     4104.877           13 
   87900   0.95798206   -6.3756644    4110.2212           13 
   88000    0.9760514   -6.3669056    4117.6901           14 
   88100      0.95454   -6.3658769    4116.1138            9 
   88200   0.94443973   -6.3850979    4107.8231            8 
   88300    0.9493615   -6.3705409    4116.2686            8 
   88400    0.9752978   -6.3718005    4119.9014           14 
   88500   0.93974429   -6.3649878    4111.0056            7 
   88600   0.96103482   -6.3824683    4118.2426            6 
   88700   0.97052232   -6.3570655     4139.824            5 
   88800    0.9444337   -6.3420782    4127.6471            6 
   88900   0.93378869   -6.3567786    4121.6393            9 
   89000   0.95088588   -6.3789422    4115.5156            6 
   89100   0.93526113   -6.3945419    4105.9715           12 
   89200   0.94967246   -6.3706367    4120.4961            5 
   89300   0.96116631   -6.3945088    4099.1954           11 
   89400   0.94957997   -6.3709972    4097.6124           12 
   89500   0.95349448   -6.3475478    4115.6254           11 
   89600   0.94892377   -6.3322697    4120.9674           13 
   89700   0.93521842   -6.3710468    4122.4261            8 
   89800   0.96038645   -6.4032167    4122.7067            6 
   89900   0.93076503   -6.3981755    4108.2273            5 
   90000   0.94410605   -6.3669461    4116.6997            6 
   90100   0.96587256   -6.3738132     4119.096            5 
   90200   0.93568247   -6.3662644    4106.3016            8 
   90300   0.94065243   -6.3902083    4106.7586            6 
   90400   0.95249997   -6.3454608    4105.6188            6 
   90500   0.94693459   -6.3591465    4095.4988            5 
   90600   0.95945399   -6.3962257     4098.946            9 
   90700   0.96828984   -6.3775122    4102.6368           10 
   90800   0.94656111   -6.3581903    4096.0808           18 
   90900   0.96822126   -6.3463306    4097.4642            6 
   91000   0.94585471   -6.3488377     4111.877           13 
   91100   0.93601938   -6.3670837    4098.9883           10 
   91200   0.95571182   -6.3878983    4101.0993           16 
   91300   0.96173025   -6.3530434    4121.2052            3 
   91400   0.95812695   -6.3514698    4110.1434            9 
   91500    0.9293202    -6.324252    4098.8012           13 
   91600   0.96888976   -6.3433003    4108.3302            8 
   91700   0.93743017   -6.3440907    4116.5706            6 
   91800   0.98083527   -6.3686059     4122.891            5 
   91900   0.94271491   -6.3429987    4126.9271            8 
   92000   0.94051774   -6.3658701    4105.7574            4 
   92100   0.96065343   -6.3757027    4105.1383            6 
   92200   0.97872694   -6.3481187     4102.787            5 
   92300   0.95295593   -6.3566697    4100.1669            9 
   92400   0.95435279   -6.3486396    4101.0577            6 
   92500    0.9319201   -6.3762123    4105.2538            7 
   92600   0.95347301   -6.3910696    4111.9487            6 
   92700   0.93826485   -6.3442931    4121.4676           11 
   92800   0.96434663    -6.356071     4113.912           22 
   92900   0.94511729   -6.3637502    4113.4928           16 
   93000   0.94645774    -6.345111    4119.0087           10 
   93100   0.93328559   -6.3819463    4128.7562           13 
   93200   0.95576382   -6.3910554    4117.4941           11 
   93300   0.96428015   -6.3518429    4121.8314           12 
   93400   0.95118937   -6.3525344    4116.6689            8 
   93500   0.94651687   -6.3324182     4117.091            7 
   93600   0.97031596   -6.3363889    4127.0299            7 
   93700   0.94474733   -6.3569768    4110.2805            6 
   93800   0.95087932   -6.3536356    4114.9349            7 
   93900   0.97012429   -6.3513179    4125.6028           15 
   94000   0.93762759   -6.3438258    4112.6548            5 
   94100   0.94471539   -6.3322277    4114.5259            5 
   94200   0.97446772   -6.3521316     4121.392            7 
   94300   0.94089269    -6.354952    4118.2498            8 
   94400   0.95488768   -6.3388711     4118.262            5 
   94500    0.9574081   -6.3375928    4125.0654            8 
   94600   0.95165634      -6.3673    4113.9894           10 
   94700   0.94819262   -6.3652184    4114.3497            7 
   94800   0.96871869   -6.3510713    4128.2922            6 
   94900   0.95307139   -6.3510216    4120.3847            5 
   95000    0.9413254   -6.3527842    4112.4179            5 
   95100   0.97673706   -6.3606978     4124.991            5 
   95200   0.95149995   -6.3519868    4115.0127           12 
   95300   0.94912361   -6.3625416    4115.3324            5 
   95400   0.93006517   -6.3705701    4115.5386            6 
   95500   0.95111562   -6.3871173    4116.0546            5 
   95600   0.93790295   -6.3633553    4119.5158            7 
   95700   0.93777577   -6.3646686    4119.4074           11 
   95800   0.96023053   -6.3794731    4119.7349           10 
   95900   0.94060844   -6.4029651    4109.2656            9 
   96000   0.94534405    -6.379434     4123.628           19 
   96100   0.95038615   -6.3772071    4113.9537           10 
   96200   0.94709308   -6.3870815     4109.239            6 
   96300   0.95284318   -6.3673349    4103.8311            9 
   96400    0.9685488   -6.3519697    4114.6684            6 
   96500   0.94018368    -6.363733    4102.4859           11 
   96600   0.95298734   -6.3650916    4108.8859            8 
   96700   0.96651497   -6.3489209    4120.8924            5 
   96800   0.94619851   -6.3640283    4107.8802            9 
   96900   0.95458593   -6.3721824    4113.9934           11 
   97000   0.96170082   -6.3707165    4118.4886           11 
   97100   0.95519541   -6.3843557    4100.6022           15 
   97200   0.94106776   -6.3700504     4100.188            8 
   97300   0.96708428    -6.372026    4114.6586           11 
   97400   0.95002565   -6.3851528    4102.7075           11 
   97500   0.96729348   -6.3761265    4094.6165            5 
   97600   0.95307825   -6.3544849    4099.8457            6 
   97700   0.97370838   -6.3433379    4103.8641            7 
   97800   0.95004387   -6.3649849    4109.6773            8 
   97900    0.9572709   -6.3508981    4104.8607            8 
   98000   0.95807459   -6.3425738     4114.577            7 
   98100    0.9497437   -6.3678436    4094.0202            4 
   98200   0.95202542   -6.3845505    4095.1149            7 
   98300    0.9586403   -6.3620581    4099.6073            8 
   98400   0.97973353   -6.3440735    4116.1637            6 
   98500   0.95116391   -6.3522831    4104.6217           12 
   98600   0.94813404   -6.3832925    4102.4825           15 
   98700   0.96206463   -6.4010958     4112.105            7 
   98800   0.95836994   -6.3501395    4125.3087            6 
   98900   0.94948514   -6.3697319    4120.7175            4 
   99000   0.97238953   -6.3808658    4113.6969            4 
   99100   0.93763247   -6.3733927    4100.4655            4 
   99200   0.95073438    -6.348173    4101.6101            6 
   99300   0.96502027   -6.3714988    4093.3266            4 
   99400   0.94727546   -6.3569366     4086.537            8 
   99500   0.95666271   -6.3427933    4097.4444            8 
   99600   0.95578879   -6.3619141    4108.2838            8 
   99700   0.93303796   -6.3728337    4109.8336            7 
   99800    0.9214101   -6.3961803    4099.5281            5 
   99900   0.95452722   -6.3970221    4112.4662            9 
  100000   0.96834654   -6.3805799    4118.7169            4 
  100100   0.95583579   -6.3520875    4109.4843            4 
  100200   0.94991133   -6.3792419     4100.524            6 
  100300   0.92902975   -6.3703615     4110.158            5 
  100400   0.93678973     -6.36152    4118.1603            6 
  100500   0.96659621   -6.3518759    4112.1726            6 
  100600   0.94930365   -6.3524285    4107.9079           10 
  100700   0.93822033   -6.3843287    4094.1496            5 
  100800   0.94932006   -6.3614013    4100.1356            5 
  100900   0.96595091   -6.3727536    4107.8308            8 
  101000   0.93399374   -6.3553672    4107.0839            8 
  101100   0.94261826   -6.3718603    4104.0205            7 
  101200   0.96815722   -6.3795444    4108.8821            5 
  101300   0.95962412   -6.3804838    4114.8997            6 
  101400   0.93409844   -6.3462228    4101.7291            6 
  101500   0.96940328   -6.3536607    4113.2167            6 
  101600   0.97007614   -6.3353637    4117.9647            7 
  101700   0.95568406   -6.3428662    4121.4931            7 
  101800   0.94912679   -6.3608591    4113.2442            5 
  101900   0.94519228   -6.3616704     4112.409            5 
  102000   0.95626561   -6.3476289    4129.9863           10 
  102100   0.92954692   -6.3542633    4126.7771            5 
  102200   0.92816403    -6.349883    4124.9425            9 
  102300    0.9491734   -6.3409475    4129.5378            9 
  102400   0.93369031   -6.3702675    4127.7168           13 
  102500   0.93903616   -6.3598961    4117.5102           18 
  102600    0.9670654   -6.3607586    4124.4818           10 
  102700   0.95416552   -6.3576177    4120.7637           12 
  102800   0.94462163   -6.3530114     4124.696            7 
  102900   0.97017628   -6.3410004    4126.8671           15 
  103000   0.95419931   -6.3600146    4109.9793            7 
  103100   0.94075344   -6.3645928     4109.085           11 
  103200   0.95013541    -6.323065    4118.4386            8 
  103300   0.96533135   -6.3236915     4113.577           12 
  103400   0.95488807   -6.3315369    4099.7081            8 
  103500   0.96581211   -6.3506824    4106.8793           12 
  103600   0.94890537   -6.3679054      4125.18           11 
  103700   0.95130914   -6.3772678    4129.1613            6 
  103800   0.95640871   -6.3483206    4129.1383           10 
  103900   0.95924057   -6.3812483    4129.4693           23 
  104000   0.93557758   -6.3686898    4123.3802           10 
Loop time of 141.103 on 64 procs for 100000 steps with 4000 atoms

Performance: 122463.823 tau/day, 708.703 timesteps/s
99.9% CPU use with 64 MPI tasks x no OpenMP threads

MPI task timing breakdown:
Section |  min time  |  avg time  |  max time  |%varavg| %total
---------------------------------------------------------------
Pair    | 7.4284     | 7.6131     | 8.1923     |   5.0 |  5.40
Neigh   | 1.0634     | 1.0837     | 1.14       |   1.2 |  0.77
Comm    | 11.723     | 17.446     | 21.736     |  54.0 | 12.36
Output  | 4.9006     | 4.9018     | 4.9123     |   0.1 |  3.47
Modify  | 96.641     | 105.52     | 114.17     |  38.8 | 74.78
Other   |            | 4.536      |            |       |  3.21

Nlocal:        62.5000 ave          73 max          54 min
Histogram: 1 5 5 10 17 16 8 0 1 1
Nghost:        1450.03 ave        1466 max        1435 min
Histogram: 4 6 7 10 7 7 12 0 8 3
Neighs:        6938.17 ave        8280 max        5978 min
Histogram: 3 4 8 13 17 14 3 0 1 1
FullNghs:      13876.4 ave       16362 max       12004 min
Histogram: 2 5 5 15 14 13 8 0 1 1

Total # of neighbors = 888088
Ave neighs/atom = 222.02200
Neighbor list builds = 5827
Dangerous builds = 0

#clear
#
#next RN
#
#jump SELF
Total wall time: 0:02:22
