
units lj                  # Use reduced LJ style units
atom_style atomic         # Uncharged point particles
atom_modify map hash      # Needed for indexing of clusters etc
                          # Used to be able to find where atoms are in relation to each other.

lattice fcc 1.0 spacing 1 1 1
Lattice spacing in x,y,z = 1.5874011 1.5874011 1.5874011
region box block 0 10 0 10 0 10 units lattice
create_box 2 box
Created orthogonal box = (0.0000000 0.0000000 0.0000000) to (15.874011 15.874011 15.874011)
  3 by 4 by 4 MPI processor grid
create_atoms 1 box
Created 4000 atoms
  using lattice units in orthogonal box = (0.0000000 0.0000000 0.0000000) to (15.874011 15.874011 15.874011)
  create_atoms CPU = 0.002 seconds
set type 1 type/fraction 2 0.18 78393
Setting atom values ...
  747 settings made for type/fraction
mass 1 1.0
mass 2 1.0
pair_style lj/cut  3.5
pair_modify tail  yes
pair_coeff 1  1  1.0  1.0   # Intearaction between 1 and 1 set with epsilon = 1 and sigma = 1
pair_coeff 1  2  1.5  0.8
pair_coeff 2  2  0.5  0.88

write_data data.0
System init for write_data ...
Neighbor list info ...
  update every 1 steps, delay 10 steps, check yes
  max neighbors/atom: 2000, page size: 100000
  master list distance cutoff = 3.8
  ghost atom cutoff = 3.8
  binsize = 1.9, bins = 9 9 9
  1 neighbor lists, perpetual/occasional/extra = 1 0 0
  (1) pair lj/cut, perpetual
      attributes: half, newton on
      pair build: half/bin/atomonly/newton
      stencil: half/bin/3d
      bin: standard
WARNING: Not all mixed pair coeffs generated from mixing. Use write_data with 'pair ij' option to store all pair coeffs. (../write_data.cpp:312)


#############################
#   M E L T   S Y S T E M   #
#############################

velocity all create 2.4 6583654 mom yes dist gaussian # Assign velocities
                                                    # Temperature 2.4, random number seed, zero linear momentum
                                                                                # Gaussian distribution

timestep 0.002   # simulation timestep
thermo 1000       # output thermodynamic data every 1000 steps bf 100

# Define a fix  in this case with index 1 applied to all
# particles in the simulation. This fix is for simulations
# in the anisotropic NPT ensemble. Note that we use the MTK
# correction.
fix 1 all npt temp 2.4 2.4 0.1 iso 5.68 5.68 0.5 mtk yes tchain 5 pchain 5 # Use NPT ensemble
                                                                         # Set temperature and pressure and damping
                                                                         # Numbers of thermostats in chain and in barostat
run 10000          # run for 10000 steps
Per MPI rank memory allocation (min/avg/max) = 3.642 | 3.644 | 3.648 Mbytes
Step Temp E_pair E_mol TotEng Press Volume 
       0          2.4   -7.1764538            0   -3.5773538   -3.5088476         4000 
    1000    2.4145421   -4.7801706            0   -1.1592628    5.9909405    4511.2315 
    2000    2.4467823    -4.859297            0   -1.1900411    5.5552614    4530.6213 
    3000    2.3655364   -4.8122878            0   -1.2648704     5.388752    4565.9134 
    4000    2.4118093   -4.7976677            0   -1.1808582    5.9249666    4510.4313 
    5000    2.3385026   -4.8004193            0   -1.2935424    5.9421553    4503.1413 
    6000    2.3821655   -4.8086795            0   -1.2363245    6.0143149    4495.5883 
    7000    2.3569303   -4.8564507            0    -1.321939    5.6741371    4510.3236 
    8000    2.4092276   -4.7365383            0   -1.1236004     5.868558     4555.103 
    9000     2.416189   -4.7290922            0   -1.1057148    5.7424275    4567.1698 
   10000    2.3751959   -4.7902973            0   -1.2283942    5.5731595    4556.4466 
Loop time of 2.24524 on 48 procs for 10000 steps with 4000 atoms

Performance: 769628.473 tau/day, 4453.868 timesteps/s
99.6% CPU use with 48 MPI tasks x no OpenMP threads

MPI task timing breakdown:
Section |  min time  |  avg time  |  max time  |%varavg| %total
---------------------------------------------------------------
Pair    | 0.93314    | 1.02       | 1.1084     |   3.4 | 45.43
Neigh   | 0.19545    | 0.20374    | 0.21645    |   1.1 |  9.07
Comm    | 0.65681    | 0.77576    | 0.85493    |   4.7 | 34.55
Output  | 0.00024534 | 0.00024896 | 0.00031534 |   0.0 |  0.01
Modify  | 0.20529    | 0.23078    | 0.25493    |   2.7 | 10.28
Other   |            | 0.01475    |            |       |  0.66

Nlocal:        83.3333 ave          92 max          75 min
Histogram: 2 3 8 1 11 10 3 6 1 3
Nghost:        1509.29 ave        1556 max        1477 min
Histogram: 2 4 9 8 12 8 2 2 0 1
Neighs:        8366.52 ave        9817 max        7415 min
Histogram: 4 6 6 8 9 7 3 4 0 1

Total # of neighbors = 401593
Ave neighs/atom = 100.39825
Neighbor list builds = 906
Dangerous builds = 218

# Equilibrate just above the melting temperature to avoid step fn in T

fix 1 all npt temp 1.25 1.25 0.1 iso 5.68 5.68 0.5 mtk yes tchain 5 pchain 5
run 2000
Per MPI rank memory allocation (min/avg/max) = 3.642 | 3.645 | 3.649 Mbytes
Step Temp E_pair E_mol TotEng Press Volume 
   10000    2.3751959   -4.7902973            0   -1.2283942    5.5731595    4556.4466 
   11000    1.2284631   -6.4390832            0   -4.5968492    5.8509188    3718.1229 
   12000    1.2458779   -6.5250735            0   -4.6567238    5.6629489    3704.3998 
Loop time of 0.503285 on 48 procs for 2000 steps with 4000 atoms

Performance: 686689.066 tau/day, 3973.895 timesteps/s
99.6% CPU use with 48 MPI tasks x no OpenMP threads

MPI task timing breakdown:
Section |  min time  |  avg time  |  max time  |%varavg| %total
---------------------------------------------------------------
Pair    | 0.21702    | 0.24301    | 0.26503    |   2.0 | 48.28
Neigh   | 0.031548   | 0.03462    | 0.036406   |   0.5 |  6.88
Comm    | 0.14463    | 0.17095    | 0.20558    |   2.7 | 33.97
Output  | 5.1789e-05 | 5.2812e-05 | 6.6576e-05 |   0.0 |  0.01
Modify  | 0.042265   | 0.049981   | 0.058324   |   1.7 |  9.93
Other   |            | 0.004668   |            |       |  0.93

Nlocal:        83.3333 ave          90 max          76 min
Histogram: 2 2 8 2 5 8 7 9 4 1
Nghost:        1731.38 ave        1748 max        1714 min
Histogram: 3 3 2 5 7 13 5 4 4 2
Neighs:        10315.8 ave       11602 max        9266 min
Histogram: 3 6 5 4 11 7 2 8 1 1

Total # of neighbors = 495156
Ave neighs/atom = 123.78900
Neighbor list builds = 142
Dangerous builds = 11

#############################
# L I N E A R  Q U E N C H  #
#############################

# Define solid atoms. This closely follows ten Wolde  Ruiz-Montero and Frenkel  Faraday Discuss  1996  104  93-110
# Compute components of the per-atom q6 vector
compute q6 all orientorder/atom degrees 1 6 components 6 nnn NULL cutoff 1.3 # compute the Q6 parameter.
                                                                             # Use all neighbours within 1.3 unit cell.

# get number of connections
compute coord_number all coord/atom orientorder q6 0.5

# An atom is solid if it has 8 or more connections (of a possible 14)
variable is_solid atom c_coord_number>=8
group solid dynamic all var is_solid    # Must be dynamic to update
dynamic group solid defined

# do clustering
compute cluster solid cluster/atom 1.3 # Create a cluster where all atoms within are solid and max 1.3 units from another member

# define chunks one chunk per cluster
compute clus_chunks solid chunk/atom c_cluster nchunk every compress yes  # Says which atoms are in which chunk

# count the size of each chunk
compute size_chunks solid property/chunk clus_chunks count


# Find the maximum entry in the vector of chunk sizes
variable max_n equal max(c_size_chunks)


# Thermo style which includes this variable
# thermo_style custom step temp pe vol v_max_n

thermo ${N}  # Print the thermo information every 100 steps
thermo 1000  

# Reset the npt fix at a lower temperature (below freezing)
fix 1  all npt temp  ${temp} ${temp}  0.1  iso  5.68  5.68  0.5  mtk yes tchain  5  pchain  5
fix 1  all npt temp  0.45 ${temp}  0.1  iso  5.68  5.68  0.5  mtk yes tchain  5  pchain  5
fix 1  all npt temp  0.45 0.45  0.1  iso  5.68  5.68  0.5  mtk yes tchain  5  pchain  5

dump dmp2 all dcd ${N} traj.dcd
dump dmp2 all dcd 1000 traj.dcd


compute msd all msd com yes
variable twopoint equal c_msd[4]/6/(step*dt+1.0e-6)
fix 9 all vector 10 c_msd[4]
variable fit equal slope(f_9)/6/(10*dt)
thermo_style custom step temp pe c_msd[4] v_twopoint v_fit v_max_n

fix 1 all npt temp 1.25 ${temp} 0.1 iso 5.68 5.68 0.5 mtk yes tchain 5 pchain 5
fix 1 all npt temp 1.25 0.45 0.1 iso 5.68 5.68 0.5 mtk yes tchain 5 pchain 5
run 2000000 # 5000000  # Run for this many steps
Neighbor list info ...
  update every 1 steps, delay 10 steps, check yes
  max neighbors/atom: 2000, page size: 100000
  master list distance cutoff = 3.8
  ghost atom cutoff = 3.8
  binsize = 1.9, bins = 9 9 9
  4 neighbor lists, perpetual/occasional/extra = 1 3 0
  (1) pair lj/cut, perpetual
      attributes: half, newton on
      pair build: half/bin/atomonly/newton
      stencil: half/bin/3d
      bin: standard
  (2) compute orientorder/atom, occasional
      attributes: full, newton on
      pair build: full/bin/atomonly
      stencil: full/bin/3d
      bin: standard
  (3) compute coord/atom, occasional
      attributes: full, newton on
      pair build: full/bin/atomonly
      stencil: full/bin/3d
      bin: standard
  (4) compute cluster/atom, occasional
      attributes: full, newton on
      pair build: full/bin/atomonly
      stencil: full/bin/3d
      bin: standard
Per MPI rank memory allocation (min/avg/max) = 9.770 | 9.775 | 9.780 Mbytes
Step Temp PotEng c_msd[4] v_twopoint v_fit v_max_n 
   12000    1.2458779   -6.5250735 1.015264e-30 7.050444e-33 8.3333333e+20            2 
   13000    1.2670014   -6.4685974   0.55471798 0.0035558844  0.044767209            4 
   14000    1.2193624   -6.4902132    1.1365971 0.0067654588  0.047465391            1 
   15000    1.2360962   -6.5158238    1.6627802 0.0092376674  0.046591317            3 
   16000    1.2307514   -6.5105355    2.1951136  0.011432883  0.046001788            1 
   17000    1.2627163   -6.4855784    2.7396841  0.013429823  0.045613229            3 
   18000    1.2436158   -6.4698903    3.2885744  0.015224881  0.045463061            4 
   19000    1.2518898   -6.5276336    3.7156453   0.01629669  0.044951546            3 
   20000    1.2686133   -6.5165025    4.1770958  0.017404566  0.043983231            2 
   21000    1.2371643    -6.475437     4.729385    0.0187674  0.043512446            2 
   22000    1.2557493   -6.4631583    5.2322812  0.019819246  0.043331384            4 
   23000     1.232157    -6.506579    5.7518473  0.020840026  0.043146762            2 
   24000     1.259078   -6.4892877    6.2273764  0.021622834  0.042944147            4 
   25000    1.2212129   -6.5003225    6.7279177  0.022426392   0.04267769            1 
   26000    1.2320404   -6.5363391    7.2981246  0.023391425  0.042589855            1 
   27000    1.2436951   -6.4834669    7.9081579  0.024407894  0.042696197            1 
   28000    1.2258127   -6.5013073    8.4288712  0.025085926  0.042916453            1 
   29000    1.2591417   -6.5298824    8.9152229  0.025618456  0.043052362            2 
   30000    1.2426236    -6.524602    9.4254133  0.026181703  0.043108559            1 
   31000     1.241533   -6.4659074    9.9566711  0.026765245  0.043178806            4 
   32000     1.231387   -6.5205159    10.504123  0.027354487  0.043237155            2 
   33000    1.2467822   -6.5044657    11.128199  0.028101513  0.043333477            3 
   34000    1.2474176   -6.4994031    11.597439  0.028425095  0.043422991            1 
   35000    1.2594514   -6.5237507    12.226062  0.029109671   0.04353051            1 
   36000     1.217377   -6.5170987    12.857217  0.029762076  0.043724286            5 
   37000    1.2623766   -6.4929436    13.411995  0.030207195  0.043940139            3 
   38000    1.2540829   -6.4788863    13.974706  0.030646284  0.044109994            3 
   39000    1.2837694   -6.5413737    14.431458  0.030836448  0.044236748            1 
   40000    1.2483705   -6.5394397    14.947511  0.031140648  0.044312339            1 
   41000    1.2201044   -6.5638592    15.410071  0.031321283  0.044352224            1 
   42000    1.2311536   -6.5063236    16.081277  0.031907296  0.044391763            2 
   43000    1.2491647   -6.4753373    16.642835  0.032253555   0.04446853            2 
   44000    1.2089815   -6.5270685    17.176997  0.032532191  0.044531136            2 
   45000    1.2312081   -6.4918557    17.598378  0.032589589  0.044576476            1 
   46000    1.2391891   -6.4872593    18.195713  0.032963248  0.044568244            3 
   47000    1.2256152   -6.4940527    18.603028  0.032984091   0.04457017            2 
   48000    1.2546694   -6.4834544    19.071284  0.033109867  0.044536767            2 
   49000    1.2544658   -6.5413224    19.578346  0.033296507  0.044490936            2 
   50000    1.2238175   -6.4859563    20.089432  0.033482386  0.044445109            2 
   51000    1.2620876   -6.5242506    20.535199  0.033554247  0.044400277            1 
   52000    1.2142987   -6.5220384    20.975504  0.033614589  0.044314958            5 
   53000    1.2496487   -6.5391698    21.370344  0.033601169   0.04422249            4 
   54000    1.2344086   -6.5015166    22.050748  0.034028932  0.044145094            1 
   55000    1.2452867   -6.5350038    22.768433  0.034497625  0.044104081            3 
   56000    1.2139873   -6.5491815    23.362622  0.034765807  0.044105037            1 
   57000    1.2077718   -6.5095971    23.730154  0.034693208  0.044102405            2 
   58000    1.2265499   -6.5087194     24.46968  0.035157585  0.044100016            2 
   59000    1.2313772   -6.5073143    24.754735  0.034964314  0.044086922            1 
   60000    1.2269207   -6.5010252    25.336236  0.035189216  0.044070741            3 
   61000    1.2479835   -6.5102571    25.650688  0.035041923  0.044029205            4 
   62000    1.2305154   -6.5385166    26.271978  0.035311797  0.043992405            2 
   63000    1.2431058   -6.5445797    26.579124  0.035157571  0.043946085            3 
   64000    1.2516078   -6.5081718    27.142333  0.035341579  0.043890816            2 
   65000    1.2266354    -6.545364    27.632752  0.035426605  0.043841981            4 
   66000    1.2492147   -6.5263843    28.198723  0.035604448  0.043793552            2 
   67000    1.2434818   -6.5387302     28.82217  0.035848469  0.043758846            1 
   68000    1.2249275   -6.5125125    29.410898  0.036042766  0.043736058            3 
   69000    1.2180297   -6.5067244    29.825592  0.036021246   0.04371684            1 
   70000     1.226482   -6.5470645    30.423497  0.036218449  0.043695795            3 
   71000    1.2306337   -6.5159426    31.108599   0.03651244  0.043695817            2 
   72000    1.2087463   -6.5555352    31.705589  0.036696283  0.043697098            2 
   73000    1.2038161   -6.6046115    31.923618  0.036442486  0.043701935            3 
   74000      1.21089   -6.5301428    32.617663  0.036731602  0.043686356            2 
   75000    1.2459945    -6.544086    33.235959  0.036928843  0.043690762            1 
   76000    1.2130246   -6.5406543      33.7218  0.036975657   0.04369909            1 
   77000    1.2136847    -6.542721    34.287819  0.037108029  0.043707997            4 
   78000    1.2239016   -6.5286653    34.668985  0.037039513  0.043711341            4 
   79000    1.2574069   -6.5350962    35.039354  0.036961344  0.043698512            2 
   80000    1.2229398   -6.5278653    35.788834  0.037280035   0.04368898            1 
   81000    1.2418924    -6.558151    36.497711  0.037549085  0.043698048            1 
   82000    1.1835448   -6.5398151    36.528129  0.037122082  0.043695932            1 
   83000    1.2169608   -6.5574977    36.833661  0.036981587  0.043652261            2 
   84000    1.2076022   -6.5476579     37.28485  0.036988938  0.043602794            1 
   85000    1.2256577   -6.5125556    37.760721  0.037020314  0.043548998            1 
   86000    1.2195489   -6.5258297    38.161722  0.036978413   0.04349394            2 
   87000    1.2208222   -6.5502211    38.592499  0.036965995  0.043432842            2 
   88000    1.2457881     -6.51811    39.090026   0.03701707  0.043367169            2 
   89000    1.2139256   -6.5395491    39.502175  0.036987055  0.043304278            2 
   90000     1.214774   -6.5560305    39.946748   0.03698773  0.043236632            1 
   91000    1.2078899    -6.561567     40.29156  0.036897032  0.043171028            1 
   92000    1.2217122    -6.559617    40.659016  0.036828819  0.043093016            2 
   93000    1.2228393   -6.5725251    41.108432  0.036835512  0.043009068            3 
   94000    1.2323167   -6.5636921    41.498341   0.03678931  0.042927673            1 
   95000     1.223235    -6.566543    41.999808  0.036841936  0.042849442            4 
   96000    1.2126989    -6.541504    42.454004  0.036852434  0.042777681            3 
   97000    1.2209001   -6.5575325    42.762714  0.036737727  0.042701425            2 
   98000    1.2252647   -6.5201138    43.241587  0.036770057  0.042618577            1 
   99000     1.209077   -6.5361766    43.802047   0.03687041  0.042539593            2 
  100000     1.203173   -6.5207348    44.330414  0.036942011   0.04246868            2 
  101000    1.1919911   -6.5465585    44.931728  0.037072383  0.042408413            2 
  102000    1.1694812    -6.574813    45.433069   0.03711852  0.042351668            1 
  103000    1.1932905   -6.5332282    45.816526  0.037068387  0.042297897            3 
  104000     1.198979   -6.5662761    46.448117  0.037218043  0.042247685            2 
  105000    1.2277617   -6.5884746    47.016102  0.037314366   0.04220725            2 
  106000    1.2139023   -6.5326524    47.523257  0.037361051  0.042167184            2 
  107000    1.2013922   -6.5675552    47.687351  0.037139682   0.04211434            2 
  108000    1.2020922   -6.5572415    48.084601  0.037102316  0.042055046            3 
  109000    1.2191696   -6.5209462    48.546458  0.037115029  0.041998969            2 
  110000    1.1855394   -6.5844157    48.940451  0.037076099  0.041941983            2 
  111000    1.1984085   -6.5430431      49.5493  0.037199174  0.041889249            1 
  112000    1.2337617   -6.5551729    49.999379  0.037201919  0.041836432            2 
  113000    1.1958862   -6.5884431    50.394556  0.037164127  0.041784285            1 
  114000    1.1905206   -6.5434785    50.925382  0.037226156  0.041738088            1 
  115000    1.2100464   -6.5542568    51.270015  0.037152184    0.0416916            2 
  116000    1.1991334   -6.5296647    51.834843  0.037237675   0.04164703            1 
  117000    1.2275928   -6.5732491    52.151974   0.03714528  0.041603238            1 
  118000    1.2045483   -6.5880118    52.731427  0.037239708  0.041559591            2 
  119000    1.1999004   -6.5581847    53.381862  0.037382256  0.041521056            2 
  120000    1.2056114   -6.5964128    53.579391   0.03720791  0.041483894            1 
  121000    1.2102899   -6.5678309    54.276995   0.03738085  0.041445226            1 
  122000    1.1915737   -6.5145131    54.976432  0.037552207  0.041413914            2 
  123000    1.1911729   -6.5570509    55.459654  0.037574291  0.041384111            2 
  124000    1.2406709   -6.6108047    55.657733   0.03740439  0.041351721            1 
  125000    1.2071835   -6.5402166     56.43712  0.037624746  0.041325601            3 
  126000    1.2221063   -6.6049482    57.120488    0.0377781  0.041305851            2 
  127000    1.1999939   -6.5639627    57.479586  0.037716264  0.041291453            6 
  128000    1.2311886   -6.5868963    58.133514   0.03784734  0.041280101            5 
  129000    1.1834382   -6.5798828    58.756436  0.037956354  0.041270116            2 
  130000    1.1778759   -6.5688144    59.112192  0.037892431  0.041256173            2 
  131000    1.2030989    -6.566685     59.60759  0.037918314  0.041248099            2 
  132000    1.2083147    -6.595518    59.816711  0.037763075  0.041238198            2 
  133000    1.1829119   -6.5852289    60.159318  0.037693808  0.041221483            2 
  134000    1.1868218   -6.5678229    60.930602  0.037892165  0.041204112            1 
  135000    1.1958246   -6.5855995    61.157399  0.037751481   0.04118825            4 
  136000    1.1877814   -6.5763297    61.780316  0.037855585  0.041170967            2 
  137000    1.1987252   -6.5782639    62.135299  0.037795194  0.041152066            1 
  138000    1.1936977   -6.5582082    62.735996  0.037884055  0.041134136            2 
  139000    1.1789913   -6.6267824    62.902017  0.037711041  0.041114842            2 
  140000    1.1845506   -6.5522299    63.581024  0.037845847  0.041094938            4 
  141000    1.2186918   -6.6253829    63.582169  0.037578114  0.041073389            2 
  142000    1.1982249   -6.5735775    64.532347  0.037871096  0.041047586            1 
  143000    1.1971403   -6.6005661    64.724302  0.037718124  0.041025135            3 
  144000    1.2017893   -6.5993193    65.310157  0.037795229  0.041004949            2 
  145000    1.2168832   -6.5711892    65.799673  0.037815904  0.040984643            2 
  146000     1.181227   -6.5757629    66.406159  0.037903058   0.04096506            1 
  147000    1.1833908   -6.5737017    67.076721  0.038025352  0.040950094            2 
  148000    1.1780583   -6.6194931    67.363059   0.03792965  0.040936884            2 
  149000    1.1964857   -6.5975381    67.846886  0.037945686  0.040919218            2 
  150000    1.1941659   -6.6067391    68.215002  0.037897223  0.040902525            4 
  151000    1.1991756   -6.6393031    68.341939  0.037716302  0.040881944            3 
  152000    1.2104427   -6.5899417    69.036554  0.037848988  0.040857732            2 
  153000    1.1951714   -6.5751277    69.866121  0.038053443  0.040838181            1 
  154000    1.2054068   -6.5843945    70.349218  0.038067758   0.04082349            3 
  155000    1.1929984   -6.5838633    70.999196  0.038171611   0.04080942            4 
  156000    1.1931044   -6.6093521    71.289407  0.038081948  0.040797874            2 
  157000    1.2190676   -6.6187609    71.830084  0.038126371  0.040789986            2 
  158000    1.2037632   -6.6445121    72.135691   0.03804625  0.040779292            3 
  159000     1.190338     -6.61963    72.903939  0.038209612  0.040769576            2 
  160000    1.1813256    -6.571951    73.469803  0.038265522  0.040761009            2 
  161000    1.1614269   -6.6211952    73.586272  0.038088132  0.040751014            1 
  162000    1.2066717   -6.6329568    74.342884  0.038242224  0.040743181            1 
  163000    1.1906101    -6.595112    75.037109   0.03836253  0.040739635            2 
  164000    1.1814672   -6.5510156    75.825606  0.038529271   0.04073807            1 
  165000    1.1763314   -6.6080347    75.932565   0.03834978  0.040736421            2 
  166000    1.1864367   -6.5778007    76.809527  0.038558999   0.04073364            2 
  167000    1.1741945   -6.5889582    76.990132   0.03841823  0.040733836            2 
  168000    1.1820856   -6.6193747     77.51885  0.038451811   0.04073534            4 
  169000    1.1700352   -6.5975896    78.348154  0.038633212  0.040736677            3 
  170000    1.1727347   -6.6178254    78.441082  0.038451511  0.040738083            1 
  171000    1.1840282   -6.6117507    78.995735  0.038496947  0.040739008            1 
  172000    1.1985345    -6.600896    79.108779  0.038327897  0.040741055            2 
  173000    1.1934253   -6.5939885    80.123292  0.038595034  0.040741343            1 
  174000      1.17987    -6.573627    79.980434  0.038304805  0.040740105            2 
  175000    1.2014734   -6.6121805    80.673564  0.038415983  0.040734836            2 
  176000    1.1391938   -6.6004148    81.084053   0.03839207  0.040731391            2 
  177000     1.223922   -6.5941966     81.75533   0.03849121  0.040727601            3 
  178000    1.1826383   -6.6019513    82.261212  0.038511803  0.040723694            2 
  179000     1.171331   -6.6321513    82.663444  0.038483912  0.040718989            2 
  180000    1.1721765   -6.5892622    83.320245  0.038574188  0.040714578            2 
  181000    1.1850623   -6.6295333    83.401882  0.038398656  0.040709675            3 
  182000    1.1840602   -6.6288138     83.94311   0.03843549  0.040700979            2 
  183000    1.1939162   -6.5951612    84.065922  0.038281385   0.04069257            1 
  184000      1.18561   -6.6606442    84.432539  0.038239375  0.040683148            1 
  185000    1.1885072   -6.5970253    85.114008  0.038339643   0.04067047            1 
  186000    1.1800666   -6.6137846    85.528244  0.038319106  0.040657537            2 
  187000      1.20195   -6.6467614    85.627019  0.038158208  0.040646116            3 
  188000    1.1997479   -6.6208562    86.262021  0.038236711  0.040632911            2 
  189000    1.1814729   -6.6434805    86.862406  0.038299121  0.040619223            3 
  190000    1.1906568   -6.6482713    86.785187  0.038063679   0.04060637            2 
  191000    1.2004239    -6.626134    87.909734  0.038355032  0.040594223            2 
  192000    1.1519004   -6.6150465    88.558144  0.038436694  0.040584969            3 
  193000    1.1965981   -6.6046742    89.361061  0.038584223  0.040577245            2 
  194000    1.1824884   -6.6318253    89.807732  0.038577204  0.040571103            2 
  195000     1.211245   -6.6304182    90.308968  0.038593576  0.040564172            2 
  196000    1.2136935   -6.6096668    90.200316  0.038350474   0.04055481            2 
  197000    1.1740279   -6.6321788    91.008918   0.03849785   0.04054625            3 
  198000    1.1848633   -6.6378189    91.522213   0.03851945  0.040539479            3 
  199000    1.1811693   -6.6580775    91.705394  0.038402594  0.040532504            7 
  200000    1.2051885   -6.6309036    92.349791   0.03847908  0.040527733            1 
  201000    1.1657587   -6.6334055     92.44946  0.038328963  0.040520181            4 
  202000    1.1606799   -6.6173895    92.897336  0.038323983  0.040508865            5 
  203000     1.167912    -6.625603    93.280551  0.038292509  0.040494308            2 
  204000    1.1520557   -6.6338795    93.811896  0.038321853  0.040478554            3 
  205000    1.1763532   -6.6225215    94.251515  0.038313624  0.040465116            1 
  206000    1.1432496     -6.64709    94.539761   0.03824424  0.040451319            3 
  207000    1.1727033   -6.6458109    95.485969  0.038440406  0.040438687            2 
  208000    1.1684077   -6.6299444    95.696279  0.038339855  0.040427633            2 
  209000    1.1492278   -6.6504389    96.326446  0.038407674  0.040416513            3 
  210000    1.1822101   -6.6557345    96.711768  0.038377686  0.040405728            2 
  211000    1.1697063   -6.6524041    97.057931  0.038332516   0.04039624            3 
  212000    1.2017361   -6.6241807    98.198904  0.038600198  0.040388824            1 
  213000    1.1962732   -6.6341511    98.320201  0.038466432  0.040383184            2 
  214000    1.1695947   -6.6732556    98.785017  0.038467686  0.040375045            3 
  215000    1.1740319   -6.6466951    99.509474  0.038569563  0.040368145            2 
  216000    1.1585101   -6.6411673    99.813338  0.038508232  0.040362187            3 
  217000    1.1909341   -6.6604467    100.14989   0.03846002  0.040355082            1 
  218000    1.1688683   -6.6563925    100.23207  0.038315009  0.040344186            5 
  219000    1.1344867   -6.7099238    100.51529  0.038247829  0.040331713            1 
  220000    1.1563094   -6.6147808    101.57837  0.038476656  0.040321032            3 
  221000    1.1498773   -6.6505473    102.01249  0.038466249  0.040308654            2 
  222000    1.1438943   -6.6673168    102.34847  0.038419096  0.040298806            2 
  223000    1.1717147   -6.6592655    102.87816  0.038444751  0.040289477            2 
  224000    1.1744556   -6.6348776    103.17841  0.038384824  0.040278725            4 
  225000    1.1877412   -6.6236549    103.76382  0.038431046  0.040266483            4 
  226000    1.1548586    -6.657098    103.64706  0.038217943  0.040253443            2 
  227000    1.1663144   -6.5910568     104.8564   0.03849354  0.040241884            2 
  228000    1.1460841   -6.6644523     104.7409  0.038282494  0.040231866            4 
  229000    1.1559191   -6.6523149    105.61472  0.038433303  0.040220506            1 
  230000    1.1809221   -6.6483012    105.57057  0.038250207  0.040209514            1 
  231000    1.1598258   -6.6685283    106.52389  0.038428531  0.040199374            1 
  232000    1.1641348   -6.6658696    106.37221   0.03820841  0.040188086            2 
  233000    1.1580463   -6.6697965    107.35065  0.038394368  0.040176896            3 
  234000    1.1855033   -6.6302197    108.22155  0.038540437  0.040167219            3 
  235000    1.1711464   -6.6424297    108.36481  0.038427236  0.040158833            1 
  236000    1.1638704   -6.6418004    108.52393  0.038320596  0.040151045            3 
  237000      1.15758   -6.6649484    108.89592  0.038289704  0.040140231            2 
  238000    1.1726085   -6.6883405    109.23764  0.038248472  0.040128465            1 
  239000    1.1510247    -6.675412    109.52403  0.038188294  0.040114001            2 
  240000    1.1584177   -6.6525986    110.10442  0.038230701  0.040101248            1 
  241000    1.1219464   -6.6610971    110.40143  0.038174767  0.040088126            4 
  242000    1.1514785   -6.6426752    111.10789  0.038260294  0.040076107            3 
  243000    1.1431862   -6.6424643    111.60551  0.038273495  0.040063693            3 
  244000    1.1861226   -6.6445545     111.8868  0.038212703  0.040050636            1 
  245000     1.153325   -6.6676428    112.10248  0.038130096  0.040038917            2 
  246000    1.1642404   -6.6685117    112.95695  0.038264548  0.040025776            2 
  247000    1.1488935   -6.6927584     112.9203  0.038097266  0.040013006            2 
  248000    1.1659446   -6.6212916     113.7672  0.038228226  0.039999019            1 
  249000    1.1720807   -6.6695097     114.1455  0.038201306  0.039985278            4 
  250000    1.1626389   -6.6523973    114.39247  0.038130823  0.039970691            3 
  251000    1.1589476   -6.6621545    114.43471  0.037992932  0.039954909            2 
  252000    1.1725051    -6.675028    114.71598   0.03793518   0.03993706            1 
  253000    1.1446693    -6.632018    115.43321   0.03802148  0.039918806            2 
  254000    1.1734741   -6.6929827    115.40421  0.037862272  0.039900749            2 
  255000     1.149018   -6.6662717    115.52553   0.03775344  0.039880851            1 
  256000    1.1200597   -6.6266922    116.37245  0.037881657  0.039857227            1 
  257000    1.1695684    -6.660031     116.4333  0.037753987  0.039835021            2 
  258000    1.1625074   -6.6805455    116.86253  0.037746295   0.03981387            2 
  259000    1.1347109   -6.6684743    117.46365  0.037793969  0.039791523            2 
  260000    1.1282144   -6.6773365    117.46452  0.037648883  0.039769206            4 
  261000    1.1573177   -6.6940739    117.69632  0.037578646   0.03974697            2 
  262000    1.1452751   -6.6918976    118.63232  0.037732925  0.039723296            2 
  263000    1.1455924   -6.7097179    118.86842  0.037664266  0.039702383            2 
  264000    1.1370396   -6.6409547     119.9865  0.037874526  0.039681666            2 
  265000    1.1829019   -6.7003277    120.27923  0.037823656  0.039660857            3 
  266000    1.1407204   -6.6775723    120.14339  0.037638908  0.039641256            2 
  267000    1.1300146   -6.7078241    120.66236  0.037659914  0.039621157            2 
  268000    1.1524754   -6.6358084    121.47419  0.037771826   0.03960185            2 
  269000    1.1412932   -6.7234805    121.87518  0.037755631  0.039583119            2 
  270000     1.143223   -6.6493116    122.20323  0.037717046  0.039563282            2 
  271000    1.1578985   -6.6649954    122.63542  0.037710769  0.039543913            3 
  272000    1.1498469   -6.7215182    122.93567  0.037664114  0.039524887            1 
  273000    1.1510738   -6.6990541    123.61317  0.037732959  0.039505366            2 
  274000    1.1211738   -6.7087163     124.1881  0.037770104  0.039486057            2 
  275000      1.14601   -6.6783249    124.80185  0.037818743  0.039469057            2 
  276000    1.1270545   -6.7242361    124.98706  0.037737638  0.039451482            2 
  277000    1.1256591   -6.6916796    125.73357  0.037825985  0.039436719            1 
  278000    1.1319517   -6.7599016    125.91556  0.037744472  0.039422057            3 
  279000    1.1468839   -6.7089726    126.44077  0.037766059  0.039407949            2 
  280000    1.1265063   -6.6574764    126.95531   0.03778432  0.039393278            1 
  281000      1.14252   -6.7018353    127.26832  0.037742682  0.039378996            1 
  282000    1.1381641   -6.6977344    127.88701   0.03779167   0.03936306            1 
  283000    1.1523285   -6.7117254    127.87178  0.037653644  0.039345761            2 
  284000     1.141746   -6.6920832    128.82802  0.037801648  0.039329465            2 
  285000    1.1481244   -6.6907871    129.15436  0.037764432  0.039315093            3 
  286000    1.1472855   -6.7075298     129.5084  0.037735547  0.039300859            1 
  287000     1.157248   -6.6916783    130.01178  0.037750228  0.039287022            2 
  288000    1.1334561   -6.7118701    130.82057  0.037853173  0.039273469            3 
  289000    1.1476324   -6.6657085    131.38035  0.037883607   0.03926097            1 
  290000    1.1467479    -6.711666    131.15684  0.037688746  0.039248716            2 
  291000     1.114085   -6.7088378     132.0931  0.037827349  0.039236585            2 
  292000    1.1645248   -6.6795199    132.43644  0.037795787  0.039223376            1 
  293000    1.1382649   -6.7001117    132.67851  0.037735639  0.039208786            2 
  294000    1.1311217   -6.7469067    132.46509  0.037546794  0.039192432            1 
  295000    1.1219601    -6.725843    133.09824  0.037598372  0.039176398            2 
  296000    1.1167345   -6.7145901    133.51584  0.037588919  0.039159152            2 
  297000    1.1319761   -6.7162533    133.65548  0.037501536  0.039141266            3 
  298000    1.1342527   -6.7281546    133.54766  0.037345542  0.039123152            2 
  299000    1.1538935   -6.7175327    134.17699   0.03739604  0.039102503            2 
  300000    1.1393512    -6.710082    134.65962   0.03740545  0.039082499            2 
  301000    1.1457682   -6.7136239    135.06582  0.037393638  0.039064347            1 
  302000    1.1419039   -6.6807608    135.71809  0.037449803  0.039046976            3 
  303000    1.1498025    -6.703802    136.06016  0.037420287  0.039028365            3 
  304000    1.1652473   -6.7075054    136.48833  0.037414564  0.039009919            2 
  305000    1.1467039   -6.6931981    137.15532  0.037474131  0.038991918            5 
  306000    1.1534215   -6.7392088    137.15422  0.037351366  0.038973157            3 
  307000     1.129261   -6.7021224    137.24163  0.037253427  0.038953873            2 
  308000    1.1116394   -6.7136848    137.71133  0.037259558  0.038934577            1 
  309000    1.1228185   -6.7350976    137.90913  0.037192321  0.038915864            1 
  310000    1.1409978   -6.7247626    138.96271  0.037355568  0.038897179            2 
  311000    1.1279829   -6.7340692    139.49811  0.037378914  0.038878598            1 
  312000    1.1346138   -6.7287072    139.96472   0.03738374  0.038859957            2 
  313000    1.1208343   -6.6959283    139.79929  0.037220258  0.038841675            3 
  314000    1.1228298   -6.7350888    140.15527  0.037196196  0.038821367            2 
  315000    1.1372004   -6.7362336    140.60328  0.037196636  0.038801691            2 
  316000    1.1135937   -6.7078901    140.94709  0.037169591  0.038782743            1 
  317000     1.120446   -6.7332715    141.10514  0.037093885  0.038762901            3 
  318000    1.1095871   -6.7589453    141.53037  0.037088672  0.038742116            6 
  319000    1.1079047   -6.7096864    141.79045  0.037040347  0.038722258            1 
  320000    1.1343694   -6.7172266    142.36969   0.03707544  0.038702078            2 
  321000    1.1245594   -6.7529452    142.85521  0.037085984  0.038680765            2 
  322000     1.113648   -6.7478811    142.82793  0.036963749  0.038660158            2 
  323000    1.1243105   -6.7412811    143.43671  0.037006375  0.038638834            3 
  324000    1.1144042   -6.7243907    143.82604  0.036992293  0.038616991            3 
  325000    1.1457865   -6.7412594    144.11024  0.036951343  0.038594829            2 
  326000    1.1168733   -6.7113692    144.59756  0.036962567  0.038571556            1 
  327000    1.1137565   -6.7489579    144.43082  0.036807039   0.03854903            3 
  328000    1.1054984   -6.7388109    145.06679  0.036856401  0.038525982            2 
  329000    1.1312391   -6.6744242      145.176  0.036772037  0.038502703            3 
  330000    1.0868103   -6.7474649    145.52991  0.036749977  0.038478042            2 
  331000    1.1130522   -6.7392365    145.73285  0.036690043  0.038453929            2 
  332000    1.1430752   -6.7411375      146.129  0.036678967  0.038429759            2 
  333000    1.1286535   -6.7118356    146.12283  0.036567275  0.038404521            2 
  334000    1.1276723   -6.7565078    146.23402  0.036485535  0.038378502            4 
  335000    1.1109002   -6.7340005     146.3055  0.036394402  0.038351974            1 
  336000    1.1452793   -6.7479749    147.50124  0.036582649  0.038325983            3 
  337000    1.1150045   -6.7107832    147.49337  0.036472149  0.038299761            2 
  338000    1.0950683    -6.717494    148.33559  0.036571891  0.038273457            2 
  339000    1.1462856   -6.7422358    147.84705  0.036343917   0.03824721            2 
  340000     1.149876   -6.7331387     148.3737  0.036366102  0.038219997            2 
  341000    1.1433987   -6.7599186    148.66358  0.036330298  0.038191949            2 
  342000    1.1020938   -6.7057736    149.23932  0.036364357  0.038165205            4 
  343000    1.1139171   -6.7681596    149.47436  0.036315443  0.038138123            2 
  344000    1.1252475   -6.7399196    150.02229  0.036342608  0.038112326            2 
  345000     1.127741   -6.7470528    150.71689  0.036405046  0.038086757            2 
  346000    1.1241757   -6.7072158     151.2993  0.036440102  0.038060915            4 
  347000    1.1172769   -6.7360286    151.69682  0.036430551  0.038036614            1 
  348000     1.123641   -6.7413002    152.08363  0.036418494  0.038012284            3 
  349000    1.1018098   -6.7291934    151.94336  0.036280651  0.037988216            2 
  350000    1.1115258    -6.776046    152.42006  0.036290491  0.037964045            1 
  351000    1.1194862   -6.7711011    152.78969  0.036274855  0.037939061            5 
  352000    1.1276355    -6.727734    152.82713  0.036180665  0.037914398            4 
  353000    1.1162738   -6.7603348    153.16089  0.036156961  0.037889196            2 
  354000    1.1236978   -6.7161885     154.1074  0.036277637  0.037863232            2 
  355000    1.1092995   -6.7590625    153.99499  0.036149059  0.037836227            4 
  356000    1.1186874   -6.7464255     154.0614  0.036063063  0.037808903            3 
  357000    1.1065761   -6.7540692    153.93006  0.035931386  0.037780601            3 
  358000    1.0850647   -6.7317772    154.85612  0.036046583  0.037752317            2 
  359000    1.1001087   -6.7318586     154.9129  0.035959356  0.037725116            1 
  360000    1.0981856   -6.7352211    155.76945  0.036057744  0.037698101            3 
  361000    1.1205836   -6.7665747    155.94418  0.035998194  0.037671048            5 
  362000    1.1194006    -6.756749    156.82744  0.036102082  0.037644946            2 
  363000    1.1109304   -6.7367663    157.43527  0.036142164  0.037618937            1 
  364000    1.1098911   -6.7607986    156.95029  0.035931843  0.037592463            2 
  365000    1.1263432   -6.7488175    157.40138  0.035936389  0.037566354            4 
  366000      1.09524   -6.7450868    158.22405  0.036025513  0.037540527            1 
  367000    1.1190852   -6.7641702    158.41682  0.035971122  0.037516518            1 
  368000    1.1064184   -6.7778404    158.58161   0.03591069  0.037491745            2 
  369000     1.115419   -6.7578208    158.65985  0.035831041  0.037466845            2 
  370000    1.0996502   -6.7646753    159.36127  0.035892178  0.037441376            3 
  371000     1.086065   -6.7707109    159.85132  0.035905508  0.037416538            8 
  372000    1.1124626   -6.7732914    159.65418  0.035764826  0.037391615            4 
  373000    1.1038738   -6.7480297     160.9054   0.03594848  0.037366331            2 
  374000    1.1250029   -6.7710709    161.20927  0.035920069  0.037341845            2 
  375000    1.1146304   -6.7552223    160.99796  0.035777324  0.037317949            1 
  376000    1.0912762   -6.7679354    161.31733  0.035752955  0.037293993            4 
  377000    1.1170158   -6.7620111    161.59331  0.035719123  0.037269624            1 
  378000    1.0953868   -6.7296201    162.35702  0.035792993  0.037244262            2 
  379000    1.1176899   -6.7837217    162.34641   0.03569622  0.037219132            1 
  380000    1.0952312   -6.7220382    162.82959  0.035708244   0.03719379            2 
  381000    1.1038799   -6.7858795    162.84448  0.035617778  0.037168416            4 
  382000     1.123352   -6.7553691    163.77641  0.035727837   0.03714255            3 
  383000    1.1337642   -6.7715994    163.95009  0.035672344   0.03711817            1 
  384000    1.1148206   -6.7864901    163.83011  0.035553409   0.03709304            2 
  385000    1.0872884   -6.7630832    164.77434  0.035665441  0.037067922            2 
  386000    1.1027641   -6.7767336    164.73763  0.035565118  0.037043556            2 
  387000    1.1086729   -6.7581234    166.00838  0.035746853   0.03702033            3 
  388000    1.1232243   -6.8043467    165.58413  0.035563602  0.036996454            1 
  389000     1.106906   -6.7779619    166.10742  0.035584281  0.036971845            1 
  390000     1.110872     -6.79558    165.87495  0.035443365  0.036947446            5 
  391000    1.0805818    -6.814041     166.1278  0.035406608   0.03692251            2 
  392000    1.1088665   -6.7990882    166.50356  0.035396164  0.036897352            3 
  393000    1.0838641   -6.7822593     167.0446  0.035420823  0.036872054            2 
  394000    1.1008081   -6.7587562    167.79239  0.035489085  0.036847312            2 
  395000    1.0896987   -6.7922314    167.90227  0.035422421  0.036822458            1 
  396000    1.1102391   -6.7580367    168.25131   0.03540642  0.036797507            1 
  397000    1.1287946   -6.7859513    168.30031  0.035327522  0.036772909            3 
  398000    1.1087703   -6.7735945    168.57911  0.035297133  0.036747765            2 
  399000    1.1022871   -6.7649345    169.17188  0.035332473  0.036722453            4 
  400000    1.0862103   -6.7979974    169.29257  0.035269285  0.036697197            2 
  401000    1.1070448   -6.7712337    170.01321  0.035331091  0.036671756            2 
  402000    1.0802337   -6.7842451    169.83061   0.03520535  0.036646618            2 
  403000    1.1049805   -6.7784848    170.17893  0.035190018  0.036620684            2 
  404000    1.1185728   -6.7955176    170.17783  0.035102688  0.036594238            2 
  405000    1.0895814   -6.8271945    169.83278  0.034945016  0.036567393            4 
  406000    1.0940428   -6.7993227    170.69539  0.035035999  0.036540734            5 
  407000    1.0936488   -6.7689742    171.69533  0.035154654  0.036514213            4 
  408000    1.0764991   -6.7494368    171.59673  0.035048352  0.036487448            2 
  409000    1.0812968   -6.7623413    172.02296  0.035049503  0.036461678            2 
  410000    1.0949033   -6.8236187    171.90259   0.03493955   0.03643617            3 
  411000    1.0917298   -6.8087197    172.75708  0.035027793  0.036410141            2 
  412000    1.0836451   -6.7833282    172.69037  0.034929282  0.036384307            3 
  413000    1.0809403   -6.8115639    173.20365  0.034948274  0.036357986            1 
  414000    1.0754576   -6.7884513    173.61347  0.034946352  0.036331101            2 
  415000    1.0836971   -6.8290075    173.49759  0.034838874  0.036303838            4 
  416000    1.0929422   -6.8066715    173.67305  0.034790274  0.036277224            2 
  417000    1.0935322     -6.83841    174.22394  0.034816934  0.036251356            1 
  418000    1.0847809   -6.8330478    174.34843  0.034758459  0.036225454            2 
  419000    1.0818402   -6.8123375    174.34271  0.034674366  0.036199415            3 
  420000    1.1053689   -6.7801887    174.84962  0.034692385  0.036172918            4 
  421000    1.0864129   -6.8137406    175.01168  0.034642059  0.036145501            1 
  422000    1.0681127   -6.7900216    175.27524  0.034612013  0.036117869            5 
  423000    1.0814076   -6.8255586    175.66088  0.034606162  0.036090382            4 
  424000    1.0762246   -6.7987527    176.12099  0.034614975  0.036063037            3 
  425000    1.0684283   -6.7903626    176.77443  0.034661653  0.036036224            1 
  426000     1.079477   -6.7682675    177.98869  0.034817819  0.036010951            2 
  427000    1.0926028   -6.8219267    177.53723  0.034648172  0.035984464            2 
  428000    1.0566717   -6.8459312    177.90178  0.034638197  0.035957834            2 
  429000    1.0764209   -6.7930243    178.16292  0.034608181  0.035931098            3 
  430000    1.0912984   -6.8074481    177.75996  0.034449605  0.035904082            1 
  431000    1.0861956   -6.8058664    178.54772  0.034521987   0.03587682            5 
  432000    1.0796843   -6.7915485    178.22428  0.034379683  0.035849737            1 
  433000    1.0754398    -6.760996    179.56761  0.034558817  0.035822814            2 
  434000     1.087566   -6.8047172    179.38142  0.034443438   0.03579603            4 
  435000    1.0832334   -6.8189756    180.01153  0.034484968   0.03576907            4 
  436000     1.076189    -6.817598    180.12825  0.034428183  0.035742598            7 
  437000    1.1019589   -6.8527801    179.78767  0.034284452  0.035715977            2 
  438000    1.0608757   -6.7739086    180.28287  0.034300395   0.03568891            2 
  439000    1.0678203   -6.8210505    181.56057  0.034464801  0.035662838            4 
  440000    1.0857621   -6.8213805    181.95256  0.034460712  0.035636773            1 
  441000     1.081716   -6.8200751    181.59576  0.034315148  0.035611075            2 
  442000    1.0881663   -6.7990361     181.9549  0.034305223  0.035585099            3 
  443000    1.0710229   -6.8182621    181.91148  0.034219616  0.035558586            4 
  444000    1.0709823   -6.8312276    182.25215  0.034206484  0.035532956            3 
  445000    1.0886723   -6.8361606    183.42684  0.034349596  0.035507981            2 
  446000    1.0780819   -6.8469622    183.48881  0.034284157  0.035483192            3 
  447000    1.0770206   -6.8425105    183.59663   0.03422756  0.035458343            5 
  448000    1.0453272   -6.8167722    184.21969  0.034267055  0.035432769            1 
  449000    1.0775488   -6.8192647    184.72312  0.034284172  0.035408377            1 
  450000    1.0762854   -6.8146336    184.99923  0.034259117  0.035384532            1 
  451000    1.0878378   -6.8154019    184.83013  0.034151908   0.03536078            3 
  452000    1.0647619   -6.8424069    185.34319  0.034170942  0.035336402            2 
  453000    1.0774822   -6.8202215    186.15284  0.034244451  0.035312459            3 
  454000    1.0798887   -6.8412995    186.16259  0.034170813   0.03528844            2 
  455000     1.082105   -6.8431413    186.37638  0.034134869  0.035263701            2 
  456000    1.0595444   -6.8228102    186.47066  0.034077241   0.03523944            2 
  457000     1.092684   -6.7939546    187.76115  0.034237993  0.035215403            3 
  458000    1.0772542   -6.8098698    187.49326  0.034114495   0.03519182            4 
  459000    1.0833558   -6.8597885    187.67592  0.034073332  0.035168607            4 
  460000    1.0627165   -6.8595904      188.348  0.034121015  0.035144912            3 
  461000    1.0631335   -6.8573602    188.61736  0.034095691  0.035120969            2 
  462000    1.0583087   -6.8248974    188.39783  0.033982292  0.035097803            6 
  463000    1.0553245   -6.8258949    189.25605  0.034063363  0.035074198            2 
  464000    1.0785442   -6.8117728    189.07015  0.033956564  0.035049981            1 
  465000    1.1091709   -6.8288438    189.20839  0.033908314  0.035025579            3 
  466000    1.0666058   -6.8397539    189.26114  0.033844983  0.035001047            2 
  467000    1.0981635   -6.8100679    190.15081  0.033931266  0.034976816            2 
  468000     1.053133   -6.8394338    190.21548  0.033870278  0.034952738            6 
  469000    1.0586912   -6.8175695    190.81318  0.033904261  0.034929088            4 
  470000    1.0589902   -6.8548865    190.41574  0.033761657   0.03490509            2 
  471000    1.0745765   -6.8467269    190.71234  0.033742453   0.03488071            2 
  472000     1.059142   -6.8290001    191.86474  0.033874424   0.03485644            3 
  473000    1.0398084   -6.8729497    192.01092  0.033828563  0.034832161            3 
  474000    1.0655313   -6.8349011    191.85652  0.033730049  0.034807708            3 
  475000    1.0588697   -6.8446873    192.53326  0.033777766  0.034784118            3 
  476000     1.067386   -6.8341793    193.02925  0.033793636  0.034760905            1 
  477000    1.0699068   -6.8711476    192.52514   0.03363472  0.034737086            1 
  478000    1.0630709   -6.8222402    193.82192  0.033790433  0.034713856            2 
  479000    1.0776689   -6.8349935    193.93002  0.033738695  0.034690529            5 
  480000    1.0521374   -6.8000769    194.39932  0.033749882  0.034667664            4 
  481000    1.0812322   -6.8253219    194.71965  0.033735213  0.034644381            1 
  482000      1.06722   -6.8436794    195.00666  0.033714845  0.034621715            2 
  483000    1.0608064   -6.8673127    195.15654    0.0336709  0.034598324            2 
  484000    1.0538758   -6.8754042    195.26585  0.033620153  0.034574545            5 
  485000    1.0598128   -6.8200364    196.08258  0.033691166  0.034551711            2 
  486000    1.0749498   -6.8111874    196.91579   0.03376471  0.034529598            1 
  487000    1.0687373   -6.8826986     196.6935   0.03365734  0.034507269            1 
  488000    1.0798786   -6.8552894    196.34666  0.033529144  0.034484608            4 
  489000    1.0508426   -6.8577234    197.62801  0.033678938  0.034461985            5 
  490000    1.0696786    -6.853084    196.90806  0.033487765  0.034439383            3 
  491000    1.0281199    -6.861252    197.56184  0.033530523  0.034416892            2 
  492000    1.0558879   -6.8695616    198.23286  0.033576026  0.034395016            2 
  493000      1.05366   -6.8689236    198.29586   0.03351857  0.034372347            3 
  494000    1.0671466    -6.863051     198.0984  0.033417408  0.034349576            2 
  495000    1.0558283    -6.859914    198.76563  0.033462227  0.034326715            5 
  496000    1.0392582   -6.8381571    199.06962  0.033445837  0.034304507            1 
  497000    1.0751606   -6.8667229    199.25333  0.033409344  0.034282531            2 
  498000    1.0434227    -6.845087    199.39064  0.033365235  0.034260488            3 
  499000     1.060783   -6.8464867    200.06287  0.033410634  0.034238849            3 
  500000    1.0422046    -6.830116    200.27185  0.033378642  0.034217156            2 
  501000    1.0771728   -6.8662331    200.61573  0.033369217  0.034195305            1 
  502000    1.0615199   -6.8987641    200.50508  0.033284375  0.034172745            2 
  503000    1.0732368   -6.8753665    201.13802  0.033323065  0.034150396            3 
  504000    1.0273518   -6.8379233    202.25412  0.033441488   0.03412877            2 
  505000    1.0349847   -6.8562844    201.68542  0.033281422  0.034107044            5 
  506000    1.0711421    -6.863732     201.8559  0.033243725  0.034085404            4 
  507000    1.0531188    -6.846382     203.0288   0.03337094  0.034064509            1 
  508000    1.0481943   -6.8566319    203.04231  0.033307465  0.034043264            2 
  509000    1.0576587    -6.870386    203.56055  0.033326874  0.034022846            2 
  510000    1.0224096   -6.8735148    204.01573  0.033335903  0.034002182            4 
  511000    1.0486874   -6.8921437    203.91154  0.033253675  0.033981841            3 
  512000     1.058075   -6.8832058    203.83399  0.033176105  0.033960945            3 
  513000    1.0472577    -6.888468    204.47965  0.033216317  0.033940346            1 
  514000    1.0519251   -6.8629295    204.14537  0.033097499  0.033919442            3 
  515000     1.051539   -6.9156997      204.898  0.033155016   0.03389896            2 
  516000    1.0319657   -6.8561588    205.56402  0.033198324  0.033878662            3 
  517000    1.0646452    -6.894504    206.21059  0.033238328  0.033858652            3 
  518000    1.0300821   -6.8476213    206.51488  0.033223114  0.033837882            3 
  519000    1.0625092   -6.8440373    206.15631  0.033101527   0.03381746            4 
  520000    1.0464392   -6.8858169     207.2094  0.033206635  0.033797244            3 
  521000    1.0457059   -6.8890326    207.28763  0.033155412  0.033777436            6 
  522000    1.0600508    -6.913798    206.95826  0.033039314  0.033757644            3 
  523000    1.0607042   -6.8870377    208.21995  0.033177175  0.033737593            2 
  524000    1.0704255   -6.8703906     208.8725  0.033217636  0.033718372            2 
  525000    1.0405061   -6.8912013    208.56655  0.033105802  0.033698988            5 
  526000    1.0425999   -6.8793424    208.95491   0.03310439  0.033678979            2 
  527000    1.0355692    -6.912486    208.08459  0.032903952  0.033659019            6 
  528000    1.0327841   -6.8685577    208.83681  0.032960356  0.033638539            2 
  529000    1.0505955   -6.8776452    209.63273   0.03302343  0.033618421            7 
  530000    1.0495357   -6.9019487     208.9276  0.032850251  0.033597788            2 
  531000    1.0399925   -6.9182549    208.80287  0.032768813  0.033576351            1 
  532000    1.0546865   -6.8984918    209.46038   0.03281021   0.03355525            3 
  533000    1.0519794   -6.9144766    210.08357  0.032846086  0.033534123            5 
  534000    1.0255265    -6.910369     210.0307  0.032776326  0.033512506           10 
  535000    1.0501854   -6.8834881    210.18336  0.032738841  0.033491242            4 
  536000    1.0690185   -6.9148595    210.19963   0.03268029  0.033470007            5 
  537000    1.0406961   -6.9361106    210.41289  0.032652528   0.03344891            2 
  538000    1.0478285   -6.8986257    211.13605  0.032703849  0.033427362            2 
  539000    1.0246337   -6.9066661    210.97502  0.032618277  0.033405802            3 
  540000    1.0582184   -6.8675581    210.85082  0.032538707  0.033383668            6 
  541000    1.0344192   -6.8636179    211.53391  0.032583781  0.033361636            5 
  542000    1.0383327    -6.867823    211.49485  0.032517658  0.033339508            2 
  543000    1.0348763   -6.9076822    211.60256  0.032474304  0.033316809            6 
  544000    1.0423548   -6.9040109    212.86356  0.032607775  0.033294665            2 
  545000    1.0239721   -6.9113397    212.71695  0.032525528  0.033272852            3 
  546000    1.0504314   -6.9045535    213.16926   0.03253499  0.033250989            2 
  547000    1.0281021   -6.9068432    213.05248  0.032457721  0.033228873            1 
  548000    1.0425765   -6.8818751    213.45077  0.032459059   0.03320705            3 
  549000    1.0447635    -6.910471    213.68205  0.032435041  0.033185179            3 
  550000    1.0321288   -6.9171229    213.69947  0.032378708  0.033163658            5 
  551000    1.0336649   -6.9120897    214.77484  0.032482583  0.033142042            2 
  552000    1.0482933   -6.9181125    214.76741  0.032422616  0.033120729            2 
  553000    1.0260411   -6.9182439    215.00557  0.032399875   0.03309941            3 
  554000    1.0437818   -6.9345624    214.78622  0.032308397  0.033078299            2 
  555000    1.0345235   -6.8822511    215.97462  0.032428622  0.033057094            2 
  556000    1.0427698    -6.934862    215.78782  0.032342299  0.033035937            2 
  557000    1.0315077   -6.8774679    216.08047  0.032328018  0.033014397            1 
  558000    1.0107974    -6.924067    215.92076  0.032246231  0.032992568            2 
  559000    1.0206129   -6.8675441    216.92442  0.032338166   0.03297083            3 
  560000    1.0097504   -6.9099545     216.4537  0.032210372   0.03294928            3 
  561000    1.0330689   -6.9454924    216.30633  0.032131066  0.032926971            4 
  562000     1.013731   -6.8926527    217.13556   0.03219685  0.032904444            2 
  563000    1.0319846   -6.9186798    217.08811   0.03213264  0.032882192            3 
  564000    1.0281104   -6.9648244    216.71513  0.032020557  0.032859487            3 
  565000    1.0269083    -6.913132    217.51594  0.032081997  0.032837028            2 
  566000    1.0289773   -6.9372277    218.28804  0.032138993  0.032814972            4 
  567000    1.0437545   -6.9021628    218.76602  0.032152561  0.032792714            7 
  568000    1.0484977   -6.9309781    218.73599  0.032091548  0.032771141            2 
  569000    1.0174958   -6.9550728    218.61875  0.032017978  0.032749253            3 
  570000    1.0136801   -6.9261474    219.42481   0.03207965  0.032727296            5 
  571000    1.0385152   -6.9001692    219.79896  0.032078074  0.032706386            3 
  572000    1.0184966   -6.9234103     220.0509  0.032058697  0.032685213            3 
  573000   0.99524887    -6.934278    220.26243  0.032033513  0.032663664            2 
  574000    1.0243465   -6.9375587    219.90048  0.031925157  0.032642092            2 
  575000     1.010718   -6.9642031    219.83961  0.031860813  0.032620315            4 
  576000    1.0063185   -6.9553343    220.20549  0.031858433  0.032598117            2 
  577000    1.0225632   -6.9097138    221.25842  0.031955289  0.032575968            3 
  578000    1.0287491    -6.901097    221.29152  0.031904775  0.032554117            2 
  579000    1.0333005   -6.9496137    220.78381  0.031776599  0.032531976            3 
  580000    1.0227872    -6.938501    221.30029  0.031796019  0.032509919            2 
  581000    1.0208803   -6.9197858    222.12115   0.03185903  0.032488219            2 
  582000    1.0229368   -6.9578761    221.94167  0.031778589  0.032466528            5 
  583000    1.0380003   -6.9214747    222.30419  0.031775899  0.032444915            3 
  584000    1.0272745   -6.9320759    222.87592  0.031803071  0.032423598            5 
  585000    1.0139671   -6.9292041    223.59996  0.031851847  0.032402691            2 
  586000    1.0251892   -6.9423844    223.14241  0.031732424  0.032382056            2 
  587000     1.029225    -6.951623      224.294  0.031841851  0.032360808            3 
  588000    1.0105277    -6.959247    223.13675  0.031623689  0.032339522            2 
  589000    1.0306257   -6.9394808    223.47473  0.031617817  0.032317853            2 
  590000    1.0185542   -6.9341786     223.9634  0.031633249  0.032296783            3 
  591000    1.0167733   -6.9610983    223.76064  0.031551134  0.032275361            2 
  592000    1.0164468    -6.967141    224.50457  0.031602557  0.032253452            2 
  593000    0.9983899   -6.9253222     225.0659  0.031628148  0.032232006            6 
  594000    1.0279432   -6.9485278    225.29515  0.031607064  0.032210846            2 
  595000    1.0102073   -6.9250728    225.68421  0.031608433   0.03218969            6 
  596000   0.96891151    -6.936616    225.35695  0.031509641  0.032168171            2 
  597000    1.0197301   -6.9548894    225.32512  0.031452417  0.032146028            1 
  598000     1.000502   -6.9623815    226.28177  0.031533133  0.032124004            4 
  599000    1.0136242   -6.9267939    226.32749  0.031486852  0.032102108            4 
  600000   0.99885657   -6.9305757    225.69946  0.031347147   0.03208012            2 
  601000    1.0340257   -6.9500288    226.60656  0.031420765  0.032057948            2 
  602000    1.0349724    -6.947031    227.33757  0.031469763  0.032035926            1 
  603000    1.0139388    -6.952538     227.1495  0.031391584  0.032013961            3 
  604000    1.0154923   -6.9462809    227.17028  0.031342477  0.031991758            3 
  605000    1.0164315   -6.9497433    227.58065  0.031347197  0.031969779            3 
  606000   0.99606139   -6.9709448    227.12559  0.031232892  0.031947996            3 
  607000    1.0242914   -6.9550584     227.5919  0.031245456  0.031926174            3 
  608000    1.0128632   -6.9520762    227.58918  0.031193693   0.03190408            3 
  609000    1.0129199   -6.9381437    227.92333  0.031188196  0.031881873            2 
  610000    1.0255468   -6.9591713    227.86775  0.031129474  0.031859379            5 
  611000    1.0153264   -6.9260386    228.11697  0.031112516  0.031836748            2 
  612000    1.0097093   -6.9883189      228.316   0.03108878  0.031813652            4 
  613000    1.0032444   -6.9670619     227.8827   0.03097916  0.031790893            3 
  614000    1.0164943   -6.9449193    229.52222  0.031151224  0.031768462            3 
  615000    1.0182264   -6.9409014    229.09983  0.031043337  0.031746138            3 
  616000    1.0157861    -6.942387    230.18621  0.031139909   0.03172384            1 
  617000    1.0094256   -6.9407744     229.2159  0.030958388  0.031701533            3 
  618000   0.98892135   -6.9630261    229.46346  0.030941675  0.031678956            4 
  619000    1.0086474    -6.970025    229.74029  0.030928957  0.031656431            3 
  620000    1.0089766   -6.9474568    229.99345  0.030913098  0.031633974            3 
  621000    1.0243053   -6.9649386    229.84114   0.03084288  0.031611481           13 
  622000   0.97340448   -7.0053482    230.53982  0.030886899  0.031588672            5 
  623000    1.0314189   -6.9606287    230.24109  0.030797364  0.031566252            4 
  624000    1.0131894   -6.9693926    231.44627  0.030908958  0.031543847            3 
  625000    1.0008288   -6.9536349    231.43799  0.030858399  0.031521409            4 
  626000    1.0040205    -6.976321    231.44315  0.030809792  0.031499057            3 
  627000    1.0086534   -6.9298644    232.36266  0.030882863  0.031477001            3 
  628000    1.0125252   -6.9379216    232.48654  0.030850125  0.031455091            3 
  629000    0.9870518   -6.9645826    232.52717  0.030806461  0.031433104            2 
  630000   0.98639568   -6.9878412    232.22936   0.03071817  0.031411185            1 
  631000    1.0142196   -6.9708362    233.05329    0.0307783  0.031388985            3 
  632000    1.0211734   -6.9678636    232.87284  0.030705807  0.031366996            3 
  633000    1.0043031   -6.9488506    232.92333  0.030663946  0.031344888            3 
  634000   0.99917127   -6.9692744    233.98962  0.030755733   0.03132322            4 
  635000    0.9920713   -6.9677685    233.72806  0.030672974  0.031301741            3 
  636000    1.0071741    -6.987218    234.61913  0.030741501  0.031280327            3 
  637000   0.97974195   -6.9789148    234.62931  0.030694572  0.031258976            4 
  638000    1.0021435   -6.9357206    235.24626  0.030727046  0.031237921            4 
  639000    1.0145463   -6.9944234    234.68055  0.030605184  0.031216676            2 
  640000    1.0151999   -7.0137197    234.83835   0.03057791  0.031194838            3 
  641000    1.0105563   -6.9883908    235.26534  0.030585717  0.031173301            2 
  642000   0.97257799   -7.0099536    235.50947  0.030569765  0.031151673            5 
  643000    1.0082378   -6.9816714    235.86282  0.030568017  0.031129943            3 
  644000   0.99363341   -7.0150996    236.27167  0.030573456  0.031108576            2 
  645000    1.0074827     -6.94961    236.67351  0.030577972   0.03108765            2 
  646000    1.0130361   -6.9931417    236.78418  0.030544915  0.031066418            2 
  647000    1.0036541   -6.9685566    237.43568  0.030581618  0.031045516            3 
  648000   0.99451441   -6.9932355    236.72405  0.030442908  0.031024205            6 
  649000   0.98913316    -6.972095    238.09688  0.030572276   0.03100295            4 
  650000   0.99393471    -6.994811    238.11618  0.030527715  0.030982341            4 
  651000    0.9991906   -7.0131212     238.9442  0.030586815   0.03096203            3 
  652000   0.98552813   -6.9996695    238.50134    0.0304833  0.030941658            3 
  653000   0.98957228   -6.9663699    239.26901  0.030534585    0.0309215            4 
  654000   0.98363421   -7.0035973    239.58233  0.030527819  0.030901334            2 
  655000   0.97953641   -6.9724214    239.59133  0.030482358  0.030881115            2 
  656000    1.0109555   -6.9899319    239.95798  0.030482468  0.030861237            4 
  657000   0.98802038   -6.9853602     239.6827  0.030401155  0.030841156            5 
  658000   0.97984856   -7.0292129    240.26124  0.030428221  0.030821256            3 
  659000   0.99586592   -6.9800988    241.37871  0.030523358  0.030801365            3 
  660000   0.99574122    -6.985079    240.82585  0.030407304  0.030781245            6 
  661000   0.97330023   -7.0170034    241.43874   0.03043857  0.030761008            3 
  662000   0.98265899   -6.9965706    240.55061  0.030280792  0.030740658            4 
  663000   0.96882894   -6.9856538    241.32335  0.030332246  0.030720467            6 
  664000    0.9815018   -7.0075366    241.73648  0.030338413  0.030700156            5 
  665000   0.98956285   -7.0487998    241.32574  0.030241321  0.030679742            3 
  666000   0.99438646   -7.0252295    242.07033   0.03028908  0.030659617            4 
  667000   0.99078556   -7.0143521    242.41252  0.030286422  0.030639628            4 
  668000    1.0009763   -6.9859239    243.12466  0.030329923   0.03061979            1 
  669000   0.98169817   -6.9871871    242.27896  0.030179242  0.030599566            3 
  670000   0.97028608   -6.9833522    242.72917  0.030190195  0.030579188            2 
  671000   0.99069662   -7.0041014    241.71403  0.030019129  0.030558587            2 
  672000    0.9787282   -7.0519961    243.06193  0.030141608  0.030538006            2 
  673000   0.97750567   -6.9944835    243.65113  0.030169779  0.030518079            4 
  674000    1.0050369   -6.9905534    243.75213  0.030137503   0.03049828            5 
  675000    0.9960042    -7.055286    243.13641  0.030016841  0.030477845            1 
  676000   0.97142099   -6.9970319    243.87311  0.030063254  0.030457661            4 
  677000   0.97488599   -7.0795939    243.60766  0.029986171  0.030437454            2 
  678000   0.99195631   -7.0369097    243.91814  0.029980106  0.030416943            3 
  679000    0.9921654   -7.0131163      244.417  0.029997177  0.030396412            3 
  680000   0.96892348   -6.9800088    244.46515  0.029958964  0.030375932            4 
  681000   0.98754777   -7.0044054    245.02936  0.029984014  0.030355871            3 
  682000   0.98842424    -7.008303    245.17023  0.029957262   0.03033561            2 
  683000   0.99741667   -7.0260805    245.20355  0.029917466  0.030315594            3 
  684000   0.97961183   -7.0277542    245.70606  0.029934948  0.030295527            4 
  685000   0.99054704   -7.0056801    245.62559  0.029881459  0.030275047            3 
  686000   0.97830987   -7.0082336    246.39588  0.029931473  0.030255147            4 
  687000   0.97909539   -7.0197815    246.38814  0.029886965  0.030235059            2 
  688000   0.97653479   -7.0210784    246.28633  0.029831193  0.030215095            3 
  689000    0.9744097   -7.0206315    246.24923  0.029783409  0.030195249            5 
  690000    1.0019046   -7.0380628    246.97339  0.029827704  0.030175245            2 
  691000   0.97985998   -7.0388219     246.7983  0.029763423  0.030155155            2 
  692000   0.95738182    -7.038753    247.40453  0.029793417   0.03013527            5 
  693000   0.97456191   -7.0316171    247.27815  0.029735227  0.030115547            4 
  694000   0.98254139   -7.0116699    248.23038  0.029806722  0.030096076            2 
  695000   0.96681568   -7.0559604    248.26184  0.029767606  0.030076603            5 
  696000   0.97291057   -7.0532904    247.64631  0.029651139  0.030057005            4 
  697000   0.96451921   -7.0355212    249.70856  0.029855161  0.030037593            2 
  698000   0.94952955   -7.0339635    249.84934  0.029829196  0.030018585            2 
  699000    0.9804557   -7.0410333     249.4302  0.029736552  0.029999206            6 
  700000   0.97717412   -7.0227531    249.46176  0.029697829  0.029979909            3 
  701000   0.97761126    -7.005312    249.99064  0.029718335  0.029961044            4 
  702000   0.97794641   -7.0453134    249.70217  0.029641758  0.029942101            3 
  703000   0.99462743   -7.0289013    250.16355  0.029654285  0.029923114            3 
  704000   0.96335672     -7.05534    250.48521  0.029650238  0.029903974            3 
  705000   0.96966928   -7.0458254    251.41049  0.029717552  0.029885296            2 
  706000   0.98674437    -7.030113    251.83814  0.029725937  0.029866691            2 
  707000   0.98480712    -7.020681      252.472  0.029758605   0.02984852            1 
  708000   0.96354177    -6.994161    251.90092  0.029649355  0.029830518            4 
  709000   0.96782227   -7.0681297    252.24706   0.02964822  0.029812432            3 
  710000   0.95936514   -7.0561832    252.51941  0.029638428  0.029794298            5 
  711000   0.98019879   -7.0236308    252.59917  0.029606091  0.029775881            3 
  712000   0.97873269   -7.0379012    252.60069  0.029564687  0.029757254           10 
  713000   0.97378639   -7.0610853    252.89549  0.029557678  0.029738585            5 
  714000   0.98943779   -7.0126168    253.12194   0.02954271  0.029719922            3 
  715000   0.96264428   -7.0460783    252.79655  0.029463468  0.029701232            4 
  716000   0.97721411   -7.0736835    253.10528   0.02945825  0.029682407            3 
  717000   0.95425161   -7.0445777    253.38462   0.02944963  0.029663723            4 
  718000   0.96541762   -7.0375601    253.71154  0.029446557  0.029645414            5 
  719000   0.97055417   -7.0625772    253.73328  0.029408122  0.029627199            3 
  720000   0.97333351   -7.0066867    255.35385  0.029554843   0.02960896            2 
  721000   0.95465135   -7.0843858    254.80522  0.029450441  0.029590811            2 
  722000   0.94893795   -7.0272536     254.7119   0.02939888  0.029572319            6 
  723000    0.9759991   -7.0317023    254.69444  0.029356206  0.029553944            3 
  724000   0.95373145   -7.0397626    255.63019  0.029423365  0.029535349            3 
  725000   0.97677797   -7.0549382    255.45686  0.029362858  0.029517121            2 
  726000   0.95581458   -7.0569476    255.89605  0.029372824  0.029498885            8 
  727000    0.9541312   -7.0633783    255.59345  0.029297736  0.029480588            5 
  728000   0.96821237    -7.061094     256.2018   0.02932713  0.029462422            2 
  729000   0.96349241    -7.050085    257.08963  0.029388389  0.029444378            2 
  730000   0.97631297    -7.056957    256.47915  0.029278442  0.029426469            3 
  731000   0.95742263   -7.0470844    257.13919  0.029313633  0.029408273            5 
  732000    1.0024998   -7.0596568    257.28591  0.029290291  0.029390294            2 
  733000   0.97519027   -7.0741258    256.97419  0.029214893  0.029371965            4 
  734000    0.9897285   -7.0493272    257.66982  0.029254067  0.029353993            7 
  735000   0.95537505   -7.0216237    258.25623  0.029280752  0.029336254            2 
  736000   0.94954303   -7.0474447     257.4245  0.029146795    0.0293183            3 
  737000   0.99550695   -7.0277876    258.39273  0.029216727  0.029300312            5 
  738000   0.97432203   -7.0514034    258.12823  0.029147271  0.029281776            3 
  739000    0.9574677   -7.0595951    257.71915    0.0290617   0.02926308            3 
  740000   0.96978676   -7.0679298    258.12304   0.02906791  0.029244398            3 
  741000   0.95895363   -7.0521517    258.85215  0.029110678  0.029225941            3 
  742000   0.95869539   -7.0565943     258.3453  0.029014522  0.029207628            2 
  743000   0.95883563   -7.0582055    259.13905  0.029064496  0.029189169            3 
  744000   0.96046278   -7.0662074    258.73861  0.028980579  0.029170707            2 
  745000   0.94633004   -7.0770308    258.98165  0.028968865  0.029152622            5 
  746000   0.94701593   -7.0657865    259.45117  0.028982481  0.029134359            3 
  747000   0.93573196   -7.0688083    260.26648  0.029034636  0.029116226            3 
  748000   0.94723399   -7.0410403    259.93979  0.028959424   0.02909821            2 
  749000   0.96126867   -7.0476677    260.46261  0.028978929  0.029080364            2 
  750000   0.95518065   -7.0693962    260.64365  0.028960405  0.029062101            4 
  751000   0.96471065   -7.0895795    260.15705  0.028867849  0.029043796            4 
  752000   0.96756269   -7.0953181    260.95656  0.028918059  0.029025471            3 
  753000   0.95677355   -7.1035387    261.25097  0.028912236  0.029007228            6 
  754000   0.95887311   -7.0829463      261.115  0.028858864  0.028989025            2 
  755000   0.96233715   -7.0735252    261.33753  0.028845202  0.028970619            3 
  756000   0.96314866   -7.0477041    261.72477  0.028849732  0.028952413            3 
  757000   0.94732079   -7.0560187    261.81866  0.028821957  0.028934074            3 
  758000   0.95864032   -7.1052138    261.81788  0.028783847  0.028915993            5 
  759000   0.93876495   -7.0842184    263.21395  0.028899204   0.02889773            4 
  760000   0.94537222   -7.0824063    262.35261  0.028766734  0.028879809            3 
  761000   0.96257581   -7.1045651    262.90044  0.028788922  0.028861754            7 
  762000   0.94044671   -7.0811052    263.53073  0.028820071  0.028843802            2 
  763000   0.96400359   -7.0975318    263.92603  0.028825473  0.028826535            2 
  764000   0.95757846   -7.0971441    263.56833  0.028748727  0.028809031            3 
  765000   0.93757205   -7.0818109    264.18021    0.0287778  0.028791285            2 
  766000    0.9541248   -7.0808441    263.70838  0.028688901  0.028773594            3 
  767000   0.93388937   -7.0762519    264.98308  0.028789991  0.028755945            6 
  768000   0.92317084   -7.0754069    264.32974  0.028681613  0.028738144           11 
  769000    0.9472449   -7.0662698    264.68143  0.028682426  0.028720409            4 
  770000   0.94937321   -7.0916928    264.19726  0.028592778  0.028702333            4 
  771000   0.95941412    -7.114117    265.26218  0.028670794  0.028684337            5 
  772000   0.97799186   -7.1167618    264.91035  0.028595676  0.028666313            4 
  773000   0.94484641   -7.0780862    265.13181  0.028582558  0.028648193            2 
  774000   0.92442951   -7.1211343    265.12058  0.028544421   0.02863024            5 
  775000   0.96945291   -7.1074597    266.43861  0.028649313  0.028612508            3 
  776000   0.93246997   -7.0575987    265.64571  0.028527245  0.028595031            2 
  777000    0.9403373   -7.0930136    267.05723  0.028641916  0.028577648            3 
  778000   0.95282381   -7.1185012    266.46387  0.028541546  0.028559961            3 
  779000   0.93500478   -7.0746452    266.93713  0.028555534  0.028542474            2 
  780000   0.94925961   -7.0810808    266.86678  0.028511408   0.02852511            3 
  781000   0.94004838   -7.0784577    266.63292  0.028449948  0.028507493            5 
  782000   0.94229446   -7.1107486    267.18357  0.028472247  0.028489958            4 
  783000   0.95268287   -7.0876311     267.1325  0.028430449  0.028472394            2 
  784000    0.9372503   -7.1046731    267.54529  0.028438062  0.028455139            2 
  785000   0.94556841   -7.0959262    267.96694  0.028446596  0.028437738            2 
  786000   0.91233264   -7.0949754    268.73047  0.028491356   0.02842042            5 
  787000   0.91711197   -7.1079927    268.04788  0.028382876  0.028403071            2 
  788000   0.93490946   -7.0947966      267.748  0.028315144  0.028385532            3 
  789000   0.94660729   -7.0819724    269.03713  0.028415412   0.02836801            3 
  790000   0.95687173   -7.1086992    268.75891  0.028350095   0.02835075            3 
  791000   0.94964328   -7.0907458    268.49771  0.028286737  0.028333373            2 
  792000   0.94912296   -7.1010317     268.6364  0.028265614  0.028315935            3 
  793000    0.9432578   -7.0956982    269.63821  0.028335247  0.028298683            2 
  794000   0.93353018   -7.1365022    268.80393  0.028211999  0.028281275            5 
  795000   0.93149397   -7.1051347    269.60326    0.0282603  0.028264025            7 
  796000   0.93168963   -7.1071711    269.68857  0.028233728   0.02824655            4 
  797000   0.92058517   -7.0887711    269.79358  0.028209282  0.028229043            2 
  798000   0.92103659   -7.0896855    269.76156  0.028170589  0.028211579            3 
  799000   0.94668508   -7.1208591    270.78206  0.028241766  0.028193907            4 
  800000   0.93160871   -7.1436843    269.74559  0.028098499  0.028176032            2 
  801000   0.95146236   -7.1241989    270.83449  0.028176705  0.028158372            9 
  802000   0.94558126   -7.1341978    270.89234  0.028147583  0.028141003            7 
  803000   0.94253082   -7.0937287    271.35708  0.028160759  0.028123551            4 
  804000   0.94223508   -7.1233011    270.56876  0.028044025  0.028106327            2 
  805000   0.94253689    -7.104752    271.59115  0.028115026  0.028089275            3 
  806000   0.93453734    -7.133342    271.74356  0.028095901  0.028072048            4 
  807000   0.93457872   -7.1599835    271.55119  0.028041222  0.028054774            4 
  808000   0.92729806   -7.1092409    272.05847  0.028058836  0.028037375            2 
[...]
 1800000   0.54568743    -8.000704    317.75675  0.014710961  0.013393632           18 
 1801000   0.53011916   -8.0054198    317.25453  0.014679555  0.013382885           15 
 1802000   0.53347438   -7.9996501    317.75672  0.014694632  0.013372139           17 
 1803000   0.52945463   -7.9974115    317.60017  0.014679246  0.013361395           15 
 1804000   0.52741716   -7.9764083    317.79649  0.014680178  0.013350685            8 
 1805000   0.52564197   -8.0012119    317.77898  0.014671236   0.01333998           14 
 1806000   0.52245816   -8.0105208    317.89319  0.014668383  0.013329276           22 
 1807000   0.54118918   -7.9857803    317.82578  0.014657156  0.013318597           19 
 1808000   0.52522118   -8.0040257    317.61482  0.014639326   0.01330792           12 
 1809000   0.52668535   -8.0006963    317.90005  0.014644373  0.013297259           11 
 1810000   0.53482189   -8.0044638    317.44944  0.014615536  0.013286586           17 
 1811000   0.52262444   -8.0015697    318.08037  0.014636498  0.013275946           13 
 1812000   0.53675619   -8.0157269     318.1777  0.014632897    0.0132653           14 
 1813000   0.53027416   -8.0123515    317.47389  0.014592475  0.013254669           13 
 1814000    0.5243758   -7.9949271    317.47468  0.014584467  0.013244044           13 
 1815000   0.53009833   -8.0075334    318.09431  0.014604881  0.013233426           15 
 1816000   0.52484052   -8.0080283    317.10233  0.014551318  0.013222813           19 
 1817000   0.53568416   -8.0040391    317.76229  0.014573578  0.013212225           18 
 1818000   0.52140956   -8.0011715    318.24587  0.014587728  0.013201644           17 
 1819000   0.52527383   -7.9985993    317.55678  0.014548139  0.013191064           18 
 1820000   0.51789608   -8.0015641    318.12915  0.014566353  0.013180486           16 
 1821000   0.52166709   -8.0058788    318.01356  0.014553064  0.013169916           19 
 1822000   0.52168374   -8.0289456     317.7272  0.014531979   0.01315936           14 
 1823000   0.51953912   -8.0138733    318.01892  0.014537343  0.013148816           13 
 1824000   0.53331014   -8.0355737     317.5142  0.014506314  0.013138274           14 
 1825000   0.52453954   -8.0126142    317.66808  0.014505392  0.013127733           21 
 1826000   0.52179978   -8.0321087    317.30627  0.014480936  0.013117204           17 
 1827000   0.52770196   -8.0182693    317.78999  0.014495073   0.01310669            8 
 1828000   0.52171425   -8.0283485    317.83641   0.01448926  0.013096192           13 
 1829000   0.51871175   -8.0374636    317.74268  0.014477068  0.013085702           20 
 1830000   0.50458029    -8.009319    317.41542  0.014454254  0.013075214           18 
 1831000   0.52216535   -7.9981092    317.44311   0.01444762  0.013064742           15 
 1832000   0.51399891     -8.00669    317.97591  0.014463969  0.013054273           13 
 1833000    0.5211079   -8.0210806    317.21435  0.014421456   0.01304382           19 
 1834000   0.51606489   -7.9982788    317.52378  0.014427653  0.013033382           18 
 1835000   0.52364231   -8.0234562    317.47225   0.01441745  0.013022948           21 
 1836000   0.51122532   -8.0277038    317.62005  0.014416306  0.013012534           14 
 1837000   0.51808914   -8.0134832    317.31789  0.014394751  0.013002131           15 
 1838000   0.52317001   -8.0208583     317.9137  0.014413933   0.01299174           15 
 1839000   0.53656759   -8.0227966    317.55817  0.014389984  0.012981347           12 
 1840000   0.51500721   -8.0240527      317.345  0.014372509  0.012970959            9 
 1841000   0.51281095   -8.0178652    316.93177  0.014345997  0.012960591           21 
 1842000   0.52289607   -8.0288763    318.04157  0.014388417  0.012950231           16 
 1843000   0.51251652   -8.0076374      317.649  0.014362859  0.012939879           13 
 1844000   0.51529474   -8.0196336    317.09722  0.014330134  0.012929542           21 
 1845000   0.51716034   -8.0041342    317.61702  0.014345845  0.012919202           16 
 1846000   0.51602379   -8.0157977    317.73048  0.014343196  0.012908876            8 
 1847000   0.52217026   -8.0121552    317.51256  0.014325598  0.012898553           18 
 1848000   0.52049243    -8.037419    317.24231   0.01430566  0.012888237           14 
 1849000   0.52363557   -8.0315064    317.38729  0.014304457  0.012877933           11 
 1850000   0.51010161   -8.0312838    317.67746  0.014309796  0.012867643           12 
 1851000   0.51467926   -8.0285107    317.75099  0.014305375  0.012857355           18 
 1852000   0.50802544   -8.0252241    317.45866  0.014284497  0.012847079           14 
 1853000   0.51924866   -8.0437967    317.48664  0.014278046  0.012836818           12 
 1854000   0.50509574   -8.0101837    317.13372  0.014254482  0.012826561           13 
 1855000   0.51229085   -8.0173519    317.47112  0.014261955  0.012816313           20 
 1856000   0.50539089    -8.041656    317.35303  0.014248969  0.012806078           12 
 1857000   0.50638356   -8.0320369    317.43206  0.014244842  0.012795855           12 
 1858000   0.50497883   -8.0276649    317.52523  0.014241354  0.012785622           14 
 1859000   0.52046725   -8.0370322    316.96665  0.014208654  0.012775415            9 
 1860000   0.50868081   -8.0297782    317.15451  0.014209431  0.012765217           15 
 1861000   0.50792024   -8.0386468    317.42792  0.014214039  0.012755015           20 
 1862000   0.51305817   -8.0167576    317.11563  0.014192429  0.012744834           11 
 1863000   0.49697591    -8.043244    317.38916  0.014197046  0.012734659           15 
 1864000   0.50636471   -8.0428733    317.12975  0.014177832  0.012724494           17 
 1865000   0.51009507   -8.0342214    317.07728  0.014167885  0.012714338           15 
 1866000   0.51041825   -8.0174455    317.34566  0.014172279   0.01270419           12 
 1867000   0.49856388   -8.0380872    317.49608  0.014171401  0.012694054           15 
 1868000   0.51010466   -8.0416125    317.12712  0.014147355  0.012683927           21 
 1869000    0.5074378   -8.0296673    316.93681    0.0141313  0.012673812           16 
 1870000   0.49877514   -8.0343317    317.11403  0.014131641    0.0126637           18 
 1871000   0.50702295   -8.0320679    317.53162  0.014142688  0.012653596           16 
 1872000   0.49648737   -8.0517207    317.49887  0.014133675  0.012643515           19 
 1873000   0.49979533   -8.0427491    317.50145  0.014126243  0.012633435           16 
 1874000   0.50536997   -8.0623684     317.4486  0.014116355  0.012623354           12 
 1875000    0.5094769   -8.0276199    316.93086  0.014085816  0.012613282           15 
 1876000   0.49991826   -8.0425618    317.12732  0.014087034  0.012603215           15 
 1877000   0.50729297   -8.0406015    317.07851  0.014077362  0.012593152           29 
 1878000   0.50483885   -8.0204147    316.70959  0.014053496   0.01258311           21 
 1879000   0.50367458   -8.0576769     316.8787  0.014053517  0.012573078           16 
 1880000   0.50383903   -8.0451064    317.23051  0.014061636  0.012563061            7 
 1881000   0.50259845     -8.04976    316.70322    0.0140308  0.012553055           21 
 1882000   0.50300361   -8.0457272    316.73522  0.014024762  0.012543055           17 
 1883000   0.49986719   -8.0237564    317.22153  0.014038835  0.012533073           21 
 1884000    0.5096022   -8.0573427    316.98631   0.01402098  0.012523104           14 
 1885000   0.49804312   -8.0402723    317.50304  0.014036385   0.01251315           13 
 1886000   0.49627875   -8.0383216    317.39594  0.014024211  0.012503205           13 
 1887000   0.50042961    -8.046579    317.06972  0.014002373  0.012493258           14 
 1888000   0.49406343    -8.046849    317.30661  0.014005412  0.012483318           20 
 1889000   0.49103053   -8.0319706    317.66093  0.014013629  0.012473388           19 
 1890000   0.49195077    -8.030773    317.15862  0.013984066   0.01246347           21 
 1891000   0.49622873   -8.0571601    316.90866  0.013965656  0.012453565           13 
 1892000   0.49574586   -8.0435053    316.80392  0.013953661  0.012443656           12 
 1893000   0.51078453   -8.0325494    317.14702  0.013961394  0.012433779           13 
 1894000   0.49239637   -8.0502182    316.68155  0.013933543  0.012423896           20 
 1895000   0.49586345   -8.0558833    316.68716  0.013926436  0.012414022           15 
 1896000   0.49438358   -8.0582908      316.805   0.01392427  0.012404154           17 
 1897000   0.50210684   -8.0430798    316.84324   0.01391861  0.012394301           17 
 1898000   0.48510135   -8.0455632    317.19534  0.013926736  0.012384452           15 
 1899000   0.48870833   -8.0589361     316.9538  0.013908803  0.012374621           16 
 1900000   0.48562565    -8.047466    316.75021  0.013892553  0.012364795           14 
 1901000   0.49223216   -8.0468237    316.49007  0.013873842   0.01235498           22 
 1902000   0.49503224   -8.0708263    316.80923  0.013880531  0.012345176           25 
 1903000   0.50444508   -8.0509935    316.69924   0.01386842  0.012335367           16 
 1904000   0.49516441   -8.0555823    316.61661   0.01385752  0.012325574           19 
 1905000   0.48965161   -8.0730118    317.10386   0.01387156  0.012315775           15 
 1906000   0.49229983   -8.0546895    317.14273  0.013865982  0.012305997           12 
 1907000   0.49361188   -8.0539423     316.8104  0.013844188  0.012296227           18 
 1908000   0.50131095   -8.0483958    316.38362  0.013818292  0.012286471           22 
 1909000   0.48618665   -8.0581106    317.16753  0.013845274  0.012276719           16 
 1910000   0.49099955   -8.0578951    316.71826  0.013818423  0.012266965           16 
 1911000   0.48455769   -8.0705926     316.3733  0.013796149  0.012257228           14 
 1912000   0.47741067   -8.0772929     317.0345  0.013817752  0.012247492           16 
 1913000   0.48475482   -8.0624727    316.75688  0.013798435  0.012237772           25 
 1914000   0.49650022   -8.0517714    316.54745  0.013782108  0.012228064           25 
 1915000   0.48187701   -8.0712002    316.98681   0.01379403  0.012218367           18 
 1916000   0.49729202    -8.078101     316.7616  0.013777036  0.012208679           12 
 1917000   0.48877666   -8.0643508    316.84255  0.013773368  0.012198994           25 
 1918000   0.48230221   -8.0743036    316.58587  0.013755034  0.012189324           16 
 1919000   0.49013297   -8.0903843    316.90816  0.013761862  0.012179657           22 
 1920000     0.485545   -8.0756148    317.06626  0.013761556  0.012170007           15 
 1921000   0.50014374   -8.0799604    316.74336  0.013740385  0.012160364           16 
 1922000   0.48582116   -8.0782309    316.51456  0.013723316  0.012150731           17 
 1923000   0.48135819   -8.0762654    316.40779  0.013711553  0.012141103           18 
 1924000   0.47116028   -8.1041279    316.67333  0.013715927   0.01213148           14 
 1925000   0.49772964   -8.0769495     316.9204  0.013719498  0.012121863           15 
 1926000   0.48514475   -8.0663135    316.52193  0.013695134  0.012112257           17 
 1927000   0.48565318   -8.0807786    316.98288  0.013707961  0.012102669           25 
 1928000   0.47179258   -8.0817245    316.76026  0.013691228  0.012093088           16 
 1929000   0.48271006   -8.0636594    316.34048  0.013665996  0.012083511           20 
 1930000   0.49218028   -8.0752251    316.78665   0.01367818   0.01207395           20 
 1931000   0.48203767   -8.0719607    316.95578  0.013678395  0.012064395           20 
 1932000   0.47845274   -8.0776976    316.03023  0.013631394  0.012054847           19 
 1933000   0.48043972    -8.074434    316.77217  0.013656328  0.012045317           15 
 1934000   0.47548669   -8.1006125    316.69777   0.01364606  0.012035792           21 
 1935000    0.4804989   -8.0707221    316.51421  0.013631103  0.012026274           12 
 1936000   0.47792593   -8.0927051    316.40832  0.013619504   0.01201677           18 
 1937000   0.47703303   -8.0727263    316.04272  0.013596744  0.012007269           12 
 1938000   0.48233443   -8.0968476    316.51836   0.01361018  0.011997785           18 
 1939000   0.47873831   -8.0857743     316.3006  0.013593803  0.011988299           18 
 1940000   0.48107051   -8.0843803    316.25853  0.013584989  0.011978829           18 
 1941000   0.46383788     -8.07491    316.67543  0.013595888   0.01196936           24 
 1942000   0.47605653   -8.0813676    316.71499  0.013590585  0.011959909           16 
 1943000   0.48356462   -8.0766364     316.6689  0.013581613  0.011950471           13 
 1944000   0.47406399   -8.0815095    315.89703  0.013541539  0.011941042           18 
 1945000   0.47082257   -8.0797289     316.6226  0.013565664  0.011931619           23 
 1946000   0.48157966   -8.0883174    316.34949  0.013546998  0.011922218           19 
 1947000   0.46968206   -8.0915529    316.52348  0.013547487  0.011912819           19 
 1948000   0.47027302   -8.0792895    316.90495  0.013556851  0.011903437           16 
 1949000   0.47527332   -8.0881494    316.39327  0.013528018  0.011894053           12 
 1950000   0.47811059   -8.0725708    316.38936  0.013520913  0.011884681           20 
 1951000   0.46918466   -8.0851406    316.47127  0.013517481   0.01187532           16 
 1952000   0.47921053   -8.0798694    316.86102  0.013527195  0.011865965           19 
 1953000   0.45870495   -8.0950314    316.24494  0.013493981  0.011856617           20 
 1954000    0.4795557   -8.0880957    316.27111  0.013488191  0.011847274           21 
 1955000   0.48005652   -8.1089472    316.27195  0.013481328  0.011837941           24 
 1956000   0.47503364   -8.0825481    316.34631  0.013477603  0.011828605           16 
 1957000   0.47160392   -8.0836697    316.77116  0.013488808  0.011819282           11 
 1958000   0.46842548   -8.0954646    316.33263  0.013463255   0.01180997           21 
 1959000    0.4661665   -8.0899343    316.36846  0.013457906  0.011800671           24 
 1960000   0.46800472   -8.0806555    315.87291  0.013429971  0.011791372           13 
 1961000   0.46429617   -8.1150767    316.33573   0.01344279  0.011782079           24 
 1962000   0.45989868   -8.1039138    316.07388  0.013424816  0.011772798           17 
 1963000   0.47857622   -8.1034187    316.26072  0.013425909   0.01176353           15 
 1964000   0.46084664   -8.0955787    316.13581  0.013413774  0.011754269           21 
 1965000   0.46441875   -8.0866812    316.15332   0.01340769  0.011745013           18 
 1966000   0.47404104   -8.0983306    316.61939  0.013420625  0.011735771           23 
 1967000   0.46408629    -8.097846    316.40438  0.013404693  0.011726546           23 
 1968000   0.46873135   -8.0994671    316.28965  0.013393024  0.011717317           14 
 1969000   0.45353907    -8.092463    316.28373  0.013385971  0.011708104           19 
 1970000   0.46252979    -8.106516    316.72558  0.013397867  0.011698898           20 
 1971000   0.46627345   -8.0955915     316.3216  0.013373989   0.01168971           11 
 1972000   0.47605719   -8.1141387    316.80639  0.013387694  0.011680524           18 
 1973000   0.46087468   -8.0977022    316.50455   0.01336816  0.011671335           16 
 1974000   0.46757148   -8.1113073    316.88898  0.013377616  0.011662164           21 
 1975000   0.46957513   -8.1237492    316.28598    0.0133454  0.011652998           20 
 1976000      0.47046   -8.0944646    316.47331  0.013346546  0.011643846           13 
 1977000    0.4528615   -8.1192957    316.31876  0.013333281  0.011634702           17 
 1978000   0.46163131    -8.108648    315.64349  0.013298091  0.011625563           21 
 1979000   0.46299082    -8.102618    315.93477  0.013303637  0.011616432           19 
 1980000   0.45491879   -8.1226772    316.05598  0.013302019  0.011607308           17 
 1981000   0.46233678   -8.1134417    315.61571  0.013276784  0.011598193           14 
 1982000   0.46111536   -8.1125552    316.04704  0.013288221  0.011589097           17 
 1983000   0.46219298   -8.1151818    316.02524  0.013280603  0.011580006           18 
 1984000   0.46696873   -8.0993316    316.53679  0.013295396  0.011570931           20 
 1985000   0.45601932   -8.1190035    316.10301  0.013270487  0.011561857           18 
 1986000   0.45228008   -8.1193851    315.89237  0.013254967  0.011552795           15 
 1987000   0.46332427   -8.1139881     316.1144  0.013257608   0.01154373            6 
 1988000   0.45959343   -8.1148517    315.91393  0.013242536  0.011534681           14 
 1989000   0.46224559   -8.1062845    315.94003  0.013236971   0.01152564           12 
 1990000   0.46844722   -8.1223787    316.18126  0.013240421  0.011516616           11 
 1991000   0.46026027   -8.1208745    315.88908  0.013221542  0.011507594           18 
 1992000   0.45184916   -8.1088352    315.81795  0.013211929  0.011498584           15 
 1993000    0.4640466    -8.109381    316.24812  0.013223286  0.011489571           19 
 1994000   0.45037625   -8.0996487    316.06578  0.013209034  0.011480572           19 
 1995000   0.45180563   -8.1112855    316.32507  0.013213244  0.011471581           17 
 1996000   0.46091254   -8.1086778    316.33911  0.013207211  0.011462601           21 
 1997000    0.4687581   -8.1085173    316.14526  0.013192508  0.011453627           19 
 1998000   0.45501596   -8.1243724    316.19893  0.013188144  0.011444663           17 
 1999000   0.45411921   -8.1211748    316.17849  0.013180694  0.011435709           17 
 2000000   0.45254701   -8.1132188      315.946  0.013164417  0.011426769           19 
 2001000   0.45774215   -8.1203551    316.13151  0.013165563  0.011417831           14 
 2002000   0.45594888   -8.1399446     315.5062  0.013132959  0.011408893           20 
 2003000   0.45329246   -8.1160354    315.82002  0.013139458  0.011399968           27 
 2004000   0.43615486   -8.1152394    316.31169  0.013153347   0.01139106           21 
 2005000   0.45154004    -8.115161    316.11658  0.013138677  0.011382152           19 
 2006000   0.44741736   -8.1124931     315.4109  0.013102812  0.011373252           21 
 2007000   0.45930045   -8.1083324    315.62026  0.013104977   0.01136436           18 
 2008000   0.46056346   -8.1289865    316.28682  0.013126113  0.011355483           18 
 2009000   0.44859508   -8.1214499    316.96224  0.013147596  0.011346613           14 
 2010000   0.44847747   -8.1140404     316.4145  0.013118346  0.011337747           15 
 2011000   0.45478913   -8.1230841     315.9155  0.013091145  0.011328885           13 
 2012000   0.44832018   -8.1289606    315.68884   0.01307525   0.01132004           27 
Loop time of 4491.13 on 48 procs for 2000000 steps with 4000 atoms

Performance: 76951.601 tau/day, 445.322 timesteps/s
99.4% CPU use with 48 MPI tasks x no OpenMP threads

MPI task timing breakdown:
Section |  min time  |  avg time  |  max time  |%varavg| %total
---------------------------------------------------------------
Pair    | 296.8      | 308.26     | 322.08     |  36.2 |  6.86
Neigh   | 29.113     | 30.002     | 30.956     |   8.7 |  0.67
Comm    | 271.69     | 287.21     | 300.29     |  41.5 |  6.40
Output  | 4.0808     | 4.0828     | 4.1176     |   0.3 |  0.09
Modify  | 3807.8     | 3818       | 3829.2     |   8.3 | 85.01
Other   |            | 43.62      |            |       |  0.97

Nlocal:        83.3333 ave          92 max          76 min
Histogram: 4 6 4 1 5 16 6 4 0 2
Nghost:        1906.77 ave        1937 max        1889 min
Histogram: 2 9 11 4 9 9 2 0 1 1
Neighs:        11970.9 ave       13178 max       10878 min
Histogram: 5 5 2 11 5 4 4 2 6 4
FullNghs:      23941.0 ave       26772 max       21671 min
Histogram: 4 8 2 2 11 10 7 1 1 2

Total # of neighbors = 1149167
Ave neighs/atom = 287.29175
Neighbor list builds = 107510
Dangerous builds = 0

#clear
#
#next RN
#
#jump SELF
Total wall time: 1:14:54
