
units lj                  # Use reduced LJ style units
atom_style atomic         # Uncharged point particles
atom_modify map hash      # Needed for indexing of clusters etc
                          # Used to be able to find where atoms are in relation to each other.

lattice fcc 1.0 spacing 1 1 1
Lattice spacing in x,y,z = 1.5874011 1.5874011 1.5874011
region box block 0 10 0 10 0 10 units lattice
create_box 2 box
Created orthogonal box = (0.0000000 0.0000000 0.0000000) to (15.874011 15.874011 15.874011)
  3 by 4 by 4 MPI processor grid
create_atoms 1 box
Created 4000 atoms
  using lattice units in orthogonal box = (0.0000000 0.0000000 0.0000000) to (15.874011 15.874011 15.874011)
  create_atoms CPU = 0.016 seconds
set type 1 type/fraction 2 0.72 78393
Setting atom values ...
  2894 settings made for type/fraction
mass 1 1.0
mass 2 1.0
pair_style lj/cut  3.5
pair_modify tail  yes
pair_coeff 1  1  1.0  1.0   # Intearaction between 1 and 1 set with epsilon = 1 and sigma = 1
pair_coeff 1  2  1.5  0.8
pair_coeff 2  2  0.5  0.88

write_data data.0
System init for write_data ...
Neighbor list info ...
  update every 1 steps, delay 10 steps, check yes
  max neighbors/atom: 2000, page size: 100000
  master list distance cutoff = 3.8
  ghost atom cutoff = 3.8
  binsize = 1.9, bins = 9 9 9
  1 neighbor lists, perpetual/occasional/extra = 1 0 0
  (1) pair lj/cut, perpetual
      attributes: half, newton on
      pair build: half/bin/atomonly/newton
      stencil: half/bin/3d
      bin: standard
WARNING: Not all mixed pair coeffs generated from mixing. Use write_data with 'pair ij' option to store all pair coeffs. (../write_data.cpp:312)


#############################
#   M E L T   S Y S T E M   #
#############################

velocity all create 2.4 1741580 mom yes dist gaussian # Assign velocities
                                                    # Temperature 2.4, random number seed, zero linear momentum
                                                                                # Gaussian distribution

timestep 0.002   # simulation timestep
thermo 1000       # output thermodynamic data every 1000 steps bf 100

# Define a fix  in this case with index 1 applied to all
# particles in the simulation. This fix is for simulations
# in the anisotropic NPT ensemble. Note that we use the MTK
# correction.
fix 1 all npt temp 2.4 2.4 0.1 iso 5.68 5.68 0.5 mtk yes tchain 5 pchain 5 # Use NPT ensemble
                                                                         # Set temperature and pressure and damping
                                                                         # Numbers of thermostats in chain and in barostat
run 10000          # run for 10000 steps
Per MPI rank memory allocation (min/avg/max) = 3.642 | 3.644 | 3.648 Mbytes
Step Temp E_pair E_mol TotEng Press Volume 
       0          2.4   -4.0785584            0  -0.47945841   -3.6688173         4000 
    1000    2.3800507   -3.6631033            0 -0.093919777     5.522338    3692.9416 
    2000    2.4889648   -3.6017088            0   0.13080511    5.9168659    3685.8527 
    3000    2.3853743   -3.6010809            0 -0.023913956    5.7889312    3699.2116 
    4000    2.3559516   -3.6268795            0  -0.09383556     5.400365    3714.6568 
    5000    2.3485118    -3.620655            0 -0.098767903    5.7815393    3683.5893 
    6000    2.3373301   -3.6324073            0  -0.12728868    5.2657793    3713.9842 
    7000    2.4276059   -3.6703949            0 -0.029896391    5.6740046    3677.5914 
    8000    2.3998166   -3.6450738            0 -0.046248848    5.5932936    3698.7212 
    9000    2.4263945   -3.6561818            0 -0.017500005    5.7710871      3668.15 
   10000    2.4127427    -3.643014            0 -0.024804663    6.0182323    3646.7213 
Loop time of 2.69936 on 48 procs for 10000 steps with 4000 atoms

Performance: 640151.129 tau/day, 3704.578 timesteps/s
99.6% CPU use with 48 MPI tasks x no OpenMP threads

MPI task timing breakdown:
Section |  min time  |  avg time  |  max time  |%varavg| %total
---------------------------------------------------------------
Pair    | 1.182      | 1.2601     | 1.4967     |   4.0 | 46.68
Neigh   | 0.21536    | 0.22572    | 0.26127    |   1.5 |  8.36
Comm    | 0.6967     | 0.92172    | 1.0191     |   6.6 | 34.15
Output  | 0.00025129 | 0.00025793 | 0.00033062 |   0.0 |  0.01
Modify  | 0.21366    | 0.27595    | 0.35594    |   8.7 | 10.22
Other   |            | 0.0156     |            |       |  0.58

Nlocal:        83.3333 ave          93 max          75 min
Histogram: 1 6 3 11 5 9 5 6 1 1
Nghost:        1742.10 ave        1767 max        1715 min
Histogram: 1 5 3 4 8 8 9 4 4 2
Neighs:        10461.9 ave       11799 max        8804 min
Histogram: 1 2 2 5 9 11 7 6 3 2

Total # of neighbors = 502173
Ave neighs/atom = 125.54325
Neighbor list builds = 910
Dangerous builds = 221

# Equilibrate just above the melting temperature to avoid step fn in T

fix 1 all npt temp 1.25 1.25 0.1 iso 5.68 5.68 0.5 mtk yes tchain 5 pchain 5
run 2000
Per MPI rank memory allocation (min/avg/max) = 3.644 | 3.646 | 3.649 Mbytes
Step Temp E_pair E_mol TotEng Press Volume 
   10000    2.4127427    -3.643014            0 -0.024804663    6.0182323    3646.7213 
   11000    1.2308064   -5.3857333            0   -3.5399852    5.6147764     2814.093 
   12000    1.2619341   -5.4338318            0   -3.5414038    5.9188362    2779.3663 
Loop time of 0.660385 on 48 procs for 2000 steps with 4000 atoms

Performance: 523331.398 tau/day, 3028.538 timesteps/s
99.6% CPU use with 48 MPI tasks x no OpenMP threads

MPI task timing breakdown:
Section |  min time  |  avg time  |  max time  |%varavg| %total
---------------------------------------------------------------
Pair    | 0.30689    | 0.32428    | 0.3536     |   2.0 | 49.10
Neigh   | 0.043183   | 0.044838   | 0.048155   |   0.5 |  6.79
Comm    | 0.20841    | 0.24034    | 0.26224    |   2.6 | 36.39
Output  | 5.2733e-05 | 5.3994e-05 | 7.0406e-05 |   0.0 |  0.01
Modify  | 0.041558   | 0.045934   | 0.050921   |   1.2 |  6.96
Other   |            | 0.004933   |            |       |  0.75

Nlocal:        83.3333 ave          90 max          73 min
Histogram: 1 0 3 0 10 10 4 10 8 2
Nghost:        2101.40 ave        2120 max        2084 min
Histogram: 1 4 5 7 8 9 6 4 1 3
Neighs:        13744.3 ave       15154 max       11966 min
Histogram: 2 2 2 4 9 8 8 6 3 4

Total # of neighbors = 659728
Ave neighs/atom = 164.93200
Neighbor list builds = 146
Dangerous builds = 16

#############################
# L I N E A R  Q U E N C H  #
#############################

# Define solid atoms. This closely follows ten Wolde  Ruiz-Montero and Frenkel  Faraday Discuss  1996  104  93-110
# Compute components of the per-atom q6 vector
compute q6 all orientorder/atom degrees 1 6 components 6 nnn NULL cutoff 1.3 # compute the Q6 parameter.
                                                                             # Use all neighbours within 1.3 unit cell.

# get number of connections
compute coord_number all coord/atom orientorder q6 0.5

# An atom is solid if it has 8 or more connections (of a possible 14)
variable is_solid atom c_coord_number>=8
group solid dynamic all var is_solid    # Must be dynamic to update
dynamic group solid defined

# do clustering
compute cluster solid cluster/atom 1.3 # Create a cluster where all atoms within are solid and max 1.3 units from another member

# define chunks one chunk per cluster
compute clus_chunks solid chunk/atom c_cluster nchunk every compress yes  # Says which atoms are in which chunk

# count the size of each chunk
compute size_chunks solid property/chunk clus_chunks count


# Find the maximum entry in the vector of chunk sizes
variable max_n equal max(c_size_chunks)


# Thermo style which includes this variable
# thermo_style custom step temp pe vol v_max_n

thermo ${N}  # Print the thermo information every 100 steps
thermo 1000  

# Reset the npt fix at a lower temperature (below freezing)
fix 1  all npt temp  ${temp} ${temp}  0.1  iso  5.68  5.68  0.5  mtk yes tchain  5  pchain  5
fix 1  all npt temp  0.45 ${temp}  0.1  iso  5.68  5.68  0.5  mtk yes tchain  5  pchain  5
fix 1  all npt temp  0.45 0.45  0.1  iso  5.68  5.68  0.5  mtk yes tchain  5  pchain  5

dump dmp2 all dcd ${N} traj.dcd
dump dmp2 all dcd 1000 traj.dcd


compute msd all msd com yes
variable twopoint equal c_msd[4]/6/(step*dt+1.0e-6)
fix 9 all vector 10 c_msd[4]
variable fit equal slope(f_9)/6/(10*dt)
thermo_style custom step temp pe c_msd[4] v_twopoint v_fit v_max_n

fix 1 all npt temp 1.25 ${temp} 0.1 iso 5.68 5.68 0.5 mtk yes tchain 5 pchain 5
fix 1 all npt temp 1.25 0.45 0.1 iso 5.68 5.68 0.5 mtk yes tchain 5 pchain 5
run 2000000 # 5000000  # Run for this many steps
Neighbor list info ...
  update every 1 steps, delay 10 steps, check yes
  max neighbors/atom: 2000, page size: 100000
  master list distance cutoff = 3.8
  ghost atom cutoff = 3.8
  binsize = 1.9, bins = 8 8 8
  4 neighbor lists, perpetual/occasional/extra = 1 3 0
  (1) pair lj/cut, perpetual
      attributes: half, newton on
      pair build: half/bin/atomonly/newton
      stencil: half/bin/3d
      bin: standard
  (2) compute orientorder/atom, occasional
      attributes: full, newton on
      pair build: full/bin/atomonly
      stencil: full/bin/3d
      bin: standard
  (3) compute coord/atom, occasional
      attributes: full, newton on
      pair build: full/bin/atomonly
      stencil: full/bin/3d
      bin: standard
  (4) compute cluster/atom, occasional
      attributes: full, newton on
      pair build: full/bin/atomonly
      stencil: full/bin/3d
      bin: standard
Per MPI rank memory allocation (min/avg/max) = 9.844 | 9.851 | 9.855 Mbytes
Step Temp PotEng c_msd[4] v_twopoint v_fit v_max_n 
   12000    1.2619341   -5.4338318            0            0 8.3333333e+20            4 
   13000    1.2761004   -5.3851001   0.66492507   0.00426234  0.055065066            1 
   14000     1.256982   -5.4170908    1.3301343 0.0079174656  0.055265507            2 
   15000       1.2478   -5.3997135    1.9825945  0.011014413  0.054722453            2 
   16000    1.2380154   -5.3921283    2.6379139  0.013739134   0.05498715            3 
   17000    1.2461142   -5.4331181    3.3148775  0.016249399  0.054894646            1 
   18000    1.2554586   -5.3968541    3.9264834  0.018178163   0.05475696            2 
   19000    1.2632699   -5.4045171    4.5899182   0.02013122  0.054410448            3 
   20000    1.2278325   -5.4343289    5.2979094  0.022074622  0.054488458            2 
   21000    1.2536923   -5.4485395     5.845563  0.023196678  0.054501097            1 
   22000    1.2595886   -5.4195068    6.4635139  0.024483007   0.05411062            1 
   23000    1.2261247     -5.43577     7.079479  0.025650286  0.053789795            2 
   24000    1.2323711   -5.3824882    7.7959926  0.027069418  0.053636584            3 
   25000    1.2431845   -5.4065205    8.3318315  0.027772771  0.053450762            4 
   26000    1.2309915   -5.4554858    8.8638261  0.028409698  0.053146863            2 
   27000    1.2403338   -5.4310029    9.4992809  0.029318768  0.052795973            3 
   28000    1.2420215   -5.4431825    10.127138  0.030140292  0.052553553            1 
   29000     1.237832    -5.464365    10.751019  0.030893731  0.052480603            3 
   30000    1.2198805    -5.419318    11.519006  0.031997239  0.052473048            4 
   31000    1.2676111   -5.4267056    12.218523  0.032845493  0.052633441            1 
   32000     1.263399   -5.4581857    12.935212  0.033685448  0.052831484            2 
   33000    1.2529178    -5.438074    13.558124  0.034237687  0.053040446            2 
   34000    1.2369018   -5.4429875    14.097215  0.034551997  0.053090062            6 
   35000     1.233692   -5.4870506    14.551326  0.034646013  0.053032606            3 
   36000    1.2554564   -5.4121442     15.16407  0.035102014  0.052905011            2 
   37000    1.2377029   -5.4449718    15.773482  0.035525859  0.052773219            4 
   38000    1.2187383   -5.4550628    16.313069  0.035774275  0.052594109            4 
   39000    1.2075853   -5.4744153    16.902765  0.036117019  0.052424284            2 
   40000    1.2383964     -5.42857    17.534957   0.03653116  0.052286372            2 
   41000    1.2396464   -5.4583623    17.949852  0.036483438  0.052140416            2 
   42000    1.2315407   -5.4394039    18.643171  0.036990418  0.051960374            2 
   43000    1.2556613   -5.4491918    19.364198  0.037527516  0.051859511            4 
   44000    1.2324354    -5.436582    20.133106  0.038130882   0.05181286            2 
   45000    1.2350981   -5.5217112    20.474442  0.037915634  0.051760778            4 
   46000    1.2842338   -5.4809722     21.00689   0.03805596  0.051668946            3 
   47000    1.2713315   -5.4358406     21.68242  0.038444008  0.051559045            1 
   48000    1.2647548   -5.4653304    22.230397  0.038594438   0.05146965            2 
   49000    1.2421389   -5.3821934    22.964614  0.039055465  0.051402358            1 
   50000    1.1974166    -5.445389    23.703488  0.039505812  0.051372235            2 
   51000     1.215391   -5.4912589    24.109797  0.039395092  0.051326077            2 
   52000    1.2500155    -5.425963    24.990354  0.040048645  0.051288941            1 
   53000    1.2513426   -5.4136378    25.473853  0.040053227    0.0512681            1 
   54000    1.2369638    -5.487549    26.022666  0.040158435  0.051232071            2 
   55000    1.2217858   -5.4539096    26.772859  0.040564938  0.051217556            5 
   56000    1.2436476   -5.4802821    27.150127  0.040401974  0.051208697            2 
   57000    1.2467373   -5.5154625    27.745295  0.040563296  0.051186167            3 
   58000    1.2298445     -5.47706    28.426724  0.040842994  0.051159022            3 
   59000     1.208092   -5.4781259    28.986822  0.040941839  0.051146203            5 
   60000    1.2384478    -5.441122    29.623093  0.041143185  0.051119525            1 
   61000     1.230735    -5.434799    30.301689   0.04139575  0.051084593            1 
   62000    1.2165252   -5.4436857    30.716018   0.04128497  0.051057154            3 
   63000    1.2235858   -5.4683137    31.385525  0.041515244  0.051016296            3 
   64000    1.2301624   -5.4520158    32.241367  0.041980946   0.05099166            2 
   65000    1.2104199   -5.4626726     32.50249  0.041669859  0.050952903            2 
   66000    1.2122721   -5.4912094    32.906218  0.041548254  0.050906459            4 
   67000    1.2065679   -5.4876058    33.551988  0.041731328  0.050848644            3 
   68000    1.2411026   -5.4687245    34.169026  0.041873806  0.050788241            2 
   69000    1.2216685   -5.4763015    34.701158  0.041909611  0.050720386            3 
   70000    1.2260387    -5.471726    35.300691  0.042024632  0.050657861            3 
   71000    1.2430457   -5.4800155    35.925064  0.042165568  0.050597589            1 
   72000    1.2307812   -5.4479164    36.559923  0.042314725  0.050553717            2 
   73000     1.244132   -5.4502435    37.056079   0.04230146  0.050496464            1 
   74000    1.2239467    -5.502777    37.536393  0.042270713  0.050445419            4 
   75000    1.2237189   -5.4770814    38.272915  0.042525461  0.050403246            2 
   76000    1.2419993   -5.4383307    39.060488  0.042829482  0.050378052            1 
   77000    1.2160693   -5.4629623    39.670483  0.042933423  0.050371531            3 
   78000    1.2296135   -5.4092183    40.303879    0.0430597   0.05036272            2 
   79000    1.2211555   -5.4682914    40.783247  0.043020302  0.050342915            1 
   80000    1.2117948   -5.4860994    41.441033  0.043167743  0.050332665            3 
   81000    1.2311784   -5.4339022     41.95106  0.043159526  0.050307503            3 
   82000    1.2099616   -5.4832464    42.557876  0.043249874    0.0502789            2 
   83000    1.2411354   -5.5007119    43.245028  0.043418702  0.050262638            3 
   84000    1.1949084   -5.4931869    43.959162   0.04361028  0.050269063            3 
   85000    1.2302379   -5.4454606     44.65984  0.043784156   0.05028204            1 
   86000    1.1904921   -5.4762273    45.202943  0.043801301  0.050289766            3 
   87000    1.2321018   -5.4385128    46.074892  0.044133038  0.050307797            2 
   88000    1.2189621   -5.3957158    46.573489  0.044103683  0.050317338            4 
   89000    1.2367561   -5.4724759    46.966738  0.043976346  0.050325017            1 
   90000    1.2083351   -5.5340574    47.264258  0.043763201  0.050303405            2 
   91000    1.2147343   -5.5002447    47.762195  0.043738274   0.05028512            5 
   92000    1.2262396   -5.4742131    48.396674  0.043837567  0.050256904            3 
   93000    1.1884618   -5.4669805    49.247376  0.044128473  0.050235947            2 
   94000    1.1912379   -5.4659761    50.120618  0.044433172  0.050230648            2 
   95000    1.2061402   -5.5283157    50.518846  0.044314777  0.050239615            4 
   96000    1.2019508   -5.4871701    51.050771  0.044314905  0.050234173            2 
   97000    1.2186019   -5.4444226    51.628196   0.04435412  0.050220443            1 
   98000    1.1952926   -5.4810642    52.259014  0.044437937   0.05021285            1 
   99000    1.2168536   -5.5022397    52.823922   0.04446458  0.050203458            2 
  100000    1.1944237   -5.5070715     53.56495  0.044637458  0.050193908            1 
  101000    1.2137212   -5.5409938    54.036799  0.044584817  0.050189232            1 
  102000    1.2074087   -5.4696207    54.578881  0.044590589  0.050181636            3 
  103000    1.2260274   -5.4792105    55.337541  0.044771473  0.050172321            3 
  104000    1.2280242   -5.5263606    55.572756  0.044529451  0.050162676            4 
  105000    1.2262374   -5.4727474    56.364918  0.044734062   0.05014532            1 
  106000    1.2063059   -5.4730167    56.906902   0.04473813  0.050127988            1 
  107000    1.2331427   -5.4948754    57.324489  0.044645241   0.05011627            4 
  108000    1.1789606   -5.4883403    58.213013  0.044917448  0.050110887            1 
  109000      1.20576   -5.5441944    58.760811  0.044924167  0.050106987            4 
  110000    1.2080746   -5.5305102    59.476564  0.045058003  0.050103508            4 
  111000     1.202797   -5.4739899    60.097765  0.045118442  0.050103498            2 
  112000    1.1957676   -5.5433523    60.578561  0.045073334  0.050098699            4 
  113000    1.2226797    -5.490081    61.337354  0.045234036  0.050100242            4 
  114000    1.2131794   -5.5347268    62.033541  0.045346155  0.050108553            3 
  115000    1.2015253   -5.5074748    63.007826  0.045657845  0.050123451            5 
  116000    1.2165437   -5.4936202     63.39593  0.045543053  0.050135189            2 
  117000    1.1907673   -5.5072336    63.784494  0.045430551  0.050142473            4 
  118000    1.2124591   -5.4625157    64.525369  0.045568763   0.05014019            3 
  119000    1.2114027   -5.5225228    64.799194  0.045377587  0.050143735            2 
  120000    1.1930167   -5.4901549    65.456087  0.045455616    0.0501427            1 
  121000    1.2093092   -5.5027081     65.86557  0.045361963  0.050140792            2 
  122000    1.2010729   -5.4973259    66.444823  0.045385808  0.050127748            5 
  123000    1.1978491   -5.5687848     66.85949  0.045297757  0.050113238            2 
  124000    1.2155122   -5.5055907    67.582031  0.045418031  0.050102472            1 
  125000    1.1900738   -5.4852053     68.41746   0.04561164   0.05010458            5 
  126000    1.2003478   -5.5094844    69.238077  0.045792379  0.050108853            2 
  127000    1.2084545   -5.5335179    69.822938  0.045815576  0.050109293            4 
  128000    1.1882713   -5.5223753    70.082427   0.04562658  0.050103158            5 
  129000    1.2110179   -5.5569832    70.503343  0.045544795  0.050096346            3 
  130000    1.2138992   -5.5210859    71.092706  0.045572247  0.050085672            3 
  131000    1.2257739   -5.5293548    72.005032  0.045804728  0.050082192            2 
  132000    1.1864915   -5.4883308    72.325966  0.045660332  0.050078485            1 
  133000    1.2158262   -5.5165211    72.957561  0.045712757  0.050066583            3 
  134000    1.2003587    -5.567883     73.34841  0.045614683  0.050052869            2 
  135000    1.2130832   -5.5429504     73.76232  0.045532296  0.050034927            3 
  136000    1.1819475   -5.5359934    74.696924  0.045770174  0.050021937            6 
  137000    1.1784054   -5.5781911     75.30784  0.045807689  0.050015574            4 
  138000    1.1903128   -5.5427732    75.968964  0.045874978   0.05001332            3 
  139000     1.195162   -5.5290032    76.803493   0.04604526  0.050011534            5 
  140000    1.1799739   -5.5532815    77.507856  0.046135629  0.050014435            2 
  141000     1.205132   -5.5079854     78.29421  0.046273174  0.050015004            3 
  142000    1.1730619   -5.5060586     78.49274  0.046063814  0.050013577            8 
  143000    1.1994566   -5.5032884    79.483351  0.046318969  0.050013021            2 
  144000    1.1649422   -5.5211714    79.935326  0.046258869   0.05001627            4 
  145000    1.2035037   -5.5532855    80.518868  0.046275211  0.050022759            2 
  146000    1.1978848   -5.4915273    81.141126  0.046313428  0.050019051            2 
  147000    1.2081111   -5.4833384    81.593981  0.046255091  0.050012376            4 
  148000    1.2073623   -5.5596807    81.548404  0.045916894  0.049998009            1 
  149000    1.1742067   -5.5051818     82.53924  0.046162886  0.049983848            3 
  150000    1.2061192   -5.5551362    82.422719  0.045790399  0.049967805            2 
  151000    1.1759174     -5.54932    83.186495  0.045908661  0.049949115            4 
  152000    1.1985325     -5.50963    83.905215  0.046000666  0.049929378            3 
  153000    1.1921935   -5.5670299    84.362993  0.045949342  0.049911235            7 
  154000     1.179369   -5.5330988    85.109087  0.046054701  0.049898057            4 
  155000    1.2105085    -5.552579    85.729537  0.046091149  0.049884906            4 
  156000    1.1556677   -5.5714156    86.102584   0.04599497   0.04987066            3 
  157000    1.2115683   -5.5262871    86.554789  0.045942032  0.049854224            3 
  158000    1.2008595   -5.5412615    87.434541  0.046115264  0.049840756            2 
  159000    1.1841504   -5.5698883    87.904934  0.046071768  0.049825743            2 
  160000    1.1762387   -5.5471298    88.816086  0.046258378  0.049808611            3 
  161000    1.1917508   -5.5359501    89.283156  0.046212814   0.04979226            1 
  162000    1.1773214    -5.515948    89.713697  0.046149021  0.049779172            3 
  163000    1.2284349   -5.5295684    90.048247  0.046036936  0.049768012            2 
  164000    1.1697626   -5.5441211    90.591227  0.046032127  0.049750773            7 
  165000    1.2251104   -5.5414612    92.076317   0.04650319  0.049741619            2 
  166000     1.186875    -5.592576    92.036505  0.046203065   0.04973362            4 
  167000    1.1948969   -5.5287737    93.274061  0.046543942   0.04972542            4 
  168000    1.1750035   -5.5394876    93.549432  0.046403488  0.049718529            4 
  169000    1.2098981   -5.5349463      94.2645  0.046481509   0.04971051            1 
  170000    1.1592145   -5.5620793     94.85802   0.04649903  0.049703432            5 
  171000    1.1869241   -5.5490138    95.402915  0.046492649     0.049697            1 
  172000    1.1802318    -5.516315     95.59241  0.046314152  0.049685312            2 
  173000    1.2108904   -5.5359557    96.076973  0.046279852  0.049678111            2 
  174000    1.2131968   -5.5722149    96.973007  0.046443011  0.049667327            2 
  175000    1.1930939   -5.5823056     97.13152  0.046253105  0.049655712            5 
  176000     1.204942   -5.5525619    98.173356  0.046483597  0.049646468            3 
  177000    1.1648292   -5.5366533    99.179308  0.046694589  0.049645122            3 
  178000    1.1778504   -5.5798313    99.511175  0.046587629  0.049640693            5 
  179000     1.181199   -5.5797773    100.08956  0.046596629  0.049636997            4 
  180000    1.1935964   -5.5182768     100.9215  0.046722918  0.049634599            3 
  181000    1.1775525   -5.5371249    101.24756  0.046614898  0.049631069            4 
  182000    1.1822657    -5.586924    102.12013  0.046758299  0.049628581            2 
  183000    1.1794935   -5.5512658    102.17569  0.046528091  0.049621816            1 
  184000    1.1581487   -5.5798313    102.73606  0.046529011  0.049609033            2 
  185000    1.1834986   -5.5875363    102.84602  0.046327034  0.049597818            1 
  186000    1.1691119   -5.5366497    104.00211  0.046595926  0.049589035            2 
  187000    1.1992216   -5.5997255    104.35872  0.046505668  0.049580563            3 
  188000    1.1774786   -5.6125704    104.52455  0.046331805  0.049569704            1 
  189000     1.197589   -5.5803902    104.99045  0.046292085  0.049556451            1 
  190000    1.1935364   -5.5977241    105.40173   0.04622883  0.049539029            2 
  191000     1.170494    -5.582028    106.05511  0.046271862  0.049519988            3 
  192000    1.1960467   -5.5558867    106.80005  0.046354186  0.049502655            1 
  193000    1.1660768   -5.6006652    106.78017  0.046105429  0.049483709            3 
  194000    1.1765343    -5.581043    107.38365  0.046126999  0.049464666            4 
  195000    1.2007014   -5.5791391    108.25766  0.046263957  0.049447439            2 
  196000    1.1771092   -5.5719852    108.84424  0.046277314  0.049430933            2 
  197000    1.1824216   -5.6170055    109.71364  0.046410171  0.049411585            4 
  198000    1.1711491   -5.5869931    110.27014  0.046409993  0.049396128            2 
  199000    1.1837001   -5.6272612    110.37091  0.046218975  0.049382061            4 
  200000     1.184449   -5.5982693    110.93014  0.046220893  0.049364794            2 
  201000    1.1779071   -5.5954912    111.80897  0.046355293  0.049347346            4 
  202000    1.1587016   -5.5920811    112.18119  0.046279367  0.049331929            4 
  203000    1.1661696   -5.5784865    112.55275  0.046203919  0.049315196            1 
  204000    1.1825575   -5.5825556     113.5613   0.04638942  0.049297656            2 
  205000    1.1864986   -5.6007239    113.56418  0.046164299  0.049280276            1 
  206000    1.1867436   -5.5875565    114.20986    0.0462014  0.049260422            3 
  207000    1.1503443   -5.5730604    115.04698  0.046315208  0.049239745            2 
  208000    1.1849606   -5.5408102    115.69368  0.046351634  0.049219362            2 
  209000    1.1816686   -5.6162119    115.62012  0.046100526  0.049200547            2 
  210000    1.1711642    -5.611716    116.29222  0.046147707  0.049180613            1 
  211000    1.1610225   -5.5501361     116.7864  0.046124172  0.049162402            1 
  212000     1.157474      -5.5865     117.2854  0.046102751  0.049142397            2 
  213000     1.161097   -5.6069343    118.08456  0.046198967  0.049121256            3 
  214000    1.1823027   -5.6021285    118.04952  0.045969439  0.049097552            5 
  215000    1.1670648   -5.5910534     118.4602  0.045914806  0.049068441            7 
  216000    1.1819124   -5.5340119    119.00175  0.045911168  0.049038702            2 
  217000    1.1497699   -5.5885414    119.37003  0.045841024  0.049008498            3 
  218000    1.1619337   -5.6224501    119.56834   0.04570655  0.048975142            3 
  219000    1.1735488   -5.6037179    119.64215  0.045525933  0.048940079            3 
  220000    1.1328929    -5.567444    120.46149  0.045629351  0.048906044            3 
  221000    1.1821737   -5.5843326    121.32509  0.045748524  0.048871949            1 
  222000    1.1729182   -5.6349403    120.79455  0.045343298   0.04883656            2 
  223000    1.1554256   -5.5724182    121.95106  0.045572144  0.048800206            2 
  224000    1.1259193   -5.6003851    122.40374  0.045537107  0.048765178            3 
  225000    1.1486922   -5.5880499     122.9362  0.045531927  0.048728868            4 
  226000    1.1616945   -5.5809226    123.27213  0.045454325   0.04869192            4 
  227000    1.1570245   -5.6187938    123.51598  0.045343605  0.048652469            2 
  228000    1.1793605   -5.6002993    124.38809  0.045463484  0.048617262            2 
  229000    1.1701573   -5.5896474    124.95644  0.045471777  0.048581856            2 
  230000    1.1597813   -5.6199637    125.33436  0.045411001  0.048548171            1 
  231000     1.150259   -5.6126406    125.94512  0.045434746  0.048516304            1 
  232000    1.1381116   -5.6295108     126.5842  0.045468463  0.048484549            1 
  233000    1.1592855   -5.5664012    127.62143  0.045644289  0.048456143            1 
  234000     1.158481   -5.6210072    128.11824  0.045626154  0.048426788            1 
  235000    1.1736379   -5.6032977    128.45482  0.045551354  0.048397349            2 
  236000    1.1667168   -5.5991982    128.84313  0.045495457  0.048367749            4 
  237000     1.151299   -5.6099248    129.59479   0.04556779  0.048339733            3 
  238000     1.171974   -5.6080415    130.01395  0.045523091  0.048312157            3 
  239000    1.1598445   -5.5986158     130.6866  0.045567156  0.048285264            3 
  240000    1.1603229   -5.6046769    131.06291  0.045507955  0.048257012            3 
  241000    1.1757242   -5.6498982    130.92755  0.045272322  0.048226774            2 
  242000    1.1641767   -5.6145283    131.94058  0.045434082  0.048197044            3 
  243000    1.1600854   -5.6232037    132.67028  0.045497353  0.048167056            1 
  244000    1.1448119   -5.6103456    132.99726   0.04542256  0.048138155            3 
  245000     1.128705   -5.6077658    133.98671  0.045573712  0.048112161            4 
  246000    1.1483303   -5.6171819     134.3203  0.045501455  0.048088694            4 
  247000    1.1320761   -5.5958927    134.97196    0.0455371   0.04806642            4 
  248000    1.1618636   -5.5978804    136.23082  0.045776486  0.048043547            4 
  249000    1.1495993   -5.5900129     136.8505  0.045800034  0.048023807            3 
  250000    1.1719615   -5.6481269    136.66405  0.045554685  0.048003607            2 
  251000     1.174568   -5.6571192    137.42893  0.045627136  0.047980324            2 
  252000    1.1713829   -5.6831648    137.55373  0.045487345  0.047957386            2 
  253000    1.1609565   -5.6271073     138.4768  0.045611594  0.047935544            1 
  254000    1.1376329   -5.5968791    139.13191  0.045646951  0.047913718            2 
  255000    1.1452211    -5.611217    139.36939  0.045545551   0.04789359            3 
  256000    1.1616474   -5.6226994    140.16234  0.045625761   0.04787128            2 
  257000    1.1676751   -5.6021466    140.26442  0.045481329  0.047847703            3 
  258000    1.1445758    -5.663691     140.7853  0.045473287  0.047823348            2 
  259000    1.1579245    -5.618403    141.14009   0.04541187  0.047800561            4 
  260000     1.148567   -5.6551233    142.24148  0.045590218  0.047777395            2 
  261000    1.1486302   -5.6352672    142.01387  0.045342869  0.047754794            3 
  262000    1.1629615   -5.6189497    143.52719  0.045651142  0.047734377            4 
  263000     1.140516    -5.608662    143.42577  0.045445427   0.04771507            3 
  264000    1.1447604   -5.6329648    144.14061  0.045498928   0.04769427            2 
  265000    1.1588504   -5.6583234    144.12714  0.045322999  0.047670735            3 
  266000    1.1581962     -5.58541    144.90999  0.045397866  0.047646521            2 
  267000    1.1264781   -5.6667081    145.23419  0.045329022  0.047623252            2 
  268000    1.1709011   -5.6448665    145.56083  0.045261454    0.0475998            4 
  269000    1.1417884   -5.6295511    146.50298  0.045385061  0.047575276            3 
  270000    1.1278959   -5.6399266    146.95994  0.045358007  0.047550313            2 
  271000    1.1610605   -5.6166533    147.51884  0.045362498  0.047527512            3 
  272000    1.1385664   -5.6524671    148.08396  0.045368861  0.047505022            3 
  273000    1.1732851   -5.6358836    148.51926  0.045335551  0.047482733            3 
  274000    1.1490906   -5.6492828    148.34609  0.045117422  0.047459121            9 
  275000    1.1689112   -5.6281967    149.41476  0.045277199  0.047434879            3 
  276000    1.1539789   -5.6761486    149.14717  0.045032358   0.04741114            4 
  277000    1.1312703   -5.6694926    150.17682  0.045179548  0.047385984            3 
  278000    1.1328949   -5.5972553     151.5335   0.04542371  0.047362013            3 
  279000      1.16437   -5.6118609    150.78819  0.045038289  0.047335071            2 
  280000     1.151464   -5.6416008     151.0564  0.044957262  0.047306122            2 
  281000     1.154759   -5.5843653    152.32517  0.045173538   0.04727993            2 
  282000    1.1390436   -5.6093792    152.07884  0.044940555  0.047254689            1 
  283000    1.1364479    -5.626693    152.76234  0.044983021  0.047228911            4 
  284000    1.1274389   -5.6684527    153.09448  0.044922089  0.047202497            4 
  285000    1.1283609   -5.6412364    154.10138  0.045058884  0.047177284            2 
  286000    1.1495693   -5.6383487    154.26546  0.044949144  0.047153602            2 
  287000    1.1163461   -5.6192376    154.99917  0.045005566  0.047127706            4 
  288000    1.1525258    -5.620782     154.7271  0.044770572  0.047101882            2 
  289000    1.1499274   -5.6561654    155.64209  0.044879495    0.0470746            3 
  290000    1.1266342   -5.6262957    155.72722  0.044749201  0.047046685            6 
  291000    1.1491972   -5.6401937    156.50078  0.044816948  0.047019033            5 
  292000    1.1381842   -5.6482028    157.28263  0.044886594  0.046992564            3 
  293000    1.1288598   -5.6491964    157.54199  0.044807163  0.046966114            3 
  294000    1.1251274   -5.6363585    157.98648  0.044780749  0.046938475            1 
  295000    1.1471803   -5.6887713    157.77325  0.044568715  0.046910455            4 
  296000    1.1501411   -5.6589632    158.94309  0.044747493  0.046882766            2 
  297000    1.1327832   -5.6759464    159.17223  0.044661118  0.046854507            3 
  298000    1.1201614   -5.6505165    159.50225  0.044603537  0.046826853            2 
  299000    1.1325237   -5.6612923    160.79651  0.044815081  0.046801634            4 
  300000    1.1190774   -5.6650591    161.01354  0.044725982  0.046776359            3 
  301000    1.1415962   -5.6697057    160.97003  0.044565346  0.046749226            3 
  302000    1.1197504   -5.6582601    161.58493  0.044587454  0.046722215            3 
  303000    1.1137594   -5.6699086     161.9794   0.04454879  0.046694556            2 
  304000     1.132963   -5.6665348    162.31358  0.044493855  0.046664506            2 
  305000    1.1209199   -5.6732805    162.57733  0.044420035  0.046633882            5 
  306000    1.1401961   -5.6624627    163.14946  0.044430681  0.046604821            4 
  307000     1.152112   -5.6789968    163.39942  0.044353805  0.046576413            2 
  308000     1.143593   -5.6650613    163.67218  0.044283599   0.04654631            3 
  309000    1.1193495   -5.6517628    165.09897  0.044525074  0.046518111            2 
  310000    1.1242132   -5.7255696     164.7645  0.044291531  0.046490873            3 
  311000     1.125187    -5.651952    166.25619  0.044548818  0.046464487            4 
  312000    1.1298784   -5.6151997    167.36803  0.044702999  0.046437484            2 
  313000     1.122671   -5.6879589    167.07111  0.044481127  0.046412947            2 
  314000    1.1292754   -5.6549292    167.59528  0.044478577  0.046386593            6 
  315000     1.110421   -5.6789373    167.44656  0.044298032  0.046359593            2 
  316000    1.1570247   -5.6595459    168.40143  0.044409659    0.0463325            4 
  317000    1.1118163   -5.6902022    168.20952  0.044219118  0.046306575            3 
  318000    1.1180907   -5.7101381    169.28269  0.044361292  0.046279793            2 
  319000    1.1322706   -5.6529507    169.76547  0.044348347  0.046252678            3 
  320000    1.1184234     -5.67509    170.56239  0.044417289  0.046227045            4 
  321000    1.1230542   -5.6703196    170.21015  0.044187474  0.046201603            2 
  322000     1.111522   -5.6888696    171.21908  0.044311356  0.046175174            6 
  323000    1.1251288   -5.6794853    170.54603  0.044000524  0.046146533            3 
  324000    1.1512877    -5.660192    171.75881  0.044176649  0.046117202            3 
  325000    1.1095146   -5.6806193    172.45136  0.044218298  0.046089503            2 
  326000    1.1024652   -5.6376734    172.54159  0.044105724  0.046062152            4 
  327000     1.129675   -5.7400731    172.28293  0.043904926  0.046033827            1 
  328000    1.1194358   -5.6934041    172.92643  0.043934559  0.046004417            3 
  329000    1.1211301   -5.7199613    173.46803  0.043938203  0.045975098            3 
  330000    1.1392577    -5.722775    173.28881  0.043759801   0.04594654            4 
  331000    1.1196189   -5.6839883    174.45195  0.043920431    0.0459159            2 
  332000      1.13237   -5.6564701    174.94437  0.043911739  0.045887534            1 
  333000    1.1112771   -5.6934809    175.21159  0.043846745  0.045859512            5 
  334000    1.1151703   -5.7038594    175.67307  0.043830606  0.045831466            4 
  335000    1.1253872   -5.6969517    176.76844  0.043972248  0.045803859            2 
  336000    1.1228632   -5.6838541    176.89913  0.043873793  0.045778304            4 
  337000    1.1393322   -5.6851584     177.8851  0.043987413  0.045752478            1 
  338000    1.1229172   -5.6762161    178.54405  0.044019736   0.04572767            3 
  339000    1.1151722   -5.6948951    179.00284  0.044002665   0.04570361            6 
  340000    1.1167763   -5.7024765    179.11555   0.04390087  0.045678887            2 
  341000    1.0916017   -5.6908609     179.4675  0.043858138   0.04565288            5 
  342000    1.1172152   -5.6962495    179.34696  0.043700526  0.045627139            4 
  343000    1.1046093   -5.7136401    180.26849   0.04379701   0.04560156            2 
  344000    1.1262116   -5.6667393    181.46063  0.043958486  0.045576096            2 
  345000    1.1273261   -5.6769785    182.28861  0.044031065   0.04555166            4 
  346000    1.1054715   -5.7008468    182.21887  0.043887011  0.045527348            2 
  347000    1.1105786    -5.646294    183.80795  0.044142158  0.045504971            2 
  348000    1.0917238   -5.6981443    183.05219  0.043834337  0.045483063            3 
  349000    1.1357437   -5.7156282     183.6794    0.0438585  0.045461522            2 
  350000    1.0934377   -5.7427029    183.82666  0.043768253  0.045438473            3 
  351000    1.0998923   -5.6973956    184.47689  0.043797933  0.045414631            2 
  352000    1.0793626   -5.6830765    184.77367  0.043743767  0.045391323            3 
  353000    1.1295298   -5.6899011    185.48742  0.043788342  0.045368177            2 
  354000    1.1010555   -5.6901373    186.03673  0.043793957  0.045345312            5 
  355000    1.0988776   -5.6883971    187.06573  0.043912144  0.045323932            3 
  356000    1.1117032   -5.7369015    186.85738  0.043740022   0.04530234           10 
  357000    1.1108697   -5.7209185     186.8586  0.043617787    0.0452787            4 
  358000    1.0907082   -5.6873841    188.19023   0.04380592  0.045254947            2 
  359000    1.1311311   -5.6803547    189.23085  0.043925451  0.045232956            3 
  360000    1.1440277   -5.7018462    189.04154  0.043759615  0.045211431            3 
  361000    1.1119999    -5.716351    189.45125  0.043732976  0.045189865            5 
  362000    1.1165902   -5.7346284    189.61682  0.043650281  0.045166435            4 
  363000     1.098541   -5.6779433    190.15863  0.043654415  0.045143164            2 
  364000    1.1186379   -5.6873832    190.84055  0.043690603  0.045121594            1 
  365000    1.1144099   -5.7086994    190.90101  0.043584706  0.045098403            2 
  366000    1.0924947    -5.721212    190.96216  0.043479544  0.045076003            5 
  367000    1.1076502    -5.741001    192.25555  0.043654757  0.045054129            3 
  368000    1.1266534   -5.7467426    191.71844  0.043414502  0.045031089            3 
  369000    1.0951909   -5.7086358    192.34161  0.043437581  0.045008459            2 
  370000    1.0946889   -5.7272456    193.05984  0.043481946  0.044984391            3 
  371000    1.0860708   -5.7145909    193.14394  0.043383635  0.044960154            2 
  372000    1.1152144   -5.7185451    194.32944   0.04353258  0.044935053            1 
  373000    1.1003634    -5.753319    194.34661  0.043419708  0.044910424            3 
  374000    1.0939969   -5.7869875    194.66826   0.04337528  0.044886241            3 
  375000    1.1032022   -5.7339647    194.96239  0.043324975  0.044861709            1 
  376000    1.0980488   -5.7057365    195.67604  0.043367917  0.044837341            3 
  377000    1.1063223   -5.7279835    195.88376  0.043298796   0.04481303            3 
  378000    1.0875234   -5.6877893    196.84231  0.043395571  0.044788215            7 
  379000    1.1085277   -5.7144336    196.33075   0.04316859   0.04476377            2 
  380000    1.0861038   -5.7695542    196.76907  0.043151113  0.044739584            5 
  381000    1.1237585   -5.7414741    197.75291  0.043253043  0.044714674            5 
  382000     1.115928   -5.7167756    197.45453  0.043074723  0.044690055            2 
  383000    1.0996553   -5.7430425    197.88205  0.043055276  0.044665042            3 
  384000    1.1245743   -5.7132922    198.73722  0.043128737  0.044640658            5 
  385000    1.1065895   -5.7381762     198.5653  0.042979502  0.044615231            1 
  386000    1.0792271   -5.7358083    199.26964  0.043020215  0.044588803            5 
  387000    1.1220322   -5.7567167    199.83581  0.043030966  0.044563302            2 
  388000     1.096252   -5.7122649    201.11188  0.043194132  0.044538508            6 
  389000    1.0768985   -5.7407315    201.55267  0.043177522  0.044514982            2 
  390000    1.0995104   -5.7331199    202.59647  0.043289843  0.044492137            3 
  391000    1.1148492   -5.7503615    202.70555  0.043202375  0.044469231            2 
  392000    1.1177012   -5.7706007    202.35964   0.04301863  0.044445929            4 
  393000    1.1220128   -5.7187843    202.42041  0.042922054  0.044422535            3 
  394000    1.0809063   -5.8168492    202.74875  0.042882561  0.044398319            5 
  395000    1.1021562   -5.7557998      203.337  0.042898101  0.044374346            4 
  396000    1.1099319   -5.7386779    204.95154  0.043129533   0.04435183            2 
  397000    1.0910261   -5.7475386    204.50168  0.042926464  0.044329087            3 
  398000    1.0882617   -5.7674363    204.98974    0.0429208  0.044306019            3 
  399000    1.0906437   -5.7741199    205.62398  0.042945694  0.044282547            3 
  400000    1.1314278   -5.7298113    206.73889  0.043070603  0.044259565            2 
  401000    1.1048591   -5.7300719    207.10387  0.043039042  0.044238003            4 
  402000    1.1068805   -5.7458537    207.05134  0.042921091  0.044216562            4 
  403000    1.1155975   -5.7479734     207.3079  0.042867639  0.044194403            4 
  404000     1.083429   -5.7591824    207.56794   0.04281517  0.044171758            2 
  405000    1.1071628   -5.7770882    207.58232  0.042712411   0.04414895            2 
  406000    1.0780298   -5.7862801    208.21523  0.042737117  0.044125686            2 
  407000    1.1000603    -5.749562    208.57064  0.042704881  0.044102592            3 
  408000    1.1070905    -5.708433    209.29861  0.042748899  0.044078994            7 
  409000    1.0861883   -5.7389018    209.34568  0.042653969  0.044055328            3 
  410000    1.0797162   -5.8182124    208.69516  0.042417715  0.044029786            3 
  411000    1.1012157   -5.7499146    210.12001  0.042603409  0.044004141            4 
  412000    1.1275642     -5.78343    209.60206  0.042395239  0.043978457            4 
  413000    1.1257037   -5.7787421    210.58311   0.04249054  0.043951632            4 
  414000    1.0852298   -5.7891081    210.25916  0.042322698  0.043924145            5 
  415000     1.107645   -5.7786417    211.15449  0.042400501  0.043896888            1 
  416000    1.0861492   -5.7754392      211.503  0.042368389      0.04387            2 
  417000    1.0830775    -5.744266    211.76606  0.042319356  0.043842483            2 
  418000    1.0802301   -5.7672902    212.05772   0.04227626  0.043815881            2 
  419000      1.07639   -5.7276704    214.18263  0.042597978  0.043789692            2 
  420000    1.0770161   -5.7836606    213.20709  0.042302993  0.043763334            8 
  421000    1.0757283   -5.7581756    213.64323  0.042288842  0.043737696            3 
  422000    1.0785053   -5.8167326    212.46422   0.04195581  0.043709099            3 
  423000    1.0836231   -5.7616455    214.43068  0.042244027  0.043681068            3 
  424000    1.0864801   -5.7563669    213.85169  0.042030599  0.043652011            3 
  425000    1.0702956   -5.7828673    213.67952  0.041897945  0.043623661            2 
  426000    1.0957771   -5.7533141    214.75556  0.042010086  0.043593331            4 
  427000    1.0795718   -5.7493954    214.94778  0.041949216  0.043564051            2 
  428000    1.0721276   -5.8177026    215.11019  0.041882826  0.043534669            3 
  429000    1.0579858   -5.7667148    215.41812  0.041845011  0.043504821            4 
  430000    1.0873659   -5.7853677    215.62921  0.041788607  0.043474304            3 
  431000    1.1047011   -5.7852923     215.5401  0.041674419   0.04344253            2 
  432000    1.0783296   -5.7810133    216.20933  0.041707046  0.043410777            2 
  433000    1.0907377    -5.803643    215.58351  0.041490283  0.043378676            2 
  434000    1.1049145    -5.816557    216.39539  0.041550574  0.043346751            4 
  435000    1.0746305   -5.7535147    217.41999   0.04165134  0.043314989            7 
  436000    1.0900484   -5.7754252    217.61209  0.041592524  0.043283789            2 
  437000    1.0722158   -5.7471933    218.18313   0.04160624   0.04325253            2 
  438000    1.0809756   -5.8234774    217.75281  0.041429378  0.043220689            4 
  439000    1.0832347   -5.7772266    218.39867  0.041457606  0.043188477            4 
  440000    1.0697419   -5.7491212    220.13082  0.041691443   0.04315758            3 
  441000    1.0923057   -5.7633705    219.00692  0.041384527  0.043127627            1 
  442000    1.0697942   -5.7639747    221.05307  0.041676671  0.043097972            2 
  443000    1.0553621   -5.7586266    220.64404   0.04150565  0.043068351            3 
  444000    1.0696289     -5.78638    221.24866  0.041525649  0.043039035            3 
  445000    1.0601006   -5.7569434    222.77329  0.041717844  0.043010537            6 
  446000    1.0990956   -5.8055543    221.28972  0.041347107  0.042982016            2 
  447000     1.114586   -5.7969454    222.26659  0.041436725  0.042953925            3 
  448000    1.0882405   -5.7782332     222.9125  0.041464378  0.042925896            2 
  449000     1.086522   -5.8137308    223.28312  0.041440817  0.042897719            5 
  450000    1.0827758   -5.7984283    224.05859  0.041492332  0.042869266            3 
  451000    1.0927912   -5.8123833      223.985  0.041386733   0.04283953            2 
  452000    1.0769365   -5.8111078     224.5051  0.041391058  0.042811528            2 
  453000    1.0594446   -5.8092928    225.03931  0.041397959  0.042782685            4 
  454000    1.0949491   -5.8293757    224.28243  0.041167846  0.042754451            4 
  455000    1.0647925   -5.7500348    226.02906  0.041397264  0.042726766            4 
  456000    1.0504547   -5.7763759    225.81693  0.041267713  0.042698993            3 
  457000     1.081098   -5.7804789    225.84073  0.041181752  0.042670259            8 
  458000    1.0791499   -5.7760533    226.51849  0.041215154  0.042640988            2 
  459000    1.0536355   -5.8231889    226.85834  0.041187062  0.042612639            8 
  460000    1.0727103   -5.8022452    227.77669  0.041263893  0.042584466            2 
  461000    1.0567439   -5.8108354    227.96411  0.041208263  0.042557727            4 
  462000    1.0852949   -5.7918365    228.77485  0.041265304  0.042529851            4 
  463000    1.0738935   -5.8023186    228.08126  0.041051342  0.042501864            4 
  464000     1.072604   -5.7985354    228.81168  0.041094051  0.042474293            3 
  465000    1.0793066   -5.8129936    230.19843  0.041254198   0.04244725            2 
  466000    1.0597535   -5.8600123     228.4779  0.040857993   0.04241885            7 
  467000     1.077471   -5.7901825    230.61667  0.041152153   0.04239131            9 
  468000    1.0768188   -5.7779016    230.67057   0.04107382  0.042364289            2 
  469000    1.0836044   -5.7732503    231.32577   0.04110266  0.042336976            2 
  470000    1.0488911   -5.7800429    231.34158  0.041018011   0.04230938            2 
  471000    1.0907705   -5.8167127    232.30786  0.041101886  0.042282975            5 
  472000    1.0522234   -5.8240628    231.90558  0.040943782  0.042255564            3 
  473000    1.0550963   -5.8089916    232.08799  0.040889356  0.042228811            4 
  474000    1.0257565    -5.805901    232.62684  0.040897827  0.042201536            2 
  475000    1.0822804   -5.8152797    233.28521  0.040927229  0.042173746            4 
  476000    1.0686202   -5.8218349    234.38263  0.041033373  0.042147868            5 
  477000    1.0399897   -5.8138622    234.98218  0.041052092  0.042121809            2 
  478000    1.0662102   -5.8147179    234.38729  0.040862499  0.042095446            2 
  479000    1.0776266   -5.8280936    234.97238   0.04087898  0.042069202            3 
  480000    1.0770476   -5.8534877      235.021  0.040802257   0.04204322            3 
  481000      1.04645   -5.8065539    236.35419  0.040948404  0.042017123            5 
  482000    1.0792268   -5.8218271    236.11894  0.040822776  0.041990695           10 
  483000    1.0461611   -5.8406099    235.42393  0.040618345  0.041963069            4 
  484000    1.0680836   -5.8252886    236.93583  0.040794736  0.041935361            4 
  485000    1.0482553   -5.8225343    236.65168    0.0406618  0.041908289            3 
  486000    1.0639979   -5.8510834    236.66331  0.040580129  0.041880982            3 
  487000    1.0467274   -5.8195154    237.01928  0.040557714  0.041852656            7 
  488000    1.0600018   -5.8393604    236.92047  0.040457731  0.041823866            3 
  489000    1.0620968   -5.8381154     237.3004   0.04043974  0.041795715            2 
  490000    1.0596151   -5.8132736     238.4166   0.04054704  0.041767944            2 
  491000    1.0801404   -5.8536061    237.62559  0.040330208  0.041739817            4 
  492000     1.043618   -5.8078607    239.26786  0.040526399  0.041711727            2 
  493000    1.0534743   -5.8187842     239.6392  0.040506964  0.041684155            4 
  494000    1.0798659   -5.8136506    240.53077  0.040575367  0.041657184            2 
  495000    1.0508062   -5.8666517    239.35074  0.040294737  0.041630756            2 
  496000    1.0311416   -5.8345864     240.2899  0.040371287  0.041603237            3 
  497000    1.0533843   -5.8796583    240.67359  0.040354392  0.041576457           10 
  498000    1.0501843   -5.8584877    241.63103  0.040433572  0.041549423            3 
  499000    1.0746706   -5.8533281    241.63375  0.040352997  0.041522691            4 
  500000    1.0821034    -5.814424    242.26073  0.040376788  0.041495544            4 
  501000    1.0674795   -5.8344797    242.16722  0.040280641  0.041468305            2 
  502000    1.0562802   -5.8257807    243.61375   0.04044053  0.041442171            3 
  503000    1.0560828   -5.8437867      243.137  0.040281147  0.041415467            3 
  504000    1.0523146   -5.8408467    243.95231   0.04033603  0.041388485            5 
  505000    1.0599551   -5.8366214    244.43504  0.040335816  0.041362125            3 
  506000    1.0556347   -5.8695525      244.264  0.040227932   0.04133564           11 
  507000     1.056923       -5.826     244.0922  0.040120349  0.041309141            3 
  508000    1.0474285   -5.8377029    244.80687  0.040158607  0.041282996            4 
  509000    1.0520528   -5.8313438    245.72905  0.040230689  0.041257049            2 
  510000    1.0588427   -5.8476575    246.08452  0.040209888   0.04123122            6 
  511000    1.0337774   -5.8505633    246.54073  0.040205598  0.041205907            2 
  512000    1.0387407   -5.8435233    246.95163  0.040193949    0.0411808            4 
  513000    1.0636298   -5.8417657    247.73926  0.040243544   0.04115585            4 
  514000    1.0450658   -5.8419249    248.49668  0.040288048  0.041131725            4 
  515000      1.02164   -5.8427296    249.11061   0.04030916  0.041108144            5 
  516000    1.0631645   -5.8877748    248.40807  0.040117582  0.041085022            3 
  517000    1.0501344   -5.8533007    249.59394  0.040231132  0.041061312            5 
  518000     1.058466   -5.8795058    249.61002  0.040156052  0.041038031            4 
  519000    1.0417929   -5.8635241    250.52662  0.040225854  0.041014672            5 
  520000    1.0387948   -5.8647459    250.87467  0.040204275  0.040991607            2 
  521000    1.0394314   -5.8288108    250.40443  0.040051891  0.040968112            2 
  522000    1.0432114   -5.8511562    251.14916  0.040094054  0.040944975            4 
  523000    1.0476699   -5.8345416     251.6902    0.0401036  0.040920949            5 
  524000    1.0418223   -5.8483826     252.6601  0.040181313   0.04089805            3 
  525000    1.0503416   -5.8670518    251.44787  0.039912361  0.040874638            3 
  526000    1.0364386   -5.8556493    252.05791  0.039933129  0.040850225            8 
  527000    1.0458916   -5.8809141    251.44329  0.039760166  0.040826022            4 
  528000    1.0303342   -5.8560294    253.25423   0.03997068  0.040802001            4 
  529000    1.0720619   -5.8597643    252.68149  0.039804897  0.040778276            6 
  530000     1.046003   -5.8661393    253.63277  0.039879366   0.04075398            2 
  531000    1.0170206   -5.8504691    253.82956  0.039835147  0.040730611            2 
  532000    1.0259073   -5.8587075    255.10009  0.039959287  0.040706676            4 
  533000    1.0497431   -5.8572184    254.90623  0.039854007  0.040682774            1 
  534000    1.0331642   -5.8801244    255.26507  0.039835372  0.040659539            3 
  535000     1.039326   -5.8945574    255.45747  0.039790883  0.040636115            2 
  536000    1.0338979   -5.8510477    255.90074  0.039785563  0.040611603            3 
  537000    1.0320121   -5.8599014    255.67372  0.039676245  0.040587871            4 
  538000    1.0399377     -5.91473    256.10259  0.039668926   0.04056367            5 
  539000      1.04063   -5.8921146    256.71889  0.039690613  0.040539481            2 
  540000    1.0439852   -5.8912907    256.75305  0.039622384  0.040515328            3 
  541000    1.0492478   -5.8661426    257.29672   0.03963289   0.04049179            3 
  542000     1.032615   -5.8900688    257.16305  0.039539215  0.040467284            3 
  543000    1.0461447   -5.8890682    257.24744   0.03947935  0.040442407            2 
  544000    1.0381142   -5.8633308    258.33882  0.039573962  0.040417226            4 
  545000    1.0275328   -5.9229169    257.54571  0.039380078  0.040391974            5 
  546000    1.0380459   -5.8856082    258.11834  0.039395351  0.040367177            6 
  547000    1.0632824   -5.8900169      258.187   0.03933379  0.040342257            5 
  548000    1.0370045    -5.857358    258.80586  0.039356123   0.04031733            5 
  549000    1.0235603   -5.8884631     259.9921  0.039464496  0.040292193            3 
  550000     1.026607    -5.898226    260.65409  0.039493044  0.040268052            4 
  551000     1.039562   -5.8841117    259.73327  0.039282104  0.040242929            7 
  552000    1.0306423   -5.8489613    260.78279  0.039369382  0.040218844            2 
  553000    1.0183523   -5.9269438    260.54019  0.039261633  0.040193819            4 
  554000    1.0506771     -5.90218    260.49031  0.039183259   0.04016852            5 
  555000    1.0229844   -5.9161159    260.93234   0.03917903   0.04014256            2 
  556000    1.0380854    -5.902433    261.32215  0.039166989  0.040116503            4 
  557000    1.0262188   -5.9280484    260.93296  0.039038443   0.04009117            3 
  558000     1.040397   -5.9272074    260.49062  0.038902423  0.040065825            2 
  559000    1.0428294   -5.8788802    262.51286  0.039134296  0.040040649            8 
  560000    1.0360404    -5.919516    262.08457   0.03900068  0.040015389            2 
  561000    1.0087731   -5.9211711    262.53152  0.038997551  0.039989894            3 
  562000    1.0422497   -5.8859441    263.84616  0.039123096  0.039965308            2 
  563000    1.0134705   -5.8684548    264.05246  0.039084141  0.039940757            3 
  564000    1.0261185   -5.8816339    265.75194  0.039265949    0.0399168            5 
  565000    1.0173301   -5.8920582    265.63966  0.039179891   0.03989281           11 
  566000    1.0252182   -5.8831661    265.80556  0.039135094  0.039868448            4 
  567000    1.0118535   -5.8910443     266.1926  0.039122957   0.03984515            4 
  568000    1.0253424   -5.9315625    265.22012  0.038911403  0.039820955            4 
  569000    1.0295698   -5.9294224    265.95618  0.038950818  0.039797095            5 
  570000    1.0156394   -5.8600708     267.1512  0.039057193   0.03977332            4 
  571000    1.0198209    -5.898683    267.36184  0.039019534  0.039749196            8 
  572000    1.0216883   -5.9378947    266.89191  0.038882855   0.03972463            6 
  573000    1.0514218   -5.8971543    268.42556   0.03903804  0.039700813            5 
  574000    1.0178721   -5.9206309    267.90672  0.038894704  0.039676945            5 
  575000     1.040838   -5.8800686    267.96344  0.038835281  0.039653365            2 
  576000    1.0264746   -5.9217256    267.64504  0.038721795  0.039629845            3 
  577000    1.0079039   -5.8975402    269.10755  0.038865909  0.039606218            3 
  578000     1.022477   -5.9328848    268.85675  0.038762508  0.039581988            2 
  579000    1.0334404   -5.9017954    268.91422  0.038703832  0.039557663            3 
  580000    1.0355079   -5.8917038    270.63018  0.038883647  0.039533978            4 
  581000    1.0169164    -5.908305    270.38594   0.03878169  0.039509737            4 
  582000    1.0035443   -5.8792944    270.75191  0.038767455  0.039485649            3 
  583000    1.0110833   -5.9595393    270.15766  0.038616017  0.039461959            5 
  584000    1.0214196   -5.9263839    271.68674  0.038768085  0.039438467            2 
  585000    1.0357583   -5.9287702    272.41462  0.038805502  0.039415793            5 
  586000    1.0252225   -5.9321069    272.52558   0.03875506  0.039393267            5 
  587000     1.027374    -5.927827    272.17636   0.03863946  0.039369758            4 
  588000    1.0179422   -5.8973921    273.29901  0.038732853  0.039345907            4 
  589000    1.0141252   -5.9642865    272.13657  0.038502628  0.039321659            4 
  590000    1.0221751   -5.9504635    272.89442   0.03854441  0.039297065            2 
  591000    1.0249932   -5.9422113    272.24678  0.038387871  0.039272922            1 
  592000    1.0239138   -5.9611622    272.96845  0.038424613  0.039248487            4 
  593000    1.0232661   -5.9393258    273.58161  0.038445982  0.039223821            6 
  594000    1.0026688   -5.9298924    272.74823  0.038264341  0.039199388            4 
  595000    1.0066245   -5.9141601    275.53756  0.038590694  0.039175637            3 
  596000    1.0097781   -5.9723547    275.08846  0.038463151  0.039151751            5 
  597000    1.0121241   -5.9319038    275.38016  0.038439441  0.039128309            9 
  598000     1.013134   -5.9207584    276.12661  0.038479181  0.039105652            3 
  599000    1.0375259   -5.9252383    275.12259  0.038275263  0.039082818            6 
  600000    1.0085545   -5.9329973    276.28405  0.038372785  0.039059408            5 
  601000     1.014968   -5.9486965    276.10998    0.0382848  0.039035725            7 
  602000    1.0241839   -5.9596082    276.98667  0.038342563  0.039012008            6 
  603000    1.0362177   -5.9516359      277.927  0.038408928  0.038989276            3 
  604000    1.0105213   -5.9144288    277.86652  0.038336992  0.038966349            6 
  605000   0.99841394   -5.9300456    278.03874  0.038297347  0.038943224            3 
  606000    1.0062584   -5.9624295    278.17751  0.038253233  0.038919901            3 
  607000    1.0076491   -5.9270948    278.30946  0.038208328  0.038896518           10 
  608000   0.98332288   -5.9440066    277.99688  0.038102642  0.038873104            4 
  609000    1.0080077   -5.9571375    278.12791  0.038058006   0.03884908            3 
  610000   0.98894146   -5.9448036    278.20533  0.038006193  0.038825011            5 
  611000    1.0136111   -5.9575171    278.05088  0.037922924  0.038800487            2 
  612000   0.99916641   -5.8924975    280.39147  0.038179667  0.038776791            3 
  613000    1.0421495   -5.9762499    278.23704  0.037824503  0.038752717            3 
  614000   0.99100353    -5.933468    279.88479  0.037986535   0.03872826            8 
  615000    1.0170405   -5.9265782    279.73618  0.037904632  0.038703688            5 
  616000    1.0028769   -5.9415885    279.93824  0.037870432  0.038679111            9 
  617000   0.98189183   -5.9621089    279.82845  0.037794226  0.038654507            2 
  618000    1.0045455   -5.9219989    281.37825   0.03794205   0.03862969            5 
  619000    1.0195502   -5.9786783    281.55728  0.037904857  0.038605128            6 
  620000   0.99474843   -5.9794958    281.49203  0.037834951  0.038580626            3 
  621000    1.0189632   -5.9568433    282.36234  0.037890814  0.038556108            3 
  622000   0.99469395    -5.923286    282.57844  0.037858848  0.038531726            3 
  623000    1.0119746   -5.9554857    284.28831  0.038026794  0.038508264            5 
  624000    1.0094661   -5.9718258    282.46282  0.037722065  0.038484767            7 
  625000    1.0048618   -5.9584316     283.1967   0.03775956  0.038461309            2 
  626000   0.99394611   -5.9515298    283.79546  0.037778948  0.038437662            6 
  627000    1.0150099   -5.9737171    284.06441  0.037754441  0.038414275            5 
  628000    1.0043803   -5.9526299    285.41625  0.037873706  0.038391099            4 
  629000    1.0077468    -5.964565    285.79324   0.03786344  0.038367865            4 
  630000   0.98779551   -5.9652353    285.21442  0.037726775   0.03834481            2 
  631000    1.0081347    -5.952501    285.80662  0.037745196  0.038322059            4 
  632000    1.0044623   -5.9984469    284.90361  0.037566405  0.038299173            6 
  633000    1.0004101   -5.9693036    286.50664  0.037718094   0.03827535            7 
  634000   0.98735984   -6.0130405    285.41498  0.037515113  0.038251675            5 
  635000    1.0129965    -5.928674    287.92704    0.0377857  0.038228331            5 
  636000    1.0055608   -5.9725157    286.83471  0.037583164  0.038205738            3 
  637000   0.99643216   -5.9627569    287.79632  0.037649963  0.038183004            2 
  638000   0.98713852   -6.0024023    286.64023  0.037439946  0.038160154            7 
  639000    1.0033589   -5.9953294    288.03535  0.037563296   0.03813696            4 
  640000   0.99443826   -5.9887115    288.62291  0.037581108  0.038114073            3 
  641000   0.99773042    -5.978322    289.00015  0.037571523  0.038091658            4 
  642000   0.99936795   -5.9809184    288.43319  0.037439407  0.038068589            3 
  643000    1.0093323   -6.0097344     289.2175  0.037482828  0.038045973            4 
  644000    1.0135451     -5.95568    290.28376  0.037562598   0.03802333            4 
  645000   0.99361267   -5.9219734    291.21183  0.037624268  0.038001089            4 
  646000    1.0035205   -5.9809281    289.48714  0.037343542   0.03797891            2 
  647000    1.0010695   -5.9818611    289.46786   0.03728334    0.0379563            5 
  648000   0.99976381   -5.9862256    290.89517  0.037409358  0.037933288            6 
  649000   0.98175693   -5.9833915      290.871  0.037348613  0.037910187            2 
  650000   0.98705041   -5.9803461    291.53968  0.037376882  0.037887732            4 
  651000    1.0027433   -5.9399906     292.8842  0.037491577  0.037865429            5 
  652000    1.0326401   -5.9345687    292.85543  0.037430397  0.037843336            2 
  653000   0.98376425   -5.9600989    292.85466  0.037372978  0.037821192            4 
  654000   0.98996345   -5.9778579    293.00055  0.037334423  0.037798656            4 
  655000    1.0047316   -5.9854836    292.95623  0.037271784  0.037775376            3 
  656000   0.99138741   -6.0021018    293.01193  0.037222045  0.037752897            4 
  657000   0.97545894   -5.9859602    293.58794  0.037238449  0.037730336            4 
  658000    0.9932614   -5.9470764    293.98247  0.037231822  0.037707692            6 
  659000    1.0002316   -5.9910311    293.78543  0.037150408  0.037685323            2 
  660000    0.9948413   -6.0021549    294.24991  0.037152767  0.037662495            5 
  661000   0.97555997   -5.9988413    294.52219  0.037130886  0.037639763            5 
  662000    1.0033553   -6.0016473    294.54379  0.037077516  0.037616745            5 
  663000   0.95954273   -5.9969331    294.79381  0.037053018  0.037594071            3 
  664000   0.99347884   -6.0206303    294.79076  0.036996833  0.037571708            2 
  665000   0.96516367   -6.0109544    294.65683  0.036924415  0.037549092            3 
  666000   0.98149768   -5.9966908     296.1034  0.037049975  0.037526596            7 
  667000   0.98335993    -5.999162    295.82601  0.036959772  0.037504278            3 
  668000    1.0009444   -5.9601649    297.05587  0.037057868   0.03748198            2 
  669000   0.97245502   -5.9963469      296.624   0.03694868  0.037459954            3 
  670000    0.9778494   -6.0039889    297.66357  0.037022832  0.037437336           10 
  671000   0.99107211   -6.0244786    296.32355  0.036801235  0.037414637            6 
  672000   0.97334835   -6.0047266    297.23797  0.036859867  0.037391938            4 
  673000    0.9908124   -6.0096216    298.63166   0.03697767  0.037369617            5 
  674000    1.0006886   -5.9822756     298.7858  0.036941865  0.037347532            3 
  675000   0.98549101   -5.9728613    299.08985  0.036924673  0.037325486            4 
  676000   0.95973968   -5.9788363    300.11686  0.036996654  0.037303187            4 
  677000      1.01131   -6.0108656     298.8848  0.036790349  0.037281053            2 
  678000    0.9845545   -6.0357749    298.69104  0.036712272  0.037258526            3 
  679000   0.97077241   -6.0240693    299.06506  0.036704106  0.037235712            3 
  680000   0.99431012   -5.9974451    299.57126  0.036712164  0.037213357            3 
  681000    0.9748605   -6.0319671    299.62278   0.03666456  0.037190577            3 
  682000   0.98953545   -6.0328913    300.41466  0.036707559   0.03716797            3 
  683000   0.97947971   -6.0135135    300.38269  0.036649913  0.037146018            6 
  684000   0.97374532   -6.0346303    300.27761  0.036583529  0.037123502            3 
  685000    1.0029995   -6.0072467    301.42361  0.036669539  0.037101035            9 
  686000   0.99185556   -6.0195484    301.23802  0.036593539  0.037078646            4 
  687000   0.98511465   -6.0221121    301.89089  0.036619467  0.037056299            9 
  688000   0.98140912   -6.0049306    301.84849  0.036561105  0.037033827            4 
  689000     0.978788   -5.9964855     302.8234  0.036625956  0.037011874           11 
  690000   0.97307782    -6.019716    301.87877  0.036458789  0.036989412            4 
  691000   0.99146017   -5.9998802    303.12044  0.036555769  0.036966614            4 
  692000   0.98451549   -6.0474425    303.38665  0.036535001  0.036944265            6 
  693000   0.97325695   -6.0647408    302.20328  0.036339981  0.036921505            6 
  694000   0.96814944   -6.0029505    303.49643  0.036442896   0.03689887            2 
  695000   0.96401629   -6.0219604    303.63945  0.036407608  0.036876833            3 
  696000   0.98780491   -6.0643149    302.97836  0.036276145  0.036854792            4 
  697000   0.97785316   -6.0224914    305.21544  0.036491564  0.036832783            7 
  698000   0.97257786   -6.0481327    304.37242  0.036338636  0.036810436            5 
  699000   0.94696915   -6.0035738    305.94636  0.036474292  0.036788296            2 
  700000   0.98343338   -6.0358086    305.75427  0.036399318  0.036765947            4 
  701000   0.97497929   -6.0362122    304.88456  0.036244004  0.036743421            7 
  702000   0.98740828   -6.0120225    306.33072  0.036364046  0.036720667            4 
  703000   0.96661542   -5.9819329     305.8164  0.036251351  0.036698017            2 
  704000    0.9604017   -6.0311778     305.9921  0.036220656  0.036675262            5 
  705000   0.98599625   -6.0541721    305.35358  0.036093803  0.036652131            7 
  706000   0.96303653   -6.0351913    305.56048  0.036067102  0.036629335            6 
  707000   0.95855487   -6.0334755    307.62604  0.036259552  0.036606289            4 
  708000   0.99272466   -6.0318283    305.84864  0.035999133   0.03658308            2 
  709000   0.98142796   -5.9811084      307.033  0.036087564  0.036560405            4 
  710000   0.97414268   -6.0299156    307.51231  0.036092994  0.036537972            3 
  711000   0.97299656   -6.0529501    307.90908  0.036088734  0.036515231            6 
  712000   0.96861118   -6.0280963    308.50246  0.036107497  0.036492396            3 
  713000   0.94478336   -6.0643105    307.22721  0.035907809  0.036469758            5 
  714000   0.97130294   -6.0619879     308.7165  0.036031338  0.036447362            5 
  715000   0.97824924   -6.0373436    309.39014  0.036059456  0.036425428            3 
  716000   0.96385414     -6.02554     309.5196  0.036024162  0.036403927            2 
  717000   0.98248067   -6.0497066     308.7505   0.03588453  0.036381855            7 
  718000   0.98433153   -6.0442136    308.88063  0.035849655  0.036359804            5 
  719000     0.974276   -6.0429564    310.59816  0.035998859  0.036337867            5 
  720000   0.97263394   -6.0400226    310.57332  0.035945986  0.036315921            3 
  721000   0.98106642   -6.0595978    310.58521  0.035897505    0.0362939            4 
  722000   0.96348629   -6.0477495    311.92105  0.036001968   0.03627211            5 
  723000   0.94636627   -6.0609306    311.65674  0.035921708  0.036250757            3 
  724000   0.96476231    -6.049371    312.71395  0.035993779   0.03622905            7 
  725000   0.94765143   -6.0752089    312.15067  0.035879388  0.036207237            6 
  726000   0.96861036   -6.0752675    311.32117  0.035734754  0.036185545            5 
  727000   0.94716792   -6.0539584    312.80641  0.035855847  0.036164216           10 
  728000   0.96833025   -6.0506098     313.0484  0.035834295  0.036142432           10 
  729000   0.96806079   -6.0485772    312.90917  0.035769224  0.036121431            5 
  730000   0.96918824   -6.0615426    314.30963  0.035880094  0.036099723            4 
  731000    0.9715329   -6.0287525    314.04182  0.035800481  0.036078127            6 
  732000   0.94336659      -6.0882     312.8731  0.035618522  0.036056316            3 
  733000   0.98131664   -6.0336424    314.43257  0.035747223  0.036034622            4 
  734000   0.94584203   -6.0299393    315.38552  0.035806712  0.036013516            5 
  735000   0.96090548   -6.0452103    314.36112   0.03564185  0.035991848            5 
  736000   0.95194443   -6.0550716    314.19684  0.035574824  0.035969903            4 
  737000    0.9765015   -6.0953076    314.30123  0.035538357  0.035947586            5 
  738000   0.95198388   -6.0822833    314.36341  0.035497224  0.035925125            3 
  739000   0.95063799   -6.0699128    315.26517  0.035550876  0.035902725            2 
  740000   0.96809744     -6.05308    315.72505  0.035554623  0.035880633            2 
  741000   0.97023168   -6.0330085    314.53156   0.03537242  0.035858753            3 
  742000   0.96296538   -6.0600299    315.99608  0.035489227  0.035836884            3 
  743000   0.95333759   -6.0347797    316.24049  0.035468875  0.035814595            7 
  744000    0.9809718   -6.0737275    315.78382  0.035370052  0.035792488            5 
  745000   0.96148671    -6.033791    316.96467   0.03545466   0.03577022            4 
  746000    0.9552006    -6.062412    316.29504  0.035332333  0.035747725            5 
  747000   0.95897299   -6.0740867    316.50134  0.035308048    0.0357254            5 
  748000   0.96286453   -6.0891392    316.68601  0.035281418  0.035702988            6 
  749000   0.95526855   -6.1084281    317.04833  0.035274625  0.035680859            6 
  750000   0.95158591   -6.0502776    317.29695  0.035255216  0.035658528            3 
  751000   0.97202402   -6.0563601    316.96657  0.035171612  0.035636015            4 
  752000   0.94814286    -6.057787    318.02398  0.035242019  0.035613471            6 
  753000   0.94864989   -6.0500463    318.83409  0.035284871  0.035591336            4 
  754000   0.95515644   -6.1070135    316.73198  0.035005744  0.035568622            4 
  755000   0.96774382    -6.072785    317.67162  0.035063092  0.035545994           10 
  756000   0.95629211    -6.049631     318.7546  0.035136089  0.035523383            6 
  757000   0.97179723   -6.0806604    317.43293   0.03494418  0.035500912            6 
  758000   0.95039879   -6.1074141    317.87528   0.03494671  0.035477705            5 
  759000   0.94966536    -6.080214    318.32652   0.03495021  0.035454306            3 
  760000   0.93643598    -6.077239    318.48574  0.034921682  0.035430597            5 
  761000   0.93613755   -6.0832052    317.93865  0.034815883   0.03540703            5 
  762000   0.95003854   -6.0891686    319.52179  0.034943328  0.035383545            7 
  763000   0.94224639   -6.0898553    319.57928   0.03490381  0.035359927            5 
  764000   0.94955551   -6.1136945    319.25189  0.034822414  0.035336817            4 
  765000   0.94113878   -6.1269686    319.60713  0.034815591  0.035313709            9 
  766000   0.94649919   -6.0529675    321.27303  0.034951374  0.035290715            4 
  767000   0.91823443   -6.0687864    320.45125   0.03481652  0.035267642            3 
  768000   0.94011091   -6.0607565     321.8053   0.03491811  0.035244735            3 
  769000   0.95887627   -6.0850515    322.55888  0.034954365  0.035222097            8 
  770000   0.93473838   -6.0683897    322.36406  0.034887885  0.035199889           13 
  771000   0.94642895   -6.0775203    322.20171  0.034825088  0.035177463            4 
  772000    0.9490816   -6.0900792    321.58433  0.034713335  0.035154962            7 
  773000   0.95521235   -6.0757311    322.34721   0.03475067  0.035132399            5 
  774000   0.94901124   -6.1154053    322.10803  0.034680021  0.035109598            4 
  775000   0.94909899   -6.1052833    322.30378   0.03465632  0.035086803            4 
  776000   0.92866258   -6.0944807     323.3227   0.03472108  0.035064416            4 
  777000   0.95514569   -6.1109514    322.89404   0.03463042  0.035041787            6 
  778000   0.97767961   -6.0804147    323.95353  0.034699393  0.035019365            3 
  779000   0.92166239   -6.0996532    323.61143  0.034618253  0.034997232            6 
  780000   0.95543367   -6.0957817    323.72717  0.034586236  0.034974948            7 
  781000   0.94144657   -6.0916018    323.82906  0.034552824  0.034952691            3 
  782000   0.93857433   -6.1325384      323.881  0.034514173  0.034930166            3 
  783000    0.9419789   -6.0668456    325.42247   0.03463415  0.034907783            2 
  784000   0.98834937   -6.1075436    325.58029  0.034606749   0.03488561            4 
  785000   0.92953403   -6.1691221    324.22065  0.034418328   0.03486316            9 
  786000   0.94714058   -6.1002777    325.52517  0.034512847  0.034840363            4 
  787000   0.94155199   -6.0851337    326.24777  0.034545507  0.034817973            4 
  788000   0.95397688   -6.0858884    325.27342  0.034398628  0.034795419            3 
  789000   0.93321966   -6.1055466    326.05866  0.034437966  0.034772923            4 
  790000   0.95416231   -6.1005133    325.54928  0.034340641  0.034750479            5 
  791000   0.94150898   -6.1278813    325.68001     0.034311  0.034728027            3 
  792000   0.93281035   -6.0820136    326.92938  0.034399135  0.034705576            8 
  793000   0.93601925   -6.1192171    326.35157  0.034295037  0.034683026            4 
  794000   0.93653359   -6.1278201    327.30667  0.034352086  0.034660328            6 
  795000   0.95359447   -6.1185134    327.05823  0.034282833  0.034638155            5 
  796000   0.93674714   -6.1058073    327.74209  0.034311358   0.03461574            5 
  797000   0.95146685   -6.1156058    327.75159  0.034269301  0.034593605            4 
  798000    0.9379076   -6.1251111    327.19855  0.034168604  0.034571029            3 
  799000   0.94214556   -6.1307741    328.33718  0.034244596  0.034548525            7 
  800000   0.94307478   -6.1038511    328.82446  0.034252548  0.034525874            4 
  801000   0.95686365   -6.1679948    327.70773  0.034093605  0.034503328           14 
  802000   0.92882471   -6.1346295    327.67957  0.034048168  0.034480328            9 
  803000   0.93452139   -6.1536995    328.09811  0.034049202  0.034457589            4 
  804000   0.92553669   -6.1193399     329.1922  0.034120253  0.034434824            5 
  805000   0.91303494   -6.1100572    330.07502  0.034169257  0.034412634            3 
  806000   0.93359438   -6.1629489    328.50161  0.033964186  0.034390305            6 
  807000   0.91354652   -6.1171935    330.32736  0.034110632  0.034367778            6 
  808000   0.92583379    -6.156213    328.98196  0.033929657  0.034345278            4 
[...]
 1800000    0.5319585   -7.1923176    383.18516  0.017740054  0.016219744          156 
 1801000   0.54070712   -7.1923234    382.98097  0.017720755   0.01620634          201 
 1802000    0.5427692   -7.1635189    382.48574   0.01768802  0.016192956          122 
 1803000   0.53184988      -7.1703    383.54583  0.017727206  0.016179583          150 
 1804000   0.53530443   -7.1892045    382.20849  0.017655603  0.016166218          187 
 1805000    0.5352145   -7.1804211    383.21481  0.017692281  0.016152878          154 
 1806000   0.53606468   -7.1702782    383.06334  0.017675496  0.016139563          113 
 1807000    0.5427298   -7.1687777    383.00105  0.017662841  0.016126268          214 
 1808000   0.53684943   -7.1796266    382.06741  0.017610039  0.016112964          129 
 1809000   0.53311875   -7.1889956    383.06522   0.01764627  0.016099677          191 
 1810000   0.55078709   -7.1903173    382.79949  0.017624286  0.016086404          149 
 1811000   0.52515114   -7.2011776    382.98995  0.017623318  0.016073128          165 
 1812000   0.52562497   -7.1827299    382.26968  0.017580467  0.016059863          197 
 1813000   0.53073622   -7.2103566    382.96057  0.017602526  0.016046607          296 
 1814000   0.52585658   -7.1874529    381.93626  0.017545767  0.016033345          167 
 1815000   0.53165755   -7.2068859    382.72786  0.017572446  0.016020108          137 
 1816000   0.52745487   -7.1943859    381.88842  0.017524248  0.016006889          171 
 1817000   0.53121419   -7.1809128    382.84857  0.017558639  0.015993689          135 
 1818000    0.5258354   -7.1936594    382.34504    0.0175259   0.01598047          276 
 1819000   0.53071638   -7.1924483    382.39092  0.017518367  0.015967283          253 
 1820000   0.53275301   -7.1818924     382.3072  0.017504909  0.015954104          322 
 1821000   0.52810924   -7.1948055    383.12101  0.017532537  0.015940925          302 
 1822000      0.52754   -7.1816776    382.50502  0.017494741  0.015927773          331 
 1823000   0.52505028   -7.1964501    382.94376    0.0175052  0.015914628          230 
 1824000   0.52461372   -7.2069779    382.60537  0.017480143  0.015901498          174 
 1825000   0.52147452   -7.2066422    382.69848  0.017474816  0.015888371          333 
 1826000   0.52086211   -7.1866293    382.17785  0.017441486  0.015875246          197 
 1827000   0.53182813   -7.2085741     381.8446   0.01741674  0.015862136          163 
 1828000   0.53852593   -7.1928816    382.21575  0.017424132  0.015849049          219 
 1829000   0.51012046   -7.1927631    382.08738  0.017408756  0.015835953          240 
 1830000    0.5200001   -7.2227704    382.22941  0.017405711  0.015822884          269 
 1831000   0.52947082   -7.2069661    382.47984  0.017407602  0.015809821          188 
 1832000   0.52808195   -7.2139167    382.04553  0.017378345  0.015796769          179 
 1833000   0.53089299   -7.2167375    382.44615  0.017387077   0.01578374          249 
 1834000   0.51546441   -7.1946313    381.30496  0.017325743  0.015770717          358 
 1835000   0.51556224   -7.2003526    382.25582  0.017359483  0.015757718          195 
 1836000   0.52696908   -7.2074359    382.65975  0.017368362  0.015744713          275 
 1837000   0.51866809   -7.2073862    382.54155  0.017353545  0.015731746          292 
 1838000   0.53193761   -7.2061477    383.16601  0.017372416  0.015718771          369 
 1839000   0.51784763   -7.1984957    381.94063  0.017307442  0.015705809          349 
 1840000   0.52603795   -7.2290456     381.9057  0.017296454  0.015692836          233 
 1841000   0.52892327    -7.204426     382.0551  0.017293821  0.015679899          358 
 1842000   0.51372528   -7.2000602    381.50828  0.017259694  0.015666964          176 
 1843000    0.5160906     -7.21389     382.1733  0.017280399  0.015654034          420 
 1844000   0.52327206   -7.2337585    382.03067  0.017264582  0.015641124          389 
 1845000   0.50810323   -7.2221654    382.16897  0.017261471  0.015628225          316 
 1846000   0.50989165   -7.2140976    381.24753  0.017210524  0.015615327          421 
 1847000   0.50864111   -7.2185302    382.48037   0.01725683  0.015602438          395 
 1848000    0.5150283   -7.2053135    381.45284  0.017201156  0.015589558          419 
 1849000   0.52120385   -7.2001531    382.14568  0.017223079  0.015576715          380 
 1850000    0.5210703   -7.2218916    381.94586  0.017204768  0.015563864          458 
 1851000   0.51171659   -7.2241956     382.1242  0.017203503  0.015551043          402 
 1852000   0.51219709   -7.2135101    382.13707  0.017194792  0.015538215          424 
 1853000   0.51517594   -7.2114064     381.8689  0.017173453  0.015525424          445 
 1854000   0.52106522   -7.2250117    381.93391  0.017167112  0.015512638          344 
 1855000   0.52527489   -7.2109395    381.10607  0.017120668  0.015499856          189 
 1856000   0.51278524   -7.2144185    382.42372  0.017170605  0.015487099          325 
 1857000   0.52199612   -7.2276296    381.94326  0.017139798  0.015474352          238 
 1858000   0.52649067   -7.2244764    382.18934   0.01714161  0.015461625          156 
 1859000   0.51157914   -7.2174968    381.76553  0.017113391  0.015448894          159 
 1860000   0.50870675    -7.221222    381.53641  0.017093925  0.015436174          370 
 1861000   0.51028652   -7.2364979    381.87157  0.017099748  0.015423458          178 
 1862000   0.50264258   -7.2153032    381.64199  0.017080289  0.015410745          496 
 1863000   0.50771745   -7.2132163    382.42788  0.017106275  0.015398065          208 
 1864000    0.5091796   -7.2254377    382.04708  0.017080073  0.015385398          456 
 1865000   0.51106968   -7.2340802    381.51782  0.017047266  0.015372741          369 
 1866000   0.51273583   -7.2311135    381.33238  0.017029849  0.015360088          471 
 1867000   0.50686036   -7.2384965    381.75435  0.017039562  0.015347449          508 
 1868000   0.50980784   -7.2298862    381.10511  0.017001477  0.015334831          369 
 1869000   0.51760971   -7.2146826    382.15836  0.017039342  0.015322225          138 
 1870000   0.49602538   -7.2324105    381.37336  0.016995248  0.015309637          165 
 1871000   0.50722334   -7.2328292    381.65538  0.016998725  0.015297045          254 
 1872000   0.50621458   -7.2156115    381.44329  0.016980204  0.015284473          310 
 1873000   0.50952237    -7.237269    381.51367  0.016974269  0.015271918          577 
 1874000   0.50500393   -7.2443117    380.54663  0.016922209  0.015259361          352 
 1875000   0.49638096   -7.2344686    381.14776  0.016939901  0.015246818          569 
 1876000   0.49789292   -7.2371561    381.39809  0.016941991  0.015234272          481 
 1877000   0.51293597   -7.2078065    381.69203  0.016946014  0.015221765          559 
 1878000   0.50947796   -7.2295546    382.12593  0.016956245  0.015209269          592 
 1879000   0.50278917   -7.2361235    381.30521  0.016910822  0.015196796          539 
 1880000   0.48684217   -7.2281798    382.18923  0.016941012  0.015184315          433 
 1881000    0.5047674   -7.2357083    381.11553  0.016884438  0.015171856          467 
 1882000   0.48801429   -7.2309213    381.58452  0.016896233    0.0151594          473 
 1883000   0.50112631   -7.2506071    381.36385  0.016877494  0.015146945          524 
 1884000   0.49978012   -7.2304121    382.33278  0.016911393  0.015134516          505 
 1885000   0.49594767   -7.2375983     380.9717   0.01684225  0.015122105          574 
 1886000    0.4881665   -7.2540586     381.5951  0.016860865  0.015109696          601 
 1887000   0.50010886   -7.2505415    381.73358  0.016858045  0.015097308          516 
 1888000   0.48768905   -7.2404827    381.17618  0.016824514  0.015084918          601 
 1889000   0.50007153   -7.2561238    381.64323  0.016836211  0.015072529          592 
 1890000   0.50866674   -7.2558191    381.10544  0.016803591  0.015060161          249 
 1891000    0.4980306    -7.251064    381.62977  0.016817811  0.015047813          563 
 1892000   0.49944814   -7.2440976    380.85343  0.016774728  0.015035472          559 
 1893000   0.49000988   -7.2664068    381.30827   0.01678589  0.015023131          506 
 1894000   0.49154223   -7.2466749    380.95683  0.016761564  0.015010787          525 
 1895000   0.50462571   -7.2673708    381.18579  0.016762788  0.014998463          633 
 1896000   0.50623842   -7.2688844     381.3551  0.016761388  0.014986147          528 
 1897000   0.50680407   -7.2542581    380.83563  0.016729733  0.014973851          614 
 1898000    0.5000255   -7.2567599     381.2166  0.016737645   0.01496159          529 
 1899000   0.49798556   -7.2475423    380.93734  0.016716576  0.014949335          602 
 1900000   0.49225902   -7.2536454    381.04352  0.016712435  0.014937086          623 
 1901000   0.50046441   -7.2581268    381.22149  0.016711445  0.014924852          633 
 1902000   0.49326501   -7.2432377    381.10277  0.016697458  0.014912642          518 
 1903000   0.48535039   -7.2519297     381.4168  0.016702435  0.014900426          499 
 1904000   0.50173502   -7.2443814     380.8919  0.016670689  0.014888214          514 
 1905000   0.48528085   -7.2646137    380.95076  0.016664513  0.014876018          466 
 1906000   0.48867883   -7.2441411    380.37181  0.016630457  0.014863843          524 
 1907000   0.48598446   -7.2594387    381.28188  0.016661505  0.014851676          519 
 1908000   0.49790356   -7.2670307    380.71086  0.016627833   0.01483951          646 
 1909000   0.49142953   -7.2575431     381.5673  0.016656509  0.014827375          551 
 1910000   0.48514538   -7.2532173    381.59327  0.016648921  0.014815244          590 
 1911000   0.49153701   -7.2478303    380.87685  0.016608968  0.014803134          553 
 1912000   0.47947425   -7.2716766    381.14867  0.016612128  0.014791018          469 
 1913000   0.48208891   -7.2626504    380.86084  0.016590906  0.014778913          557 
 1914000     0.497201   -7.2739997    380.27087  0.016556551  0.014766821          582 
 1915000     0.490981   -7.2765445    380.84114  0.016572722  0.014754735          307 
 1916000   0.48650048    -7.263629    380.69502  0.016557717  0.014742681          289 
 1917000   0.48761037    -7.259803     381.4521   0.01658199  0.014730633          479 
 1918000   0.49084419   -7.2589438    380.55052  0.016534173  0.014718593          510 
 1919000   0.48890532   -7.2508129    380.84761  0.016538458   0.01470657          466 
 1920000   0.48316717   -7.2622181    380.56602  0.016517622  0.014694546          582 
 1921000   0.48798876    -7.274659    380.52015  0.016507034  0.014682527          310 
 1922000   0.47697269   -7.2633686    381.01931  0.016520088  0.014670522          456 
 1923000   0.49163688   -7.2638967    380.28962  0.016479876  0.014658521          495 
 1924000   0.47888718   -7.2623179    380.84516  0.016495372  0.014646552          383 
 1925000   0.48314094   -7.2812826    380.96973  0.016492196  0.014634574          655 
 1926000   0.48729138   -7.2731422    380.39047   0.01645857  0.014622608          351 
 1927000   0.48861648   -7.2766184    380.39109  0.016450056  0.014610662          510 
 1928000   0.47763994   -7.2813897    380.53645  0.016447806   0.01459874          454 
 1929000   0.48294742   -7.2733624    380.91606  0.016455679   0.01458682          473 
 1930000   0.48619239   -7.2736877     380.4593  0.016427431  0.014574904          201 
 1931000   0.48239171   -7.2784438    381.02226  0.016443219  0.014563008          471 
 1932000   0.49288939   -7.2794682    380.30267  0.016403669  0.014551114          386 
 1933000    0.4696216   -7.2820652    380.45254  0.016401644   0.01453923          541 
 1934000   0.48861114   -7.2885801    380.82831  0.016409355  0.014527361          574 
 1935000   0.47283213   -7.2809479    381.06438  0.016411041  0.014515503          566 
 1936000   0.47795827   -7.2896228    380.57848  0.016381649  0.014503647          616 
 1937000   0.46389591   -7.2739197    380.78109  0.016381909  0.014491808          471 
 1938000   0.48045957    -7.290462    380.46815  0.016359999  0.014479969          562 
 1939000   0.47932488   -7.2832476    380.52887  0.016354172  0.014468154          568 
 1940000   0.48057088   -7.2724903    380.48314  0.016343777  0.014456356          632 
 1941000     0.473525   -7.2863843    380.69588  0.016344491  0.014444579          503 
 1942000   0.46943973    -7.276898    380.30963    0.0163195  0.014432793          560 
 1943000   0.48147885   -7.2859241    379.99781  0.016297727  0.014421033          583 
 1944000   0.47736014   -7.2931501    380.61179  0.016315663  0.014409271          590 
 1945000   0.47309058   -7.2918126    380.14851  0.016287425  0.014397531          634 
 1946000   0.47469462    -7.278973    380.26884  0.016284209  0.014385808          582 
 1947000   0.47788809    -7.296871     380.6459  0.016291983  0.014374099          415 
 1948000   0.47531956   -7.2889304    380.07234  0.016259084  0.014362407          566 
 1949000   0.47939397   -7.2729072    380.79712  0.016281731  0.014350706          557 
 1950000    0.4724825   -7.2986157    379.96853  0.016237972  0.014339026          532 
 1951000   0.48269049   -7.2935044    380.27709  0.016242828  0.014327354          589 
 1952000   0.47112876   -7.3019173    379.79405  0.016213885  0.014315681          318 
 1953000   0.46910388   -7.2911921    380.28325  0.016226457  0.014304028          516 
 1954000   0.47027936   -7.2917508    380.19045  0.016214195  0.014292391          420 
 1955000   0.47921006   -7.2928992    380.26946  0.016209269  0.014280747          654 
 1956000   0.47581195   -7.3017852    380.71179  0.016219828  0.014269128          362 
 1957000   0.47571994   -7.2989954    380.01426  0.016181837  0.014257511          550 
 1958000    0.4674752   -7.2974283    380.60195  0.016198585  0.014245908          627 
 1959000   0.46895235   -7.2925295    380.36853  0.016180387  0.014234336          695 
 1960000   0.47592486   -7.2934756    380.08641  0.016160136  0.014222754          691 
 1961000   0.47197754   -7.2967669    380.48845   0.01616898  0.014211184          708 
 1962000    0.4602977   -7.3155077    379.84208  0.016133286  0.014199642          645 
 1963000   0.46907845   -7.3002164    379.36724  0.016104909  0.014188114          244 
 1964000   0.46278818   -7.2975515     380.0146  0.016124177  0.014176595          678 
 1965000   0.46795806   -7.3057203    379.98307  0.016114634   0.01416508          575 
 1966000   0.47196865   -7.3075089    380.77241  0.016139895  0.014153577          320 
 1967000   0.47039104   -7.3071591     380.2904  0.016111269  0.014142085          616 
 1968000   0.46531933   -7.3127886    379.69302  0.016077787  0.014130604          677 
 1969000   0.46600393   -7.3121011    380.65164  0.016110193  0.014119128          675 
 1970000   0.47016987   -7.2891471    379.85685  0.016068395  0.014107671          565 
 1971000   0.46556648   -7.3077299    380.02983  0.016067556  0.014096231          701 
 1972000   0.46956416   -7.2890016    379.80798  0.016050033  0.014084778          676 
 1973000    0.4652708   -7.2910482    380.67072  0.016078338  0.014073348          773 
 1974000   0.46716632   -7.3033192    380.10075  0.016046131  0.014061921          771 
 1975000   0.47864274   -7.3120586     379.9624  0.016032169  0.014050501          746 
 1976000   0.46039192   -7.3067893    380.67781  0.016054226  0.014039103          705 
 1977000   0.45933445   -7.3118779    379.61745   0.01600141  0.014027716          747 
 1978000   0.46210496   -7.3089832    379.87363  0.016004113  0.014016352          647 
 1979000   0.45845332    -7.306717    380.50345  0.016022547  0.014004999          579 
 1980000   0.45939804   -7.2985902    379.47184  0.015971037  0.013993641          690 
 1981000   0.46002989   -7.3178033    379.95699  0.015983383  0.013982294          472 
 1982000   0.46262795   -7.3039074    379.53815  0.015957709  0.013970964          679 
 1983000   0.45906543   -7.3244824    379.87517  0.015963825  0.013959652          699 
 1984000   0.46161727   -7.3194024    379.89968  0.015956808  0.013948351          613 
 1985000   0.46127373   -7.3079917    379.77312  0.015943456  0.013937051          599 
 1986000   0.46146791   -7.3222173    379.79564  0.015936373  0.013925758          545 
 1987000   0.46259521   -7.3163716    380.17325  0.015944189   0.01391448          589 
 1988000   0.45699907   -7.3280187     379.8002  0.015920531  0.013903212          716 
 1989000   0.46254118   -7.3349929    379.57255  0.015902989  0.013891946          691 
 1990000   0.45349946   -7.3224435     379.3575  0.015885992  0.013880695          397 
 1991000   0.45878936   -7.3246363    379.90843  0.015901073  0.013869452          626 
 1992000   0.45747372   -7.3282758    379.65038  0.015882295  0.013858229          617 
 1993000   0.46231915   -7.2976012    379.84256  0.015882361  0.013847019          665 
 1994000   0.45298782   -7.3144922    379.52301  0.015861042  0.013835823          679 
 1995000    0.4578666    -7.313433    379.86338  0.015867309  0.013824641          696 
 1996000   0.46669829   -7.3314479    379.73568  0.015854028  0.013813457          678 
 1997000    0.4506612   -7.3176177    379.04511  0.015817272  0.013802285          631 
 1998000   0.46155548    -7.324885    379.91531   0.01584565  0.013791124          667 
 1999000    0.4576225   -7.3261518    379.73301  0.015830124  0.013779968          362 
 2000000   0.45564625   -7.3422923    379.79366  0.015824736  0.013768821          591 
 2001000   0.45812486     -7.34604    379.60204  0.015808847  0.013757685          630 
 2002000   0.45718132   -7.3438744    379.84136  0.015810912   0.01374655          732 
 2003000   0.45128195    -7.336078    378.90193  0.015763934  0.013735437          580 
 2004000   0.44104121   -7.3219807    379.59138  0.015784738  0.013724332          599 
 2005000    0.4487741   -7.3387721    379.04489  0.015754152  0.013713234          708 
 2006000   0.46193437   -7.3323189    379.42227  0.015761975  0.013702144          665 
 2007000    0.4612013   -7.3268079    379.20528  0.015745112  0.013691069          836 
 2008000   0.45758682   -7.3348571     378.6688  0.015715007   0.01368002          788 
 2009000   0.46094781   -7.3334244    379.64656  0.015747742  0.013668981          755 
 2010000   0.45522732   -7.3268796    379.18349  0.015720709  0.013657942          656 
 2011000   0.45951916    -7.330326    379.12018  0.015710267  0.013646918          806 
 2012000   0.44809766   -7.3178084    379.95324  0.015736963  0.013635899          738 
Loop time of 5213.63 on 48 procs for 2000000 steps with 4000 atoms

Performance: 66287.820 tau/day, 383.610 timesteps/s
99.4% CPU use with 48 MPI tasks x no OpenMP threads

MPI task timing breakdown:
Section |  min time  |  avg time  |  max time  |%varavg| %total
---------------------------------------------------------------
Pair    | 391.98     | 416.92     | 447.32     |  66.6 |  8.00
Neigh   | 36.214     | 37.395     | 39.038     |  10.7 |  0.72
Comm    | 333.2      | 367.92     | 397.03     |  74.7 |  7.06
Output  | 4.6938     | 4.6962     | 4.7522     |   0.4 |  0.09
Modify  | 4325.4     | 4337.9     | 4353.5     |   9.5 | 83.20
Other   |            | 48.76      |            |       |  0.94

Nlocal:        83.3333 ave          91 max          75 min
Histogram: 1 2 3 9 8 7 9 4 3 2
Nghost:        2406.02 ave        2420 max        2390 min
Histogram: 3 1 2 5 9 7 10 2 6 3
Neighs:        16671.7 ave       19557 max       13921 min
Histogram: 2 4 6 3 11 8 6 3 2 3
FullNghs:      33344.1 ave       36571 max       30047 min
Histogram: 2 1 5 7 10 6 8 4 3 2

Total # of neighbors = 1600517
Ave neighs/atom = 400.12925
Neighbor list builds = 107031
Dangerous builds = 3

#clear
#
#next RN
#
#jump SELF
Total wall time: 1:26:57
