
units lj                  # Use reduced LJ style units
atom_style atomic         # Uncharged point particles
atom_modify map hash      # Needed for indexing of clusters etc
                          # Used to be able to find where atoms are in relation to each other.

# Define a lattice with which to populate the simulation cell. With units
# set to 'lj' the second argument to the lattice command is the reduced
# density rho* and the spacings are multiples of that required to acheive
# that density. Also define a simulation cell called 'box' in lattice units
# and fill it with atoms. Here we're creating a box which is ten lattice
# constants in each direction.
lattice fcc 1.0 spacing 1 1 1                 # All equal sizes - gives the right reduced density.
Lattice spacing in x,y,z = 1.5874011 1.5874011 1.5874011

region box block 0 10 0 10 0 10 units lattice # Defines a region, "box", in lattice units
create_box 1 box                              # Creates a simulation box as specified above,
Created orthogonal box = (0.0000000 0.0000000 0.0000000) to (15.874011 15.874011 15.874011)
  2 by 2 by 5 MPI processor grid
                                              # with one type of atom
create_atoms 1 box                            # Creates particles on lattice points
Created 4000 atoms
  using lattice units in orthogonal box = (0.0000000 0.0000000 0.0000000) to (15.874011 15.874011 15.874011)
  create_atoms CPU = 0.002 seconds


# Set the mass of the first (and only) atom type.
mass 1 1.0

# Lennard-Jones interactions between particles, 3.5 sigma cut-off. Apply
# long range tail corrections to energy and pressure and set all coefficients
# to unity since we work in reduced units here. Note that this doesn't shift
# the potential such that it goes to zero at the cutoff. That would require
# pair_modify('shift', 'yes').
pair_style lj/cut  3.5      # non-GPU version
pair_modify tail  yes
pair_coeff 1  1  1.0  1.0   # Intearaction between 1 and 1 set with epsilon = 1 and sigma = 1

write_data data.*
System init for write_data ...
Neighbor list info ...
  update every 1 steps, delay 10 steps, check yes
  max neighbors/atom: 2000, page size: 100000
  master list distance cutoff = 3.8
  ghost atom cutoff = 3.8
  binsize = 1.9, bins = 9 9 9
  1 neighbor lists, perpetual/occasional/extra = 1 0 0
  (1) pair lj/cut, perpetual
      attributes: half, newton on
      pair build: half/bin/atomonly/newton
      stencil: half/bin/3d
      bin: standard

#############################
#   M E L T   S Y S T E M   #
#############################

velocity all create 2.4 5833274 mom yes dist gaussian # Assign velocities
                                                    # Temperature 2.4, random number seed, zero linear momentum
						                                                        # Gaussian distribution

timestep 0.002   # simulation timestep
thermo 100       # output thermodynamic data every 100 steps

# Define a fix  in this case with index 1 applied to all
# particles in the simulation. This fix is for simulations
# in the anisotropic NPT ensemble. Note that we use the MTK
# correction.
fix 1 all npt temp 2.4 2.4 0.1 iso 5.68 5.68 0.5 mtk yes tchain 5 pchain 5 # Use NPT ensemble
                                                                         # Set temperature and pressure and damping
                                                                         # Numbers of thermostats in chain and in barostat
run 1000         # run for 10000 steps
Per MPI rank memory allocation (min/avg/max) = 3.681 | 3.682 | 3.682 Mbytes
Step Temp E_pair E_mol TotEng Press Volume 
       0          2.4   -8.3859253            0   -4.7868253   -2.2405722         4000 
     100    1.2560543   -6.5166947            0   -4.6330842    5.4738617     4090.264 
     200    1.4620147   -6.2944328            0    -4.101959    6.0489469    4141.8953 
     300    1.5805517   -6.0148662            0   -3.6446313    5.8775706    4268.7287 
     400    1.6834669   -5.7107066            0   -3.1861375    5.9071358    4403.4982 
     500    1.7905016   -5.4263411            0   -2.7412601    5.8268731    4549.0839 
     600    1.8978346    -5.162881            0   -2.3168407    5.7228626    4703.0892 
     700    1.9845484    -4.865807            0   -1.8897287     6.002426    4840.6855 
     800    2.1384022    -4.696791            0   -1.4899895    5.9101296    4967.4306 
     900    2.2534752   -4.5516747            0    -1.172307    5.7523082    5085.8653 
    1000    2.3409821   -4.4247023            0  -0.91410702    5.7016656    5179.7126 
Loop time of 0.481622 on 20 procs for 1000 steps with 4000 atoms

Performance: 358787.442 tau/day, 2076.316 timesteps/s
99.8% CPU use with 20 MPI tasks x no OpenMP threads

MPI task timing breakdown:
Section |  min time  |  avg time  |  max time  |%varavg| %total
---------------------------------------------------------------
Pair    | 0.26054    | 0.28055    | 0.30421    |   2.1 | 58.25
Neigh   | 0.050581   | 0.053046   | 0.056283   |   0.7 | 11.01
Comm    | 0.095736   | 0.12079    | 0.14131    |   3.7 | 25.08
Output  | 0.00019706 | 0.00020495 | 0.0002544  |   0.0 |  0.04
Modify  | 0.021599   | 0.023725   | 0.027139   |   1.3 |  4.93
Other   |            | 0.003306   |            |       |  0.69

Nlocal:        200.000 ave         214 max         185 min
Histogram: 1 1 2 4 1 2 4 2 2 1
Nghost:        2060.35 ave        2080 max        2025 min
Histogram: 1 0 0 1 4 0 5 5 0 4
Neighs:        17663.0 ave       19553 max       16156 min
Histogram: 1 3 2 3 4 1 1 4 0 1

Total # of neighbors = 353260
Ave neighs/atom = 88.315000
Neighbor list builds = 87
Dangerous builds = 21

# Equilibrate just above the melting temperature to avoid step fn in T

fix 1 all npt temp 1.25 1.25 0.1 iso 5.68 5.68 0.5 mtk yes tchain 5 pchain 5
run 1000
Per MPI rank memory allocation (min/avg/max) = 3.682 | 3.683 | 3.683 Mbytes
Step Temp E_pair E_mol TotEng Press Volume 
    1000    2.3409821   -4.4247023            0  -0.91410702    5.7016656    5179.7126 
    1100    1.9394202   -4.6489983            0   -1.7405953    5.7043192    5010.4975 
    1200    1.7538302   -4.9709308            0   -2.3408432    5.7068483    4807.0107 
    1300    1.5722219   -5.1950829            0   -2.8373396    5.6802724    4673.3381 
    1400    1.4568845   -5.4057081            0   -3.2209276    5.5567683    4573.8845 
    1500    1.3503547   -5.5212706            0   -3.4962449    5.7302676    4490.7966 
    1600    1.3147643   -5.6482764            0   -3.6766229    5.6898925    4434.2315 
    1700    1.2716924   -5.7297408            0   -3.8226791    5.6958397    4391.1098 
    1800    1.2648862   -5.7893213            0   -3.8924664    5.8003465    4355.9343 
    1900    1.2354209   -5.8175189            0   -3.9648509     5.800932    4342.1233 
    2000    1.2349334    -5.850737            0      -3.9988    5.7262948    4335.4701 
Loop time of 0.470385 on 20 procs for 1000 steps with 4000 atoms

Performance: 367358.932 tau/day, 2125.920 timesteps/s
100.0% CPU use with 20 MPI tasks x no OpenMP threads

MPI task timing breakdown:
Section |  min time  |  avg time  |  max time  |%varavg| %total
---------------------------------------------------------------
Pair    | 0.26029    | 0.2777     | 0.2955     |   2.3 | 59.04
Neigh   | 0.044512   | 0.046247   | 0.048811   |   0.6 |  9.83
Comm    | 0.09754    | 0.11835    | 0.13862    |   3.8 | 25.16
Output  | 0.00019798 | 0.00020622 | 0.00025571 |   0.0 |  0.04
Modify  | 0.022393   | 0.024163   | 0.026682   |   0.9 |  5.14
Other   |            | 0.003715   |            |       |  0.79

Nlocal:        200.000 ave         208 max         193 min
Histogram: 3 2 2 0 3 2 4 1 0 3
Nghost:        2288.05 ave        2299 max        2264 min
Histogram: 1 0 0 2 0 3 2 3 5 4
Neighs:        21066.1 ave       22634 max       19412 min
Histogram: 1 2 3 1 3 1 2 4 2 1

Total # of neighbors = 421322
Ave neighs/atom = 105.33050
Neighbor list builds = 76
Dangerous builds = 7


# Small amount of linear quench

fix 1 all npt temp 1.25 ${temp} 0.1 iso 5.68 5.68 0.5 mtk yes tchain 5 pchain 5
fix 1 all npt temp 1.25 1 0.1 iso 5.68 5.68 0.5 mtk yes tchain 5 pchain 5
run 2000
Per MPI rank memory allocation (min/avg/max) = 3.683 | 3.683 | 3.684 Mbytes
Step Temp E_pair E_mol TotEng Press Volume 
    2000    1.2349334    -5.850737            0      -3.9988    5.7262948    4335.4701 
    2100    1.2631869   -5.8496722            0   -3.9553655    5.5845435    4348.0824 
    2200    1.2324901   -5.8312845            0   -3.9830115    5.5341397    4357.4715 
    2300    1.2244357   -5.8856221            0   -4.0494278    5.3707001    4348.8958 
    2400    1.1837377   -5.8874539            0   -4.1122913    5.4493723    4339.4527 
    2500    1.2011228   -5.9281944            0   -4.1269606    5.6112811    4310.0654 
    2600     1.202304   -5.9161002            0    -4.113095    5.9358615    4287.9484 
    2700    1.1778575   -5.9564849            0   -4.1901403    5.7936779    4281.2382 
    2800    1.1542041   -5.9731803            0   -4.2423071    5.6542456    4283.4211 
    2900    1.1462052     -6.02385            0    -4.304972     5.568372    4269.7029 
    3000    1.1147498   -6.0360971            0   -4.3643904    5.4321798    4270.2045 
    3100    1.0865401   -6.0307741            0   -4.4013714    5.6523354    4256.9376 
    3200    1.1269407   -6.0606006            0   -4.3706122     5.937917    4222.9956 
    3300     1.093708   -6.0707303            0   -4.4305784     6.063216    4207.9435 
    3400    1.0867446   -6.1201743            0   -4.4904648    5.7046178    4215.3928 
    3500     1.067062   -6.1575479            0    -4.557355    5.5360008    4212.6747 
    3600    1.0549566   -6.1833029            0   -4.6012636    5.4805121    4204.7927 
    3700    1.0470492   -6.1908999            0   -4.6207188    5.6377769     4192.113 
    3800    1.0280882   -6.1902982            0   -4.6485514    5.7992891     4178.491 
    3900    1.0325982   -6.2182605            0   -4.6697505    5.7822588    4168.9042 
    4000    1.0158944   -6.2194546            0   -4.6959939    5.8326525    4162.9843 
Loop time of 0.95644 on 20 procs for 2000 steps with 4000 atoms

Performance: 361340.111 tau/day, 2091.089 timesteps/s
100.0% CPU use with 20 MPI tasks x no OpenMP threads

MPI task timing breakdown:
Section |  min time  |  avg time  |  max time  |%varavg| %total
---------------------------------------------------------------
Pair    | 0.5525     | 0.59219    | 0.62274    |   2.9 | 61.92
Neigh   | 0.077378   | 0.081214   | 0.08531    |   0.7 |  8.49
Comm    | 0.19448    | 0.22806    | 0.26565    |   4.9 | 23.84
Output  | 0.0003855  | 0.00039856 | 0.00048668 |   0.0 |  0.04
Modify  | 0.041083   | 0.046455   | 0.05202    |   1.6 |  4.86
Other   |            | 0.008123   |            |       |  0.85

Nlocal:        200.000 ave         209 max         194 min
Histogram: 3 1 2 5 2 2 3 0 1 1
Nghost:        2342.55 ave        2358 max        2322 min
Histogram: 1 0 0 1 4 5 5 2 1 1
Neighs:        21956.0 ave       23452 max       20188 min
Histogram: 2 2 1 1 2 2 1 5 3 1

Total # of neighbors = 439120
Ave neighs/atom = 109.78000
Neighbor list builds = 129
Dangerous builds = 0

#############################
# F R E E Z E  S Y S T E M  #
#############################

# Define solid atoms. This closely follows ten Wolde  Ruiz-Montero and Frenkel  Faraday Discuss  1996  104  93-110
# Compute components of the per-atom q6 vector
compute q6 all orientorder/atom degrees 1 6 components 6 nnn NULL cutoff 1.3 # compute the Q6 parameter.
                                                                             # Use all neighbours within 1.3 unit cell.

# get number of connections
compute coord_number all coord/atom orientorder q6 0.5

# An atom is solid if it has 8 or more connections (of a possible 14)
variable is_solid atom c_coord_number>=8
group solid dynamic all var is_solid    # Must be dynamic to update
dynamic group solid defined

# do clustering
compute cluster solid cluster/atom 1.3 # Create a cluster where all atoms within are solid and max 1.3 units from another member

# define chunks one chunk per cluster
compute clus_chunks solid chunk/atom c_cluster nchunk every compress yes  # Says which atoms are in which chunk

# count the size of each chunk
compute size_chunks solid property/chunk clus_chunks count


# Find the maximum entry in the vector of chunk sizes
variable max_n equal max(c_size_chunks)


# Thermo style which includes this variable
thermo_style custom step temp pe vol v_max_n

thermo ${N}  # Print the thermo information every 100 steps
thermo 100  

# Reset the npt fix at a lower temperature (below freezing)
fix 1  all npt temp  ${temp} ${temp}  0.1  iso  5.68  5.68  0.5  mtk yes tchain  5  pchain  5
fix 1  all npt temp  1 ${temp}  0.1  iso  5.68  5.68  0.5  mtk yes tchain  5  pchain  5
fix 1  all npt temp  1 1  0.1  iso  5.68  5.68  0.5  mtk yes tchain  5  pchain  5

dump dmp2 all dcd ${N} traj_${rand}.dcd
dump dmp2 all dcd 100 traj_${rand}.dcd
dump dmp2 all dcd 100 traj_462431.dcd


# fix rnuntil all halt ${N} v_max_n >= 3980 error soft message no   # Stop when solidified


run 100000 # 5000000  # Run for this many steps
Neighbor list info ...
  update every 1 steps, delay 10 steps, check yes
  max neighbors/atom: 2000, page size: 100000
  master list distance cutoff = 3.8
  ghost atom cutoff = 3.8
  binsize = 1.9, bins = 9 9 9
  4 neighbor lists, perpetual/occasional/extra = 1 3 0
  (1) pair lj/cut, perpetual
      attributes: half, newton on
      pair build: half/bin/atomonly/newton
      stencil: half/bin/3d
      bin: standard
  (2) compute orientorder/atom, occasional
      attributes: full, newton on
      pair build: full/bin/atomonly
      stencil: full/bin/3d
      bin: standard
  (3) compute coord/atom, occasional
      attributes: full, newton on
      pair build: full/bin/atomonly
      stencil: full/bin/3d
      bin: standard
  (4) compute cluster/atom, occasional
      attributes: full, newton on
      pair build: full/bin/atomonly
      stencil: full/bin/3d
      bin: standard
Per MPI rank memory allocation (min/avg/max) = 9.513 | 9.515 | 9.517 Mbytes
Step Temp PotEng Volume v_max_n 
    4000    1.0158944   -6.2194546    4162.9843            7 
    4100   0.99526048    -6.244579    4162.8393            4 
    4200    1.0011296   -6.2465062     4167.771            5 
    4300   0.97805283   -6.2472844    4161.7229            5 
    4400   0.98395285   -6.2611741    4157.5598            8 
    4500    1.0110735   -6.2651072    4165.3226            8 
    4600    1.0360611   -6.2513567    4168.9616            7 
    4700    1.0219164   -6.2653094     4157.196            6 
    4800   0.99910542   -6.2566138    4150.6956            4 
    4900    1.0028028   -6.2733097    4155.1184            6 
    5000    1.0011992   -6.2616133    4153.8542            7 
    5100   0.98844493   -6.2656662    4142.4299            8 
    5200   0.99247885   -6.2665365    4148.2896           10 
    5300   0.98772675   -6.2464103    4163.1195            6 
    5400    1.0219773   -6.2489653    4149.6806            5 
    5500    1.0018836   -6.2625835    4148.8033           10 
    5600   0.99281349   -6.2437081    4150.4399            6 
    5700   0.99294043   -6.2509729    4149.9636            8 
    5800   0.98268814   -6.2647098    4148.4026           12 
    5900    1.0108593   -6.2733814    4152.5635           10 
    6000   0.99674408   -6.2366866    4155.1339            7 
    6100    1.0170042   -6.2310923    4163.4235            7 
    6200   0.99348884   -6.2416415    4153.0586           18 
    6300    1.0021822   -6.2610773    4147.2003           10 
    6400   0.98252489   -6.2756371    4136.6404           16 
    6500      1.02329   -6.2968297    4143.1395            8 
    6600    1.0174613   -6.2573977    4155.9121            9 
    6700     1.002566   -6.2609037    4147.4384            8 
    6800   0.99628392   -6.2798672    4151.7491            4 
    6900   0.99244538   -6.2940367    4151.0108           11 
    7000   0.99417132   -6.3074604    4146.0549            6 
    7100   0.99110185   -6.2580108    4156.8775           14 
    7200    1.0186057   -6.2564439    4154.9068            9 
    7300    1.0048908   -6.2761181    4142.6109            4 
    7400   0.99614411   -6.2637509    4156.8977            4 
    7500    1.0230004   -6.2597042     4157.675            3 
    7600    1.0013007   -6.2588058    4152.9582            7 
    7700   0.99712889   -6.2723308    4154.5972            8 
    7800   0.99347132   -6.2752165    4158.0695            6 
    7900    1.0018793   -6.2430084    4164.3165            6 
    8000   0.99775253   -6.2879612    4151.9755            6 
    8100    1.0054767    -6.314772    4149.8233           15 
    8200   0.97182675   -6.3139627     4144.132            5 
    8300   0.98815228   -6.2879734    4148.0623            6 
    8400    1.0100246   -6.2785869    4141.3674           14 
    8500   0.99861823   -6.2697646    4146.7315            6 
    8600    1.0266816   -6.2994128    4153.0022            5 
    8700    1.0018558   -6.2940626    4147.3945            7 
    8800   0.98463711   -6.3017533    4134.9999            9 
    8900     1.010116   -6.2700983    4148.3374           12 
    9000     1.006431   -6.2748539    4147.6181           12 
    9100   0.98609497    -6.282626    4138.7289            7 
    9200   0.97585674    -6.293432    4144.8448           11 
    9300   0.99534209   -6.2890619    4156.3568           20 
    9400    1.0049689   -6.2905635     4155.484           10 
    9500   0.99686464   -6.2943271    4150.0201           13 
    9600    1.0206428   -6.2891057    4163.1463           11 
    9700    1.0120378   -6.2815353    4160.7316            7 
    9800   0.99429216   -6.2741377    4154.8646            5 
    9900   0.99055288   -6.2760197    4143.3844            4 
   10000     0.988839   -6.2959057    4133.1036            7 
   10100    1.0208366   -6.2918666      4148.95            7 
   10200   0.98013399   -6.2729097    4143.4773            4 
   10300    1.0027892   -6.2792127    4141.2525            4 
   10400    1.0123297   -6.2515651    4151.0586            8 
   10500    1.0349835   -6.2802163    4140.0669           10 
   10600    1.0137282   -6.2569665    4141.0553            8 
   10700    1.0018344    -6.265615    4147.7149            4 
   10800   0.97386776   -6.2436264    4149.2036            4 
   10900    0.9914404   -6.2296118    4155.6181            7 
   11000    1.0283635   -6.2645861    4167.2937            8 
   11100   0.99153175   -6.2640235    4163.3511            4 
   11200   0.99718597   -6.2728233    4160.2029            4 
   11300   0.99340522   -6.2912948    4160.3827            4 
   11400    1.0115757     -6.28067    4151.6523            4 
   11500    1.0069117   -6.2386206     4155.603            7 
   11600    1.0105403   -6.2553682    4145.3606            5 
   11700   0.99599662     -6.26678    4140.3595            9 
   11800    1.0204971   -6.2793168    4140.4934            9 
   11900   0.98181494   -6.2699471    4138.2749           13 
   12000      1.01177   -6.2668514    4145.4657            7 
   12100    1.0155176   -6.2477655    4165.3326           13 
   12200   0.99731942   -6.2416958    4165.3471           10 
   12300   0.99731353   -6.2715917    4158.6656           11 
   12400   0.98456532   -6.2574118    4153.2378           19 
   12500   0.99167228   -6.2852857    4158.5897            6 
   12600    1.0137498    -6.277711    4165.3581            8 
   12700   0.98512435   -6.2788112    4165.1129            9 
   12800    1.0069631   -6.2762889    4155.0283           15 
   12900    1.0181655   -6.2489916    4158.8834           18 
   13000   0.99683827   -6.2639506    4146.0908           14 
   13100    1.0272161   -6.2937054    4140.5858           10 
   13200   0.98973795   -6.2555332    4137.9445           12 
   13300    1.0235332    -6.251731    4151.0479            5 
   13400    1.0014196   -6.2429638    4143.7932            4 
   13500   0.98616931   -6.2671428    4142.3266            7 
   13600    1.0083845   -6.2508598    4160.4447           11 
   13700   0.99474341   -6.2486937    4159.4432            6 
   13800    1.0025978   -6.2857379    4145.6025            9 
   13900    0.9897569   -6.2961441    4145.0304            7 
   14000    0.9938962   -6.2573366    4150.1917            5 
   14100    1.0085383   -6.2575936    4159.6981            7 
   14200   0.99690222   -6.2756036     4155.075            5 
   14300   0.98755072   -6.2905695     4154.273            7 
   14400    1.0135208   -6.2840073    4155.5429            7 
   14500    1.0031775   -6.3189783    4143.4234            8 
   14600   0.98312982   -6.2767481    4145.5419            6 
   14700     1.004171   -6.2685161    4144.1728            9 
   14800    1.0147437    -6.252796    4139.1405            4 
   14900   0.98591139   -6.2705285    4148.1288            7 
   15000   0.98597025   -6.2734003    4161.6935            3 
   15100     1.006968   -6.2724858    4156.5414            9 
   15200   0.99347799   -6.2878509    4149.6986            9 
   15300   0.99229285   -6.2981911    4161.9177           11 
   15400    1.0103508   -6.2843946    4163.0802           11 
   15500    1.0122893   -6.2869555    4162.5057           19 
   15600   0.97762986    -6.281262    4156.6497           12 
   15700    1.0098181   -6.2952865     4160.381            3 
   15800    1.0127017   -6.2701767    4171.6028            8 
   15900    1.0097204   -6.2690771    4164.3036            5 
   16000   0.97294399   -6.2467424    4157.2385            9 
   16100   0.98912922   -6.2426396     4158.243            5 
   16200   0.99740977   -6.2749316    4158.9111            5 
   16300    1.0016591     -6.27197    4151.7991            8 
   16400   0.98469361   -6.2732194    4152.6711            7 
   16500    0.9931136   -6.3155506    4140.9551            3 
   16600   0.98572441   -6.2762453    4147.5161            7 
   16700   0.99898828    -6.255745    4150.0991            9 
   16800   0.99723341   -6.2751478    4153.4594            6 
   16900    1.0169881   -6.2754702    4162.7126            8 
   17000    0.9858219    -6.271185    4149.3367            5 
   17100    1.0154086   -6.2786289    4140.0861            6 
   17200    1.0274241   -6.2608861    4138.7341            3 
   17300   0.99149726   -6.2445544    4149.2968            8 
   17400    1.0067311   -6.2771881    4154.7708            9 
   17500   0.96514532   -6.2700646    4148.6346            7 
   17600   0.99689158   -6.2688252    4151.2433            3 
   17700   0.99760103   -6.2365991    4167.0037            5 
   17800    1.0002613    -6.254784    4158.3849           14 
   17900   0.98953504    -6.246295    4167.9606           10 
   18000   0.99901523   -6.2329278    4169.9282            4 
   18100   0.98633247    -6.260546      4157.32            6 
   18200    0.9923576   -6.2846725    4158.1319            7 
   18300    1.0267761   -6.2798556    4169.9301            6 
   18400   0.99693378   -6.2639497     4165.521            6 
   18500    0.9977725   -6.2695421    4160.0335           12 
   18600    1.0157439   -6.2862856    4164.9091            7 
   18700     1.006143   -6.2484064    4152.9663            8 
   18800   0.98650618   -6.2654608    4142.8746            6 
   18900   0.99882966   -6.2708212    4147.1067            4 
   19000    1.0174112    -6.277009    4134.0808            3 
   19100    1.0162959   -6.2550885    4142.8843            8 
   19200    1.0010296   -6.2680153    4142.7811           11 
   19300   0.99077684   -6.2955861    4138.0555            7 
   19400   0.96877137   -6.2807495    4152.3611            9 
   19500    1.0161826   -6.2986119    4163.6255            6 
   19600    1.0002786   -6.3057599    4170.1189            3 
   19700   0.98488738   -6.2783311    4175.9389            6 
   19800   0.97861367   -6.2872157    4164.6432            7 
   19900    1.0081001   -6.2759422     4152.024            5 
   20000   0.99780525   -6.2779272    4159.8273            5 
   20100    1.0064588   -6.2679557    4162.9092            6 
   20200   0.99824402   -6.2629319    4156.2572            5 
   20300   0.99419045   -6.2740233    4156.9343            5 
   20400   0.99694071   -6.2797406    4145.9772            5 
   20500    1.0149784   -6.2685073    4154.6083            5 
   20600    1.0027184   -6.2686668     4151.375            6 
   20700   0.99440572   -6.2450571    4141.7381           12 
   20800   0.98959826   -6.2835116    4140.8596            4 
   20900    1.0011493   -6.2968014    4141.7549            5 
   21000    1.0027137   -6.2781076    4156.7103            7 
   21100    1.0065489   -6.2835635    4158.5629            7 
   21200   0.98122244   -6.2759678    4158.5312           17 
   21300    1.0097776   -6.2868172    4150.6958            8 
   21400   0.98182195   -6.2943114    4147.8229            9 
   21500    1.0002722   -6.2835572    4162.8647            9 
   21600     1.008231   -6.2758698    4153.5685            5 
   21700   0.97516046   -6.2750283    4143.7944            4 
   21800   0.97582741   -6.2825003    4136.0408            6 
   21900    1.0123234   -6.2898506    4153.3113            7 
   22000   0.96837395   -6.2441694    4155.2576            6 
   22100    1.0229688   -6.2817673    4157.2283           15 
   22200   0.99717999   -6.2313894    4154.3752            3 
   22300   0.99121713   -6.2680958    4136.7402            8 
   22400    1.0082995   -6.2529996    4139.4585            8 
   22500   0.99708977   -6.2537194    4143.6587            4 
   22600   0.99647523   -6.2955087    4125.5244            7 
   22700    1.0160787   -6.3007659    4135.4087           10 
   22800    1.0082307   -6.2511164    4144.2691            6 
   22900   0.99983145   -6.2603556    4152.9492            8 
   23000   0.99640367   -6.2812862    4156.9594            8 
   23100   0.98422479   -6.2520911    4157.5047            6 
   23200     1.015244   -6.2541102    4160.4205           10 
   23300    1.0027185   -6.2823849    4150.8283            8 
   23400   0.99904024   -6.2739016    4129.5966            6 
   23500    1.0085221   -6.2795762    4129.5368            9 
   23600    1.0028277   -6.2719347    4145.3798            8 
   23700   0.99899693   -6.2808489     4154.319           11 
   23800   0.98587099   -6.2907615    4146.2539            6 
   23900    1.0046889   -6.2662456    4149.1579            4 
   24000   0.99440119   -6.2483954    4151.4229            7 
   24100    1.0111103   -6.3060849    4140.8651            9 
   24200    1.0037586   -6.2721184    4134.6447            6 
   24300    1.0068257   -6.2432371     4149.576            3 
   24400   0.99856106   -6.2779072    4133.4816           10 
   24500   0.99674124    -6.281127    4144.6471            8 
   24600    1.0015316   -6.2490821    4160.3021            7 
   24700   0.99768157   -6.2356281    4150.2707            9 
   24800    0.9894693   -6.2587817    4143.0126            4 
   24900      1.00887   -6.2490816    4149.3712            5 
   25000   0.99782168   -6.2585443    4142.6765            5 
   25100    1.0011753   -6.2827523    4150.9457            4 
   25200    1.0109851   -6.2705199    4158.3013            8 
   25300   0.99164916   -6.2757145    4165.6142            9 
   25400    1.0046423   -6.2364851    4165.6867            4 
   25500    1.0046353   -6.2717703    4152.7949           12 
   25600    0.9974629   -6.2651415    4149.4033            5 
   25700    1.0264547   -6.2534585    4159.0055            7 
   25800    1.0019664   -6.2740874    4151.3314            7 
   25900   0.99326058   -6.2884228    4142.9337            9 
   26000   0.98332776   -6.3065519    4141.3401            5 
   26100    1.0058284   -6.2863098    4153.0524            8 
   26200    1.0062309   -6.2714939    4147.1757            9 
   26300    1.0013973   -6.2907924    4142.0327            8 
   26400    1.0154675   -6.2603713    4157.5779            4 
   26500   0.99047727   -6.2666296    4166.5246            6 
   26600    1.0012167   -6.2929306    4163.0281            7 
   26700   0.98394652   -6.3021146    4155.0132            6 
   26800   0.99270277   -6.2778773    4138.4955            9 
   26900    1.0042631    -6.279475    4140.1032           10 
   27000   0.99666931   -6.2561953    4143.9474            8 
   27100    1.0226406    -6.257249    4164.5022            8 
   27200    1.0070151   -6.2570755    4153.9751            7 
   27300    1.0048212   -6.2531816    4155.1913            6 
   27400   0.97018837   -6.2600564    4162.8711            8 
   27500      1.00106   -6.2635477    4157.1067            7 
   27600    1.0046085   -6.2660521    4150.3141            7 
   27700   0.99547454   -6.2706487    4134.3124            6 
   27800    1.0046706   -6.2713547    4145.6874            6 
   27900    1.0242513    -6.268523    4150.0299            5 
   28000   0.98109983   -6.2603099    4136.5354            9 
   28100    1.0063569   -6.2622606     4143.919           10 
   28200   0.98704224   -6.2783014    4150.5704            5 
   28300   0.98399833   -6.2728891    4142.4184            8 
   28400   0.98587121    -6.234578     4153.088            4 
   28500    1.0174033   -6.2476431    4157.2779            8 
   28600   0.99362461   -6.2725349    4147.3767           11 
   28700     1.000944   -6.2724484    4159.4883            7 
   28800    1.0188889   -6.2695556    4161.1098            4 
   28900   0.99876032   -6.2721247    4148.7946           15 
   29000    0.9930624   -6.2412995    4164.6988            7 
   29100   0.99070561   -6.2554642    4169.9005            7 
   29200   0.98549233   -6.2843971    4150.7803            6 
   29300    1.0004095   -6.2813442    4155.4978            4 
   29400   0.99614222   -6.2490129    4168.6487            6 
   29500   0.99650967   -6.2725129    4159.4858           11 
   29600    1.0194188    -6.295888    4159.0617            6 
   29700    1.0266161   -6.2914828    4155.3399            6 
   29800   0.97308128   -6.2679136    4151.2067           11 
   29900   0.98912617   -6.2683145    4159.1814            8 
   30000   0.99101519   -6.2661631    4159.3678           20 
   30100    1.0082541   -6.2730591    4157.4464            6 
   30200    1.0066026   -6.2617036    4149.7257            8 
   30300    1.0024849   -6.2905081     4148.218            7 
   30400   0.97845956   -6.2737258    4139.9669           10 
   30500    1.0067303   -6.2658619    4156.1927            9 
   30600   0.98985737   -6.2691645    4145.9181            5 
   30700   0.99332188    -6.278071    4144.8416            6 
   30800    1.0106499   -6.2558829     4164.583            7 
   30900   0.98538848   -6.2480077    4143.9253            7 
   31000    1.0059742   -6.2598223    4140.7029            7 
   31100    1.0187912   -6.2548979      4151.58           10 
   31200    1.0285127   -6.2071713    4165.0805            3 
   31300    1.0029991   -6.2076099    4158.0439            6 
   31400    1.0114682   -6.2573501    4138.5341            7 
   31500    1.0223688   -6.2479229     4139.331            9 
   31600    1.0016976   -6.2624306    4145.5739            5 
   31700   0.97099161   -6.2876013    4138.1402            5 
   31800    1.0078625   -6.2818776    4141.6461            7 
   31900    1.0149474   -6.2795535    4151.7023            4 
   32000    1.0091588   -6.2516371    4168.6988           18 
   32100    0.9955594   -6.2687572    4168.5165           17 
   32200    1.0027353   -6.2834577    4160.4018           10 
   32300   0.97917142   -6.2871246    4149.4921            5 
   32400    1.0064177   -6.2698324    4151.2287            7 
   32500    1.0198871   -6.2576291    4143.6273            7 
   32600    1.0153926   -6.2528903    4131.8257            4 
   32700   0.99267141    -6.262376    4138.1927            5 
   32800     1.017817    -6.287695    4145.4243            5 
   32900    1.0089812   -6.2586241    4141.2665            5 
   33000    1.0078781   -6.2285655    4155.1486            5 
   33100    1.0145867    -6.282413    4147.1368            7 
   33200    1.0017643   -6.2742202    4150.6309            5 
   33300    1.0151924   -6.2715129     4159.113            6 
   33400   0.99813229   -6.2913311    4149.9471            8 
   33500    1.0081184   -6.3095478     4156.478            9 
   33600   0.99249686   -6.2324034    4166.4528           11 
   33700   0.99579583   -6.2427766    4160.2335            6 
   33800   0.98954273    -6.285218     4143.304           11 
   33900    1.0148796   -6.2941459    4156.5711            9 
   34000   0.99945296   -6.2691112    4163.5157            7 
   34100   0.99054284   -6.2930761    4156.6152            4 
   34200   0.97846958   -6.2772603    4149.5617            7 
   34300    1.0006715   -6.2706041    4151.8382            9 
   34400    1.0141282    -6.258011    4162.3501           16 
   34500   0.99665942   -6.2519667     4163.013            9 
   34600    1.0041759    -6.297533    4169.1467            8 
   34700   0.98023364   -6.2744163    4174.3333            7 
   34800   0.97934007    -6.287603    4152.4172            6 
   34900   0.99030953   -6.2656866    4153.2566            7 
   35000   0.99344229   -6.2739855    4155.7899            7 
   35100    1.0247547   -6.2817513    4159.4018            7 
   35200   0.97739565    -6.252775    4153.2238            4 
   35300    1.0050094   -6.2946065    4153.8615            5 
   35400   0.99293364   -6.2788518    4159.7572            8 
   35500   0.99882855   -6.2754959    4153.8488            2 
   35600    1.0066383   -6.3162421    4140.8641            5 
   35700   0.99864071   -6.2737118    4141.7373            3 
   35800    1.0104913   -6.2477268    4133.2501            4 
   35900    0.9945061   -6.2265916    4129.0789            4 
   36000    1.0172604   -6.2743048    4142.4723            8 
   36100    1.0042315   -6.3039473    4137.1073           11 
   36200    1.0056228   -6.2764345     4147.218           10 
   36300   0.99483235   -6.2656291    4151.9522            6 
   36400    1.0376266    -6.287549    4156.4167            4 
   36500    0.9931239   -6.2440459    4158.3648            7 
   36600    1.0010881   -6.2843275    4142.5523            8 
   36700    1.0111732   -6.2826385    4152.3531           17 
   36800   0.98725835   -6.2530969    4167.0215            6 
   36900    0.9846271   -6.2518583    4171.8656            8 
   37000   0.98156943   -6.2855882    4151.6514            7 
   37100    1.0060016    -6.269709    4159.5787           12 
   37200   0.98444448   -6.2450905     4167.389           10 
   37300   0.97548324   -6.2888048    4152.2478            3 
   37400   0.99404021   -6.2863258    4147.0869            5 
   37500      1.01568   -6.2663038    4154.7767            6 
   37600    1.0114737   -6.2750781    4147.4314            6 
   37700    1.0271454   -6.2889959    4143.3363            5 
   37800    1.0030831   -6.3033931    4141.7075            5 
   37900   0.98580066   -6.2632064    4156.1311            6 
   38000   0.99504043   -6.2860282    4152.2759            9 
   38100   0.99520487     -6.28038    4146.5455            7 
   38200   0.99761683   -6.2276463    4153.1955           11 
   38300    1.0115199   -6.2530079     4152.315            8 
   38400    1.0036642    -6.278481    4134.6188            7 
   38500   0.99519541   -6.2814417    4146.2075            7 
   38600    1.0218034     -6.29475    4152.4239           10 
   38700    1.0163527   -6.2951811    4144.1479            7 
   38800    1.0054548   -6.2481347    4166.3729           10 
   38900    1.0009517    -6.282389     4164.473           13 
   39000   0.96931034   -6.2912355    4152.3151            6 
   39100   0.99675347   -6.2993807    4159.7009           14 
   39200    1.0183522   -6.2740644    4165.6664           11 
   39300    1.0007437   -6.2849216    4158.2874            6 
   39400   0.99976971   -6.2744956    4150.3614            4 
   39500   0.99340604   -6.2603729    4154.2804            3 
   39600   0.99950997   -6.2664341    4154.3425            7 
   39700   0.97963396   -6.2724159    4143.3959            9 
   39800    1.0193207   -6.2820875    4143.3612            4 
   39900    1.0076572   -6.2927941    4142.8378            5 
   40000   0.97277981   -6.2953561     4136.942            4 
   40100   0.99734047   -6.2845108    4141.2153            8 
   40200     1.018437   -6.2911401    4148.1112            5 
   40300    1.0147568   -6.2744341     4157.128            4 
   40400    1.0181956   -6.2489149    4151.2085            7 
   40500    1.0025938   -6.2594704    4145.7145            4 
   40600   0.98966765   -6.2680724    4142.1896            8 
   40700    1.0138477   -6.2772283    4149.8312            9 
   40800   0.99532444     -6.26776    4153.3969            4 
   40900    1.0030583   -6.2903464    4160.2451            4 
   41000   0.99523384   -6.2540368    4165.2311            2 
   41100   0.98200639   -6.2849317    4159.4214            5 
   41200   0.96908464   -6.3012353     4155.972            3 
   41300   0.99592029    -6.279093    4160.9057            5 
   41400    1.0029606   -6.2986009    4149.8126            3 
   41500   0.98594449   -6.2848987    4148.4726            6 
   41600    1.0016913   -6.2727274    4159.3716            8 
   41700   0.99881947   -6.2809478    4154.8871            6 
   41800    0.9870285   -6.3055076    4147.6009            5 
   41900   0.99755601   -6.2949852    4156.1277            8 
   42000   0.98743478   -6.2424906    4174.5893           10 
   42100   0.98039576   -6.2345191    4179.1305           12 
   42200   0.98370323    -6.275817      4159.18           10 
   42300    1.0148743   -6.3031647    4156.7171            5 
   42400    1.0040794   -6.3089977    4164.4459            6 
   42500   0.97241736    -6.258543    4174.4782            6 
   42600    1.0104238   -6.2663512    4173.2126            5 
   42700     1.000347   -6.2706187    4162.0647            5 
   42800   0.98196532   -6.2700223    4151.9143           11 
   42900    1.0075409    -6.250962    4158.0643            4 
   43000    1.0058364   -6.2542052    4150.4974            5 
   43100   0.99550038   -6.2823291    4144.4744            9 
   43200    1.0155879   -6.2646647    4150.2527            9 
   43300   0.98737852   -6.2345128    4155.3101            4 
   43400     1.004805   -6.2858859    4151.8871            4 
   43500   0.98991699   -6.2809016    4158.5667           13 
   43600    1.0005475   -6.2697996    4154.7224            8 
   43700   0.99367622   -6.2843243    4141.1014            6 
   43800   0.99678102   -6.2866753    4133.0254            4 
   43900    1.0192412   -6.2956702    4143.9255            6 
   44000    1.0033432   -6.2744496    4146.1265            5 
   44100    1.0172874   -6.2548202    4158.6969           13 
   44200   0.99304013   -6.2693466    4153.7957           11 
   44300    1.0048653   -6.2948653    4158.6657            7 
   44400    1.0023481    -6.272447    4165.4922            9 
   44500    1.0194761   -6.2731732    4172.1694            7 
   44600   0.98948777   -6.2790771    4155.8807            4 
   44700    1.0093057   -6.2870604    4163.4259            6 
   44800    1.0007443   -6.2593137    4171.9762            5 
   44900    1.0127769   -6.2601446    4170.3854            5 
   45000    1.0141569   -6.3031839    4149.8279            5 
   45100   0.99762019   -6.2792085     4143.857            9 
   45200    1.0084776   -6.2438931    4152.1341           12 
   45300    1.0105793   -6.2601281    4147.1623            9 
   45400   0.99049488   -6.2786134    4131.9515            4 
   45500   0.99204937   -6.2779097    4138.5479            7 
   45600    1.0113786   -6.2650859    4151.5158            7 
   45700    1.0107842   -6.2658756     4154.575            4 
   45800   0.99277094   -6.2867918    4152.4861            5 
   45900   0.99272094   -6.2492275    4170.1822            6 
   46000    1.0003671   -6.2514793    4165.2252            8 
   46100    1.0052362   -6.2840256    4158.1695            4 
   46200   0.99441075   -6.2902647    4156.4405            5 
   46300   0.99590704   -6.2417069    4161.8226            3 
   46400   0.99993426   -6.2252506    4153.3043            7 
   46500    1.0019141   -6.2564554    4150.0242            8 
   46600   0.98811251   -6.2359631    4134.9452            5 
   46700    1.0318455    -6.297843    4123.0674            8 
   46800     1.014601   -6.2649851    4136.1793            7 
   46900    1.0039213   -6.2591439    4148.8222            6 
   47000    1.0303049    -6.269669    4162.2547            6 
   47100   0.98983846   -6.2454091    4149.2721           12 
   47200   0.98279317   -6.2678989    4151.7659            9 
   47300   0.99852423   -6.2659098    4149.0189            4 
   47400    1.0027672   -6.2234609    4151.7589            3 
   47500    1.0067708   -6.2461115     4156.556            3 
   47600   0.98965103   -6.2526645    4147.5523            7 
   47700    1.0086842   -6.2559626    4149.2687            5 
   47800    1.0060785   -6.2583607    4149.6842            4 
   47900    1.0028487   -6.2806742    4147.8513            6 
   48000   0.99460347      -6.2421    4163.3246            2 
   48100    1.0270919   -6.2559523    4158.8264            7 
   48200    1.0040938   -6.2614531    4141.6402            6 
   48300   0.99281138   -6.2748248    4141.2538            7 
   48400    1.0055285   -6.2362062    4153.8422            9 
   48500    1.0060803   -6.2769419    4154.6966            7 
   48600   0.99543784   -6.2965143    4157.9885            6 
   48700    1.0000028   -6.2960995     4170.705            3 
   48800   0.97843571   -6.2671877    4181.4786            4 
   48900   0.98936372    -6.267919     4161.829            4 
   49000   0.97554677   -6.2859526    4149.5062            5 
   49100    1.0002505   -6.3114016    4146.6141            7 
   49200    1.0030329    -6.261182    4155.2829            4 
   49300   0.99467042   -6.2825725    4143.9894            4 
   49400   0.99152172    -6.269811    4142.6543            5 
   49500   0.99120725   -6.2439436    4143.4714            6 
   49600    1.0321796    -6.255435     4135.454            5 
   49700    1.0258113   -6.2660767    4135.8747            6 
   49800    1.0042016   -6.2720639    4136.4248            8 
   49900   0.98484362   -6.2801841    4149.7367            3 
   50000    1.0051508   -6.2743333    4167.3381            8 
   50100   0.97904228   -6.2648665    4178.9387           16 
   50200    1.0029042   -6.2637565     4173.167            9 
   50300    1.0020299   -6.2703037    4152.5324           13 
   50400   0.98587769   -6.2716153    4153.0562            5 
   50500     1.009373   -6.2728428    4146.4149            6 
   50600     1.000981   -6.2945315    4139.1672            6 
   50700     1.004816   -6.2717874    4141.7236           11 
   50800   0.99684138    -6.286294    4156.7301           12 
   50900   0.98845465   -6.2733417    4163.2085            7 
   51000    1.0009057   -6.2731121     4169.674            9 
   51100    1.0168145   -6.2799136    4155.2006            7 
   51200    1.0100207   -6.2791041    4165.0877            9 
   51300    1.0078448   -6.2715505    4162.1849            8 
   51400   0.99142587   -6.2826271    4160.0783            6 
   51500   0.98200303   -6.3176193    4151.6248            7 
   51600    1.0101828   -6.2892764    4143.7046           11 
   51700   0.99960564   -6.2527195    4152.4578            4 
   51800    1.0023775   -6.2333239    4157.9709            3 
   51900     0.987932   -6.2626964    4154.1522            7 
   52000    0.9870665   -6.2865238    4160.7915            6 
   52100   0.99528009   -6.2414831    4175.9484            5 
   52200    1.0003277   -6.2637745    4160.0752            9 
   52300   0.99072875   -6.2689694    4146.0577            5 
   52400   0.98995582   -6.2745788    4142.9055            9 
   52500    1.0057313   -6.2532351     4152.431            6 
   52600    1.0087484   -6.2903711    4150.9625            5 
   52700   0.99913928   -6.3060977    4143.9454            7 
   52800    1.0118623   -6.2942335    4143.5761            9 
   52900    1.0095855   -6.2690972    4149.2675            5 
   53000     1.002456   -6.2861817    4148.3369            6 
   53100    1.0098887   -6.2884075    4137.7745            6 
   53200     1.022181   -6.3071861    4131.6293            8 
   53300   0.97540577   -6.2820599    4128.0309            9 
   53400    1.0061094   -6.2865067    4137.5379            5 
   53500   0.98423397   -6.2608314    4146.7176            6 
   53600    1.0031982   -6.2604478    4162.3793            5 
   53700    1.0158977   -6.2653865    4146.6618            7 
   53800    1.0027716   -6.2664439    4135.4092            7 
   53900     1.014804     -6.26733    4148.8811            7 
   54000     0.997269   -6.2464865    4166.6185            7 
   54100    1.0037791   -6.2276189    4165.7785            6 
   54200   0.98991213   -6.2586237    4153.2706            5 
   54300    1.0112019   -6.2850952    4145.9621           11 
   54400   0.99766629   -6.2834564    4143.1002            6 
   54500    1.0154802    -6.257055    4153.8701            4 
   54600   0.99864026   -6.2779896    4159.0532            5 
   54700    1.0059581   -6.3190386    4148.9786           11 
   54800   0.97583944   -6.3072015    4135.7518           18 
   54900   0.97903392   -6.2800424    4146.6162            9 
   55000    1.0045862   -6.2909106     4145.371           16 
   55100    1.0078542   -6.2578737    4154.2152            9 
   55200    1.0197747   -6.2503467    4152.5787           11 
   55300   0.99997905   -6.2631309    4140.0486            5 
   55400    1.0121063   -6.2827239    4131.5538            5 
   55500   0.98423107   -6.2657923     4143.315           10 
   55600    1.0198747    -6.274543    4149.5893            5 
   55700   0.97894607   -6.2565992    4146.0808            3 
   55800    1.0147177   -6.2674324    4146.2108            7 
   55900   0.99937008   -6.2518283    4136.5028            6 
   56000    1.0111094   -6.2851457    4148.5346            8 
   56100    1.0103328   -6.2660925    4159.4302            2 
   56200   0.98776528   -6.2769066    4166.0634            7 
   56300    1.0084735   -6.2884919    4158.9942           12 
   56400    0.9967722    -6.309947    4137.4769            6 
   56500    0.9937369   -6.2756352      4155.31            3 
   56600    1.0084606   -6.2684145    4142.9628            8 
   56700   0.99228063   -6.2759273    4138.8596           10 
   56800    1.0258801   -6.2897474    4149.1484            9 
   56900     1.039273   -6.2756632    4159.8615            6 
   57000   0.99023006   -6.2618006    4165.2482            4 
   57100    1.0038664   -6.2538382    4159.4852            8 
   57200   0.99452932   -6.2657783    4159.9765           12 
   57300   0.99325933    -6.246602    4157.2257            6 
   57400    1.0124806   -6.2305796    4166.5323            4 
   57500   0.99812801    -6.259816    4154.4713            5 
   57600   0.99079865   -6.2622432    4150.1184            6 
   57700   0.99881249   -6.2726581     4152.535            9 
   57800   0.97746494   -6.2673766    4157.2816            4 
   57900    1.0136135   -6.2529576    4156.2719            5 
   58000    1.0007281   -6.2669795    4151.2254            8 
   58100    0.9942351   -6.2800139    4143.4903            6 
   58200   0.99881458   -6.2561673    4158.1307            6 
   58300    1.0021513   -6.2469309    4166.9841            3 
   58400   0.99960276   -6.2925379    4151.4699            3 
   58500    0.9953702   -6.2817426    4157.1757            3 
   58600    1.0164706   -6.2649175    4160.6828            4 
   58700    1.0075131   -6.2705908    4153.7917            6 
   58800   0.99144712   -6.2985485    4144.6033            6 
   58900    1.0102857   -6.2964778    4149.9381            6 
   59000   0.99522662   -6.2593077    4151.2035            5 
   59100     1.000716   -6.2675221    4155.5272            6 
   59200    0.9874027   -6.2900731     4146.103           10 
   59300   0.98292976   -6.2794816    4163.4254            8 
   59400   0.99881881   -6.2868238    4165.0638            6 
   59500    0.9799227   -6.3081643    4160.6974            3 
   59600     0.999562    -6.278976    4163.6884            4 
   59700    1.0152451   -6.2820468    4152.8941            3 
   59800   0.98658398   -6.2706969    4153.6772            8 
   59900    1.0152975   -6.3006435    4156.3129            7 
   60000   0.98618284   -6.2483467    4158.1016            7 
   60100    1.0070515   -6.2671327    4165.4325            5 
   60200   0.99249882   -6.2681136    4160.1323            4 
   60300     1.004591   -6.2784037    4153.7887            6 
   60400   0.98820562   -6.2406355    4153.1226            4 
   60500    1.0134638   -6.2378927    4154.2058            5 
   60600    1.0146335   -6.2738496    4145.1351            7 
   60700    1.0059005    -6.251108    4151.3896            6 
   60800    1.0307144   -6.2483451    4160.5271            7 
   60900   0.99236183   -6.2412626    4150.8991            8 
   61000    1.0050065    -6.257168    4159.2621           10 
   61100   0.98837298   -6.2289745    4166.3373            5 
   61200   0.99309209   -6.2634667    4157.5972           11 
   61300    1.0015782   -6.2775746    4148.9622            6 
   61400    1.0191629   -6.2635937    4139.2075            6 
   61500    1.0304359   -6.2354108    4154.2258            7 
   61600    1.0104303   -6.2597155    4151.8167            6 
   61700   0.98091913   -6.2528475    4159.8602            6 
   61800   0.98398424   -6.2568052    4162.3353            7 
   61900    0.9902377   -6.2467225    4158.0719            3 
   62000    1.0057723   -6.2626173    4154.8434            3 
   62100    1.0027351   -6.2942423    4140.4945           11 
   62200   0.99346442   -6.3172498     4130.209           13 
   62300   0.98770372   -6.2637858    4148.6519            5 
   62400   0.99917044   -6.2528312    4145.8711            4 
   62500    1.0228473   -6.2692488    4143.2438           10 
   62600   0.97920151   -6.2365232    4139.9772            9 
   62700   0.98700175   -6.2835369    4136.3344           11 
   62800   0.99575749   -6.2600789    4151.1643            8 
   62900    1.0166622   -6.2923772    4157.5323            6 
   63000   0.98841797   -6.2790018     4150.175            6 
   63100   0.99572347   -6.2576573     4151.011           17 
   63200    1.0079844   -6.2579513    4161.1625           14 
   63300    1.0018533   -6.2796923    4144.9926           27 
   63400   0.99107536   -6.2872577    4138.9095           16 
   63500   0.99976742   -6.2521731    4144.4248           15 
   63600    1.0068746   -6.2404706    4146.2736           10 
   63700    1.0113059   -6.2863442     4146.814            4 
   63800   0.99333646   -6.2734129    4133.6097            5 
   63900    1.0079872    -6.256124    4141.4919            4 
   64000    0.9942834   -6.2363068    4152.0746            8 
   64100    1.0200367   -6.2387605    4157.1522            9 
   64200    1.0145848   -6.2657251    4141.8681            7 
   64300   0.98853329   -6.2453789    4145.9694            6 
   64400    1.0095043   -6.2354691    4159.0193            6 
   64500   0.99313297   -6.2491684    4149.7569            7 
   64600   0.98960167   -6.2579254    4142.4227            5 
   64700    1.0163996   -6.2691953    4147.3584            5 
   64800   0.99167682   -6.2422822    4141.7874            9 
   64900    1.0226394   -6.2573219    4153.1813            5 
   65000    1.0083905   -6.2567937    4157.5623           14 
   65100    1.0061722   -6.2578749    4146.3498           15 
   65200   0.99124713    -6.260548    4148.3487            7 
   65300    0.9915247   -6.2699162     4148.296            5 
   65400   0.99717299   -6.2750886    4154.5265            7 
   65500    1.0010844   -6.2640185    4156.0216            8 
   65600   0.99612723   -6.2685013    4143.8227            6 
   65700    1.0017576   -6.2746839    4133.8212            8 
   65800    1.0258648   -6.2782713    4148.5969            7 
   65900    1.0023921   -6.2804057    4157.6715            8 
   66000     1.001998   -6.2770563    4159.2984           15 
   66100   0.99298379    -6.236642    4164.2357            7 
   66200   0.99945635   -6.2292033    4173.8122            3 
   66300   0.99172318   -6.2591007     4152.338            9 
   66400    1.0072012   -6.2788958    4161.2413            3 
   66500    1.0007525   -6.2629346    4157.8928            6 
   66600   0.99401122    -6.255886    4140.5933            3 
   66700    1.0227526   -6.2644249    4146.6198            6 
   66800    1.0200254   -6.2362587    4156.4984            9 
   66900   0.98754931   -6.2416623    4153.2567            4 
   67000   0.99278796   -6.2589237    4145.5795            7 
   67100   0.96966696   -6.2986401    4137.6314            7 
   67200   0.98928468   -6.2851381    4151.4268            6 
   67300    1.0026737   -6.2839784    4161.9773            5 
   67400   0.98046714   -6.2924459    4156.7353            5 
   67500   0.99176852   -6.2873396    4155.1712            5 
   67600    1.0052812   -6.2644103    4151.2424            3 
   67700   0.99387116     -6.26634    4161.8461            5 
   67800    1.0056088   -6.2600905    4177.3523            9 
   67900    0.9850378    -6.258044    4177.8114            9 
   68000   0.98732433   -6.2807287    4164.4604            6 
   68100    1.0014275   -6.2586064    4159.0639            3 
   68200    1.0185466    -6.247833    4167.8671            4 
   68300   0.99827281   -6.2570432    4157.0931            5 
   68400   0.99758751   -6.2607513    4154.7405           14 
   68500   0.98442861   -6.2850509    4154.9395            5 
   68600    1.0015588   -6.2836484    4140.8374           13 
   68700   0.97329117   -6.2725158    4137.3518           10 
   68800    1.0172557   -6.2896883    4150.1101           12 
   68900   0.98383711   -6.2763884     4156.359            4 
   69000   0.98979588   -6.3135837    4152.1895            6 
   69100    0.9900944   -6.2731982    4158.3439           11 
   69200   0.99586956   -6.2645627    4164.0503            5 
   69300   0.97357937   -6.2448321    4162.5792            4 
   69400    1.0151495    -6.265072    4150.3923            6 
   69500   0.99350474   -6.2517138    4154.8679            7 
   69600    1.0061343   -6.2723515    4142.2862            4 
   69700   0.99184677   -6.2868938    4130.2899            9 
   69800   0.98497669   -6.2575292    4139.1599            3 
   69900    1.0123293   -6.2711454    4152.7874            4 
   70000   0.98036199   -6.2792271    4148.4673            7 
   70100    1.0006458   -6.2792094    4140.1713            4 
   70200   0.99555226   -6.2327129    4155.2861            5 
   70300    1.0121249   -6.2657249    4161.8437            7 
   70400    1.0062833   -6.2760458    4147.6768           15 
   70500    1.0258082   -6.2827988    4148.5875           13 
   70600   0.98440325   -6.2649135    4149.5249            8 
   70700    1.0158271   -6.2873325    4157.1136            5 
   70800   0.97326367   -6.2777461    4155.8273            5 
   70900   0.98231998   -6.3191517    4145.9204            5 
   71000    0.9740373    -6.282003    4151.4199           12 
   71100     1.011408   -6.2876672    4159.8785           15 
   71200    0.9770475   -6.2793523    4151.1198           15 
   71300    0.9891353   -6.2964801    4148.8177           18 
   71400    1.0268469   -6.2944153    4148.8676           13 
   71500   0.99248232   -6.2754168    4142.3817           12 
   71600   0.99580572   -6.3246541    4140.6567           15 
   71700   0.99999578   -6.2993273    4150.5179           16 
   71800    1.0158812   -6.2859302     4155.722           14 
   71900    1.0259627   -6.2519196    4156.9472           21 
   72000    1.0105937   -6.2606055    4162.0718           15 
   72100   0.98691796   -6.2687752    4159.2802            8 
   72200   0.99855567   -6.2832963    4168.2879            3 
   72300   0.96969436   -6.2718531    4177.3623            5 
   72400   0.97712966   -6.2490882    4177.9344            4 
   72500    1.0175564    -6.275136    4170.5584            9 
   72600   0.99426732   -6.2777409    4159.4097            8 
   72700   0.99448111   -6.2724025    4161.2189            6 
   72800   0.99643992   -6.2611705    4168.0098           12 
   72900   0.98279093   -6.2578981     4152.521            6 
   73000     1.009946   -6.3021481    4153.3671            3 
   73100    1.0129214   -6.2594072    4165.0363            5 
   73200   0.99175787   -6.2750403    4153.0319            6 
   73300    1.0123281   -6.2718712    4151.6453            4 
   73400    1.0051926   -6.2663473    4150.0735            8 
   73500    1.0098303    -6.266825     4151.263            8 
   73600    0.9910791   -6.2717176    4151.4362            6 
   73700   0.99235947    -6.282471    4147.9929            8 
   73800   0.99226098   -6.3206022    4144.1664            6 
   73900    1.0005291   -6.2886104    4149.5282            8 
   74000   0.99784656   -6.2970591    4147.0958            3 
   74100   0.99121198   -6.3257479     4125.322            8 
   74200    1.0039879   -6.3235135    4134.7874           10 
   74300   0.98372705   -6.2958841    4152.3351            6 
   74400    1.0087988     -6.30148     4163.375            5 
   74500   0.97902911    -6.303496    4169.5781            8 
   74600   0.99285408   -6.2615155    4171.6376            5 
   74700    1.0011411   -6.2810792     4161.113            5 
   74800    0.9809926   -6.3033638    4151.7593            7 
   74900   0.99962152   -6.2823072    4158.5349            6 
   75000   0.98893284   -6.2890991    4156.3474            6 
   75100   0.99045451   -6.2769023    4146.1769            7 
   75200   0.99702699   -6.2618299    4163.6287           10 
   75300    1.0153697    -6.255435    4166.1227            9 
   75400   0.98502036   -6.2576638    4154.8987           10 
   75500     1.005912   -6.2833085     4151.488           17 
   75600   0.99280891   -6.3114077    4140.6827            4 
   75700    1.0055113   -6.2885351    4148.9716            6 
   75800    1.0287651   -6.2719267    4158.0279           15 
   75900    1.0105248   -6.3037694     4150.824           10 
   76000   0.99459701   -6.2613483    4161.5095           11 
   76100   0.99622843   -6.2527563    4159.7494            7 
   76200   0.99817366   -6.2738929    4154.2251           13 
   76300   0.98515095   -6.2664685     4158.695            5 
   76400   0.99354335    -6.277226    4155.2354           17 
   76500    0.9837092   -6.2777777    4154.6748            7 
   76600   0.98562576   -6.2701795    4169.7977            4 
   76700    1.0049964   -6.2738277    4173.5498            4 
   76800   0.99060612   -6.2747109    4160.6717            5 
   76900   0.99288623   -6.2760492     4146.992            5 
   77000    1.0036878   -6.2500917    4153.9744            5 
   77100    1.0247377   -6.3047727    4146.9304            7 
   77200   0.99428937     -6.26904    4145.9833            6 
   77300    1.0147057    -6.271881    4140.5252            6 
   77400    1.0066298   -6.2444674    4138.4286           10 
   77500    1.0267717   -6.2332932    4150.2461            9 
   77600    1.0044041   -6.2242762    4158.5389            7 
   77700    1.0105493   -6.2576966    4165.4577           10 
   77800   0.98479866   -6.2476568    4165.8577           17 
   77900    1.0012496   -6.2665074    4169.1951           11 
   78000   0.97480193   -6.2446618    4166.2737           12 
   78100    1.0109236   -6.2625587    4159.7604           13 
   78200    1.0332868   -6.2449878    4170.5719           18 
   78300     1.004077   -6.2500472    4141.5445           29 
   78400    1.0068458   -6.2611113     4141.187           22 
   78500    1.0270029   -6.2457376    4156.1027           20 
   78600    1.0147423   -6.2779297    4152.7963           16 
   78700   0.99554852   -6.2891807    4145.5391            6 
   78800    1.0050397   -6.2952297      4142.23            4 
   78900    1.0041814   -6.2815643    4145.3975            4 
   79000    1.0184885   -6.2708962    4153.0578            4 
   79100    1.0147352   -6.2681314    4154.0658            3 
   79200   0.99731865   -6.2667157    4156.1874            9 
   79300   0.97692312   -6.2757953    4153.6119            9 
   79400   0.98545802   -6.3016568    4151.6876            4 
   79500    1.0132219   -6.2914289    4158.1196            9 
   79600   0.99809983   -6.2346494    4152.2486            7 
   79700   0.99044728   -6.2558393    4151.1564            8 
   79800    0.9905809   -6.2660404    4159.3956            7 
   79900    1.0032254   -6.2770069    4172.7331            4 
   80000   0.99128237    -6.262331    4157.3855            5 
   80100   0.99990779   -6.2841479    4157.6467            5 
   80200    0.9988297   -6.2629466    4163.6744            5 
   80300   0.98126991   -6.2646963    4155.6738            4 
   80400    1.0036895   -6.2875309    4150.0866            5 
   80500    1.0107729   -6.2760582    4163.0869            4 
   80600   0.99496443   -6.2602243    4164.4849            5 
   80700    1.0160174   -6.2540471     4148.305            5 
   80800    1.0058097   -6.2703374    4151.7276            6 
   80900     0.993052   -6.2615771    4145.1134            8 
   81000   0.98695362   -6.2858485    4140.9602            5 
   81100    1.0038951   -6.2619243    4146.8318            5 
   81200    1.0142668   -6.2665101    4145.7542            5 
   81300   0.99057372   -6.2796322    4140.8266            6 
   81400   0.99225691   -6.2660939    4144.0787            7 
   81500    1.0231534   -6.2640607    4148.6226            9 
   81600    1.0016307   -6.2793263    4143.3612           10 
   81700    0.9935708   -6.2339746    4148.3649            6 
   81800    1.0024131    -6.248243     4155.537           10 
   81900   0.98773273   -6.2539367    4152.6524            8 
   82000   0.99354235    -6.299935      4140.77            8 
   82100    1.0047502   -6.2675483    4153.5783           10 
   82200   0.99084012   -6.2423251    4162.1457            4 
   82300   0.99237742   -6.2435244    4165.5216            4 
   82400   0.99328462   -6.2907675    4154.7746            9 
   82500    1.0061203   -6.2769952    4162.7843           11 
   82600    1.0091015   -6.2812493    4161.0049            6 
   82700   0.98774921   -6.2731695    4152.1807           13 
   82800    1.0065625   -6.2947022    4157.2364           13 
   82900    1.0048495   -6.2694874    4166.4636            7 
   83000   0.98483037   -6.2589229    4166.2462           14 
   83100      1.00171   -6.2582103    4152.2642           13 
   83200    1.0056108    -6.276873    4155.2386            6 
   83300   0.98025937   -6.2669981    4154.3795            9 
   83400    0.9957346   -6.2990736    4140.2407            6 
   83500    1.0059585   -6.2634394    4146.8081           10 
   83600   0.98938692   -6.2753287    4135.2471           22 
   83700    1.0115777   -6.2621782     4130.889           11 
   83800   0.99295865   -6.2475893    4135.0177            9 
   83900    1.0163031   -6.2654175    4145.0188           10 
   84000   0.99464492   -6.2671375    4149.3981           10 
   84100   0.99912802   -6.2555618    4155.3022            5 
   84200   0.98548799   -6.2858225    4143.4739            5 
   84300    1.0029722   -6.2519199    4135.7392            9 
   84400    1.0068398   -6.2714186    4134.9695            6 
   84500    1.0052776   -6.3090466    4137.4247           11 
   84600      1.01414   -6.2979856    4144.8855            5 
   84700   0.98131553   -6.2400689    4149.5204            5 
   84800   0.98498223   -6.2863075    4158.5884           14 
   84900    1.0040085   -6.2950602    4165.9799           15 
   85000   0.96943916   -6.2422335    4166.0666            4 
   85100    1.0029805   -6.2624971    4160.4823            4 
   85200    1.0075644   -6.2952875    4143.6909            9 
   85300    1.0127826   -6.3230211    4151.2538            6 
   85400   0.98858866   -6.3024113    4162.1047            4 
   85500    1.0039963   -6.2713298    4169.0553           16 
   85600    0.9936669   -6.2920847    4153.0392           14 
   85700   0.99694944   -6.2799676    4148.0444           24 
   85800    1.0170899   -6.2823334    4154.7655           25 
   85900   0.99090423   -6.2709574    4150.5187            9 
   86000    1.0180963   -6.2743523    4145.1969            4 
   86100    1.0062235   -6.2425852    4148.4991           10 
   86200    1.0190313   -6.3020348    4143.1091           11 
   86300   0.97556641    -6.284993    4158.8281           12 
   86400     1.015724   -6.3009508    4161.3726            8 
   86500   0.98629843   -6.2774988    4158.1601            6 
   86600   0.99449129   -6.2953843    4164.9557            8 
   86700    1.0007984   -6.2793386    4165.2015            8 
   86800   0.97752564   -6.2904633    4150.9378           11 
   86900   0.99812238   -6.3169803    4151.2786            6 
   87000   0.98934116   -6.2790137    4156.1589            6 
   87100   0.99844311   -6.2724376    4139.0803            3 
   87200    1.0143353   -6.2692792    4139.2177           12 
   87300     1.009852   -6.2627773    4143.7611            5 
   87400     1.015278   -6.2829551    4135.6501            4 
   87500    1.0068156   -6.3043694    4133.6803            6 
   87600    1.0022398   -6.2449527    4155.4638            8 
   87700    1.0102002   -6.2781933    4144.5209            5 
   87800   0.98987345   -6.2741496     4148.175            3 
   87900    1.0004496   -6.2437225    4153.7215            8 
   88000    1.0153423   -6.2633929    4157.4186            9 
   88100    1.0107343   -6.2996973    4138.8717            5 
   88200    1.0010762   -6.2825373    4133.3554            7 
   88300    1.0157454   -6.2719288    4163.7824            4 
   88400    1.0025218   -6.3029078    4151.4376            6 
   88500    0.9985268   -6.2688973    4155.4844            5 
   88600   0.98908984   -6.2701372     4161.025            6 
   88700   0.96706534   -6.2432821    4153.4978            4 
   88800   0.99242552   -6.2779212    4146.9617            4 
   88900   0.98403577   -6.2810116     4148.705            9 
   89000    1.0031883   -6.2741636    4155.1542            4 
   89100    1.0117464   -6.2838932    4151.2043            9 
   89200    1.0069538    -6.277759    4156.6871            4 
   89300    1.0052286   -6.2612101    4162.2727            4 
   89400    1.0150305   -6.2263628    4161.6225            4 
   89500    1.0012464   -6.2500896    4148.0576            6 
   89600    1.0038556   -6.2500586      4154.32            8 
   89700   0.97329024   -6.2571223    4164.0249           12 
   89800   0.99249621   -6.2799292    4147.7064           11 
   89900    1.0266983   -6.2710655    4152.3368            5 
   90000    1.0094825   -6.2790841    4148.1493            9 
   90100    1.0077229   -6.3026402    4141.6072           12 
   90200   0.97776081   -6.3108525    4150.1896            9 
   90300   0.99566246   -6.3026151    4159.4267           11 
   90400      1.00225   -6.3022964    4152.9737            9 
   90500    1.0033513   -6.3306737    4145.9802           19 
   90600    1.0101285   -6.2861111     4149.992           22 
   90700    1.0370538   -6.2622463     4149.252            8 
   90800    1.0090712   -6.2779582    4130.5699           18 
   90900    1.0051477    -6.268656    4136.7362           11 
   91000    1.0042674   -6.2680592    4142.2654            7 
   91100    1.0170929   -6.2616653    4152.3366            4 
   91200    1.0023772   -6.2604702     4154.986            3 
   91300   0.99040898   -6.2541445    4143.0123            4 
   91400    1.0060729   -6.2785943    4144.1038            3 
   91500    1.0128833   -6.2795245    4133.0747            5 
   91600   0.99599646   -6.2866389    4128.6906           10 
   91700    1.0006306   -6.2590023    4153.7977            3 
   91800   0.98953847   -6.2666206    4160.1149            3 
   91900    1.0399959   -6.2721424    4164.9042           11 
   92000   0.97500966   -6.2455896     4161.164            6 
   92100    1.0003596   -6.2752613     4166.714            4 
   92200    1.0061031   -6.2364721    4172.2607            6 
   92300   0.98622666   -6.2598426    4161.4128            8 
   92400   0.98930605   -6.2811192    4156.6165            8 
   92500    0.9987628   -6.2721194    4161.1456            5 
   92600    1.0067054   -6.2524741    4165.2082           10 
   92700    1.0049146   -6.2901022    4152.1339            8 
   92800   0.99014846   -6.2755594    4147.9764            9 
   92900    1.0055426   -6.2684351     4159.306            4 
   93000   0.99206971   -6.2753044     4158.474            7 
   93100   0.98907653    -6.280618    4155.2785            3 
   93200    1.0044126   -6.2684289    4162.4055           11 
   93300    1.0017292    -6.285385    4164.1571            7 
   93400   0.99808489   -6.3085231    4160.6397            6 
   93500   0.98010701   -6.3272117    4150.2013            8 
   93600   0.99886723   -6.2925782    4156.0166            9 
   93700    1.0113527   -6.2707955    4162.3921           12 
   93800    1.0114234   -6.2805547    4157.0704            8 
   93900    1.0013095   -6.2915588    4139.7859            6 
   94000    1.0096736   -6.2955526     4135.864           13 
   94100    1.0097449   -6.2674731    4155.6916           14 
   94200     1.021447   -6.2661309    4155.8668            4 
   94300    1.0054334   -6.2790141    4143.0979            7 
   94400   0.99142261   -6.2657709    4136.6072            8 
   94500   0.98362867   -6.2360966    4142.9842            4 
   94600     1.016012   -6.2431404     4151.165            6 
   94700   0.99984393   -6.2613351    4137.9865            5 
   94800    1.0112805   -6.2825243    4134.7906            6 
   94900    1.0194899   -6.2607703    4128.6541            4 
   95000   0.98766628   -6.2689656     4128.459            8 
   95100    1.0005064   -6.2489413    4140.9786           10 
   95200    1.0300691   -6.2874683    4141.3398           15 
   95300    1.0023566   -6.2972795    4143.7082            9 
   95400   0.98586506   -6.2804467    4153.7457           12 
   95500   0.98645364   -6.2643025    4168.9062            9 
   95600    1.0147074   -6.2655017     4160.663            8 
   95700   0.99792253   -6.2734041    4150.7866           12 
   95800    1.0107214   -6.2823081     4146.318            9 
   95900    1.0211595   -6.2511032    4144.3884            3 
   96000   0.99846016   -6.2573155     4136.462            5 
   96100   0.99823334   -6.2702309    4125.3348            6 
   96200   0.99521868   -6.3060636    4122.8355            9 
   96300     1.002253   -6.2668419    4140.7605            9 
   96400    1.0088701   -6.2778288     4148.067            5 
   96500    1.0228582   -6.2801868    4163.0035           15 
   96600   0.99768981    -6.284377    4165.9694           14 
   96700    1.0062064   -6.2624267    4162.5346            8 
   96800    1.0081584   -6.2517714    4157.5275            7 
   96900   0.99899714   -6.2803095    4164.8414            6 
   97000   0.99299853   -6.2923271    4154.9219           10 
   97100    0.9900609   -6.2842555    4164.9206            8 
   97200   0.99174943   -6.2635943    4165.8634            5 
   97300   0.98219259   -6.2659162    4162.3696            7 
   97400   0.96257882   -6.2730269    4158.4559            9 
   97500    1.0024321   -6.3008141    4161.2515            7 
   97600    1.0071855   -6.2673485    4161.4543           12 
   97700   0.98864095   -6.2543693    4162.5611            6 
   97800   0.97693115    -6.266262    4153.6023            4 
   97900    1.0062424   -6.2615857    4168.6955            7 
   98000   0.98851278   -6.2538063    4157.9659            5 
   98100    1.0095555   -6.2583608    4157.4341            3 
   98200    1.0076277   -6.2451083     4170.587            4 
   98300    1.0024273   -6.2759874    4164.9346            6 
   98400   0.97820592   -6.2611092    4157.5323            9 
   98500   0.97984323   -6.3054077    4147.7251            4 
   98600   0.99358905   -6.2743539    4152.8667            3 
   98700   0.98537015   -6.2631575    4157.7025            4 
   98800    1.0253168   -6.2596945    4158.5213            5 
   98900   0.98598737   -6.2473013    4147.7343           10 
   99000     0.988618   -6.2376624    4157.2954           12 
   99100    1.0039909   -6.2641898    4149.1553            6 
   99200   0.99516688   -6.2697328    4143.1959            7 
   99300    1.0168966   -6.2422091    4155.6135           10 
   99400    1.0180058   -6.2581249    4154.5318            5 
   99500    1.0093479   -6.2792731    4139.0616           10 
   99600    0.9993869   -6.2719959    4127.6102            9 
   99700    1.0011558   -6.2790237    4141.1378            3 
   99800    1.0145784    -6.275764    4150.3563            9 
   99900    0.9861305   -6.2732486    4147.9962           12 
  100000   0.97536376   -6.2742774     4143.616           10 
  100100    1.0179316   -6.2776809    4152.2148            9 
  100200    1.0044008   -6.2730983    4155.9709            9 
  100300    1.0111982   -6.2660665    4149.6283            3 
  100400    1.0046497   -6.3037808    4133.9194            3 
  100500   0.98167664   -6.2703386     4142.167           11 
  100600    1.0143285   -6.2935563    4155.0119            4 
  100700    1.0110993   -6.2467245    4148.0167            6 
  100800    1.0091634   -6.2043364    4158.1123            3 
  100900    1.0071122    -6.265647      4151.96            5 
  101000    1.0067884   -6.2772832    4154.8486            6 
  101100    1.0132345   -6.2628706    4164.6367            7 
  101200    1.0039653   -6.2470976    4161.4213            6 
  101300    1.0070408   -6.2945366    4153.7507            7 
  101400   0.98612818   -6.2899369    4147.0482           14 
  101500      1.00399   -6.3045378    4145.5632            6 
  101600     1.002662   -6.2681191    4154.5547            4 
  101700    0.9892222    -6.298725    4157.5442            8 
  101800    1.0095649   -6.2735389    4153.7931           10 
  101900   0.98573136   -6.2884092    4145.3771            3 
  102000   0.98997184   -6.2808121    4137.5931            4 
  102100    1.0065674   -6.2532601    4149.6311            6 
  102200   0.98981488   -6.2635148    4138.2227            9 
  102300   0.99530707   -6.2908966    4140.5893            5 
  102400     1.005347   -6.2579449    4153.8604            4 
  102500   0.99604739    -6.246054    4147.2547            5 
  102600      0.99827   -6.2723001    4134.6377           10 
  102700   0.99457058   -6.2842214    4133.7166            6 
  102800    1.0086626   -6.2713898    4133.9018            7 
  102900     1.030027   -6.2618025    4142.6346            7 
  103000    1.0090481   -6.2590256    4155.5417            3 
  103100   0.98357853   -6.2685222    4147.3307            6 
  103200   0.98523464     -6.26923    4147.8561            5 
  103300    1.0181176   -6.2626881    4159.0471            7 
  103400    1.0203617   -6.2514783    4155.2155            5 
  103500   0.98330646    -6.251515    4134.0087            7 
  103600    1.0092136   -6.2663174    4140.9084           17 
  103700     0.997486   -6.2456331     4143.884            6 
  103800   0.99835936   -6.2796065    4142.5696            5 
  103900    1.0133633   -6.2494984    4150.6435            4 
  104000    1.0037969   -6.2609281     4152.653            7 
Loop time of 328.554 on 20 procs for 100000 steps with 4000 atoms

Performance: 52594.168 tau/day, 304.364 timesteps/s
99.9% CPU use with 20 MPI tasks x no OpenMP threads

MPI task timing breakdown:
Section |  min time  |  avg time  |  max time  |%varavg| %total
---------------------------------------------------------------
Pair    | 29.074     | 31.167     | 32.913     |  20.0 |  9.49
Neigh   | 3.6245     | 3.7829     | 3.9752     |   4.5 |  1.15
Comm    | 13.416     | 14.934     | 17.558     |  33.0 |  4.55
Output  | 6.048      | 6.05       | 6.0669     |   0.2 |  1.84
Modify  | 268.39     | 269.62     | 270.39     |   3.4 | 82.06
Other   |            | 2.999      |            |       |  0.91

Nlocal:        200.000 ave         208 max         191 min
Histogram: 2 0 2 3 3 2 2 2 1 3
Nghost:        2351.00 ave        2366 max        2331 min
Histogram: 1 0 0 5 2 2 4 2 2 2
Neighs:        22021.7 ave       24279 max       20410 min
Histogram: 4 2 1 2 2 4 2 2 0 1
FullNghs:      44042.8 ave       46086 max       41649 min
Histogram: 1 1 1 3 4 2 2 2 1 3

Total # of neighbors = 880856
Ave neighs/atom = 220.21400
Neighbor list builds = 5977
Dangerous builds = 0

#clear
#
#next RN
#
#jump SELF
Total wall time: 0:05:30
