
units lj                  # Use reduced LJ style units
atom_style atomic         # Uncharged point particles
atom_modify map hash      # Needed for indexing of clusters etc
                          # Used to be able to find where atoms are in relation to each other.

lattice fcc 1.0 spacing 1 1 1
Lattice spacing in x,y,z = 1.5874011 1.5874011 1.5874011
region box block 0 10 0 10 0 10 units lattice
create_box 2 box
Created orthogonal box = (0.0000000 0.0000000 0.0000000) to (15.874011 15.874011 15.874011)
  3 by 4 by 4 MPI processor grid
create_atoms 1 box
Created 4000 atoms
  using lattice units in orthogonal box = (0.0000000 0.0000000 0.0000000) to (15.874011 15.874011 15.874011)
  create_atoms CPU = 0.003 seconds
set type 1 type/fraction 2 0.42 78393
Setting atom values ...
  1685 settings made for type/fraction
mass 1 1.0
mass 2 1.0
pair_style lj/cut  3.5
pair_modify tail  yes
pair_coeff 1  1  1.0  1.0   # Intearaction between 1 and 1 set with epsilon = 1 and sigma = 1
pair_coeff 1  2  1.5  0.8
pair_coeff 2  2  0.5  0.88

write_data data.0
System init for write_data ...
Neighbor list info ...
  update every 1 steps, delay 10 steps, check yes
  max neighbors/atom: 2000, page size: 100000
  master list distance cutoff = 3.8
  ghost atom cutoff = 3.8
  binsize = 1.9, bins = 9 9 9
  1 neighbor lists, perpetual/occasional/extra = 1 0 0
  (1) pair lj/cut, perpetual
      attributes: half, newton on
      pair build: half/bin/atomonly/newton
      stencil: half/bin/3d
      bin: standard
WARNING: Not all mixed pair coeffs generated from mixing. Use write_data with 'pair ij' option to store all pair coeffs. (../write_data.cpp:312)


#############################
#   M E L T   S Y S T E M   #
#############################

velocity all create 2.4 6583654 mom yes dist gaussian # Assign velocities
                                                    # Temperature 2.4, random number seed, zero linear momentum
                                                                                # Gaussian distribution

timestep 0.002   # simulation timestep
thermo 1000       # output thermodynamic data every 1000 steps bf 100

# Define a fix  in this case with index 1 applied to all
# particles in the simulation. This fix is for simulations
# in the anisotropic NPT ensemble. Note that we use the MTK
# correction.
fix 1 all npt temp 2.4 2.4 0.1 iso 5.68 5.68 0.5 mtk yes tchain 5 pchain 5 # Use NPT ensemble
                                                                         # Set temperature and pressure and damping
                                                                         # Numbers of thermostats in chain and in barostat
run 10000          # run for 10000 steps
Per MPI rank memory allocation (min/avg/max) = 3.642 | 3.644 | 3.648 Mbytes
Step Temp E_pair E_mol TotEng Press Volume 
       0          2.4   -5.7538232            0   -2.1547232    -4.186528         4000 
    1000    2.3746336   -4.9575544            0   -1.3964945    5.6723064    3877.6089 
    2000    2.3692667   -5.0118686            0    -1.458857     5.709281    3847.3055 
    3000    2.4402392   -4.9996575            0   -1.3402139    5.3697886    3890.5578 
    4000    2.4154332   -5.0554648            0   -1.4332207    5.5679134    3842.2329 
    5000    2.4428033   -4.9735652            0   -1.3102763    5.3364035    3897.8387 
    6000    2.4133493   -5.0563704            0   -1.4372515    5.4941354    3852.2416 
    7000    2.3832123    -5.077334            0   -1.5034092    5.4933147    3837.4628 
    8000    2.4284241   -4.9901803            0   -1.3484548    5.7245181    3848.4892 
    9000     2.366924   -4.9975539            0   -1.4480556    5.3892814    3875.9195 
   10000     2.393596   -5.0132815            0   -1.4237851    5.6094997    3861.7895 
Loop time of 2.61791 on 48 procs for 10000 steps with 4000 atoms

Performance: 660067.460 tau/day, 3819.835 timesteps/s
99.6% CPU use with 48 MPI tasks x no OpenMP threads

MPI task timing breakdown:
Section |  min time  |  avg time  |  max time  |%varavg| %total
---------------------------------------------------------------
Pair    | 1.1129     | 1.2129     | 1.3714     |   4.2 | 46.33
Neigh   | 0.20764    | 0.21904    | 0.25022    |   1.6 |  8.37
Comm    | 0.7698     | 0.91079    | 1.0143     |   5.4 | 34.79
Output  | 0.00026315 | 0.00027002 | 0.00044141 |   0.0 |  0.01
Modify  | 0.20985    | 0.25922    | 0.33222    |   5.3 |  9.90
Other   |            | 0.01571    |            |       |  0.60

Nlocal:        83.3333 ave          91 max          70 min
Histogram: 1 0 2 3 7 3 9 13 8 2
Nghost:        1680.27 ave        1700 max        1658 min
Histogram: 2 3 4 5 5 11 8 3 3 4
Neighs:        9895.98 ave       10893 max        8134 min
Histogram: 1 1 1 3 7 5 10 9 7 4

Total # of neighbors = 475007
Ave neighs/atom = 118.75175
Neighbor list builds = 903
Dangerous builds = 187

# Equilibrate just above the melting temperature to avoid step fn in T

fix 1 all npt temp 1.25 1.25 0.1 iso 5.68 5.68 0.5 mtk yes tchain 5 pchain 5
run 2000
Per MPI rank memory allocation (min/avg/max) = 3.643 | 3.645 | 3.649 Mbytes
Step Temp E_pair E_mol TotEng Press Volume 
   10000     2.393596   -5.0132815            0   -1.4237851    5.6094997    3861.7895 
   11000    1.2448645   -7.0439956            0   -5.1771657    5.8186616    3038.1772 
   12000      1.25407   -7.1294112            0   -5.2487764    5.3258768    3034.5133 
Loop time of 0.624891 on 48 procs for 2000 steps with 4000 atoms

Performance: 553056.020 tau/day, 3200.556 timesteps/s
99.6% CPU use with 48 MPI tasks x no OpenMP threads

MPI task timing breakdown:
Section |  min time  |  avg time  |  max time  |%varavg| %total
---------------------------------------------------------------
Pair    | 0.27022    | 0.3027     | 0.32959    |   2.5 | 48.44
Neigh   | 0.039448   | 0.042348   | 0.045131   |   0.7 |  6.78
Comm    | 0.19846    | 0.22999    | 0.26595    |   3.2 | 36.81
Output  | 5.2183e-05 | 5.3259e-05 | 6.8484e-05 |   0.0 |  0.01
Modify  | 0.041479   | 0.044919   | 0.048335   |   0.9 |  7.19
Other   |            | 0.004878   |            |       |  0.78

Nlocal:        83.3333 ave          89 max          77 min
Histogram: 3 1 6 4 6 8 6 8 3 3
Nghost:        1974.52 ave        1995 max        1954 min
Histogram: 3 3 5 6 7 8 3 7 4 2
Neighs:        12601.2 ave       14006 max       11379 min
Histogram: 5 5 4 5 9 5 4 4 2 5

Total # of neighbors = 604857
Ave neighs/atom = 151.21425
Neighbor list builds = 143
Dangerous builds = 14

#############################
# L I N E A R  Q U E N C H  #
#############################

# Define solid atoms. This closely follows ten Wolde  Ruiz-Montero and Frenkel  Faraday Discuss  1996  104  93-110
# Compute components of the per-atom q6 vector
compute q6 all orientorder/atom degrees 1 6 components 6 nnn NULL cutoff 1.3 # compute the Q6 parameter.
                                                                             # Use all neighbours within 1.3 unit cell.

# get number of connections
compute coord_number all coord/atom orientorder q6 0.5

# An atom is solid if it has 8 or more connections (of a possible 14)
variable is_solid atom c_coord_number>=8
group solid dynamic all var is_solid    # Must be dynamic to update
dynamic group solid defined

# do clustering
compute cluster solid cluster/atom 1.3 # Create a cluster where all atoms within are solid and max 1.3 units from another member

# define chunks one chunk per cluster
compute clus_chunks solid chunk/atom c_cluster nchunk every compress yes  # Says which atoms are in which chunk

# count the size of each chunk
compute size_chunks solid property/chunk clus_chunks count


# Find the maximum entry in the vector of chunk sizes
variable max_n equal max(c_size_chunks)


# Thermo style which includes this variable
# thermo_style custom step temp pe vol v_max_n

thermo ${N}  # Print the thermo information every 100 steps
thermo 1000  

# Reset the npt fix at a lower temperature (below freezing)
fix 1  all npt temp  ${temp} ${temp}  0.1  iso  5.68  5.68  0.5  mtk yes tchain  5  pchain  5
fix 1  all npt temp  0.45 ${temp}  0.1  iso  5.68  5.68  0.5  mtk yes tchain  5  pchain  5
fix 1  all npt temp  0.45 0.45  0.1  iso  5.68  5.68  0.5  mtk yes tchain  5  pchain  5

dump dmp2 all dcd ${N} traj.dcd
dump dmp2 all dcd 1000 traj.dcd


compute msd all msd com yes
variable twopoint equal c_msd[4]/6/(step*dt+1.0e-6)
fix 9 all vector 10 c_msd[4]
variable fit equal slope(f_9)/6/(10*dt)
thermo_style custom step temp pe c_msd[4] v_twopoint v_fit v_max_n

fix 1 all npt temp 1.25 ${temp} 0.1 iso 5.68 5.68 0.5 mtk yes tchain 5 pchain 5
fix 1 all npt temp 1.25 0.45 0.1 iso 5.68 5.68 0.5 mtk yes tchain 5 pchain 5
run 2000000 # 5000000  # Run for this many steps
Neighbor list info ...
  update every 1 steps, delay 10 steps, check yes
  max neighbors/atom: 2000, page size: 100000
  master list distance cutoff = 3.8
  ghost atom cutoff = 3.8
  binsize = 1.9, bins = 8 8 8
  4 neighbor lists, perpetual/occasional/extra = 1 3 0
  (1) pair lj/cut, perpetual
      attributes: half, newton on
      pair build: half/bin/atomonly/newton
      stencil: half/bin/3d
      bin: standard
  (2) compute orientorder/atom, occasional
      attributes: full, newton on
      pair build: full/bin/atomonly
      stencil: full/bin/3d
      bin: standard
  (3) compute coord/atom, occasional
      attributes: full, newton on
      pair build: full/bin/atomonly
      stencil: full/bin/3d
      bin: standard
  (4) compute cluster/atom, occasional
      attributes: full, newton on
      pair build: full/bin/atomonly
      stencil: full/bin/3d
      bin: standard
Per MPI rank memory allocation (min/avg/max) = 9.827 | 9.833 | 9.838 Mbytes
Step Temp PotEng c_msd[4] v_twopoint v_fit v_max_n 
   12000      1.25407   -7.1294112 3.9547569e-30 2.7463589e-32 8.3333333e+20            4 
   13000    1.2477685   -7.0784558   0.48332848 0.0030982594  0.039081681            2 
   14000    1.2638507   -7.1286182   0.89627017 0.0053349413  0.036572962            1 
   15000    1.2528281   -7.1383513    1.2878434 0.0071546851  0.035427579            1 
   16000    1.2399286   -7.1150905    1.6756236 0.0087272061    0.0340631            1 
   17000    1.2481055   -7.1003117    2.0330704 0.0099660309  0.033280787            2 
   18000    1.2419154   -7.1050742    2.4152742  0.011181825  0.032632749            1 
   19000    1.2487078   -7.1491629    2.8927363   0.01268744  0.032748674            1 
   20000    1.2594716   -7.1269613    3.3803409  0.014084754   0.03349281            2 
   21000    1.2691112   -7.1264515    3.8148212  0.015138179  0.034155775            1 
   22000    1.2670447   -7.1442754    4.1693287  0.015792911  0.034421392            1 
   23000    1.2552077   -7.1382957    4.5601116  0.016522143  0.034481199            2 
   24000    1.2209831   -7.1279051    5.0108592  0.017398816  0.034506918            1 
   25000    1.2411645   -7.1369477    5.3401907  0.017800635  0.034385578            2 
   26000    1.2479244   -7.0809409    5.8474654  0.018741876   0.03438884            2 
   27000    1.2525531   -7.1260765    6.2307559  0.019230728  0.034451938            1 
   28000    1.2396232   -7.1167045    6.6431584  0.019771305  0.034428268            1 
   29000    1.2478332   -7.1178414    6.9730266  0.020037432  0.034344573            2 
   30000    1.2445233   -7.1609172    7.3117554  0.020310431   0.03420944            2 
   31000    1.2093438   -7.0956788    7.8051626   0.02098162    0.0340815            2 
   32000    1.2364437   -7.1252905    8.1462905  0.021214298  0.034045993            2 
   33000    1.2437657   -7.1485982    8.5659426  0.021631168  0.033948001            1 
   34000    1.2502449   -7.1311123    8.8616412  0.021719709  0.033827936            1 
   35000    1.2208864   -7.1424857    9.3438887  0.022247354  0.033719831            1 
   36000    1.1989929   -7.1722437    9.6688707  0.022381645  0.033644789            4 
   37000     1.218808     -7.14978    10.014529  0.022555246  0.033528256            1 
   38000    1.2853504   -7.1525174    10.503296  0.023033544  0.033464189            3 
   39000    1.2180401   -7.1497789    10.826004  0.023132487  0.033406739            1 
   40000    1.2541291   -7.1123551    11.305207  0.023552515   0.03336357            2 
   41000    1.2337421   -7.0859122     11.71595  0.023812907  0.033339942            2 
   42000    1.2494965   -7.1187291      12.1636  0.024134126  0.033325814            2 
   43000    1.2368624   -7.1403968    12.476072  0.024178433  0.033315827            2 
   44000    1.2623755   -7.1265078    12.912926  0.024456298  0.033304603            1 
   45000    1.2399457   -7.1641138    13.288648  0.024608608  0.033305073            1 
   46000    1.2493557    -7.160764    13.705637  0.024829053  0.033304794            1 
   47000    1.2473705   -7.1423436    14.053269  0.024917143  0.033281377            1 
   48000    1.2356625   -7.1089835    14.521687  0.025211262  0.033278431            1 
   49000    1.2258078   -7.1669468    14.842002  0.025241499  0.033263323            8 
   50000    1.2042992   -7.1646272    15.282034  0.025470057  0.033252919            1 
   51000    1.2361611   -7.1842622    15.672969  0.025609426  0.033250959            1 
   52000    1.2375391   -7.1457768    16.188352  0.025942872  0.033251453            2 
   53000    1.2346252   -7.1616637    16.607538  0.026112481  0.033271447            2 
   54000    1.2284734   -7.1701891    17.012165  0.026253341  0.033285558            2 
   55000    1.2337729   -7.2050799     17.36238  0.026306636  0.033305949            2 
   56000    1.2288744   -7.1809926    17.677094  0.026305199  0.033301719            2 
   57000    1.2029184   -7.1560547     18.05102   0.02639038  0.033279322            1 
   58000    1.2213018   -7.1575014    18.714247  0.026888285  0.033293707            1 
   59000    1.2282993   -7.2098357    19.130671  0.027020721  0.033330708            2 
   60000    1.2204109   -7.1870653    19.461369  0.027029679  0.033385747            1 
   61000    1.2510875   -7.1928597     19.79802  0.027046476  0.033419675            1 
   62000    1.2144919   -7.1487353    20.282767  0.027261783  0.033435407            3 
   63000    1.2279207    -7.186204    20.601422  0.027250559  0.033453075            4 
   64000    1.2646837   -7.2009821      21.0203  0.027370182  0.033460804            2 
   65000    1.2335562   -7.1883348    21.424499  0.027467306  0.033466579            1 
   66000    1.2269913   -7.2232001    21.827899  0.027560478  0.033468845            2 
   67000    1.2442512   -7.2008945    22.229703  0.027648885  0.033473057            1 
   68000    1.2555684   -7.1891605    22.655106  0.027763611  0.033487752            2 
   69000    1.2171107   -7.1778441    23.104022  0.027903408  0.033509609            2 
   70000    1.2433559   -7.2136422    23.482497  0.027955353  0.033526114            1 
   71000    1.2192535   -7.1989362    23.735484  0.027858549   0.03353828            1 
   72000    1.2093201   -7.1925127    24.040787  0.027824985  0.033522701            1 
   73000    1.2198463   -7.1619044    24.579441  0.028058722  0.033507087            1 
   74000    1.2116731   -7.1455496    25.026303  0.028182774  0.033494403            1 
   75000    1.2189227   -7.1995266    25.389873  0.028210969   0.03349531            2 
   76000     1.207588    -7.156379    25.875854  0.028372647  0.033500609            2 
   77000     1.226316   -7.1528581     26.41562  0.028588333  0.033517876            1 
   78000    1.1906886   -7.2507439    26.650745  0.028473018  0.033535475            2 
   79000    1.2108478   -7.2028603    27.310344  0.028808379  0.033558033            2 
   80000     1.240038   -7.1730385     27.91584     0.029079  0.033596597            2 
   81000    1.2173886   -7.2395964    28.239484  0.029052967  0.033645136            1 
   82000    1.2252941   -7.2311834    28.673925  0.029140167  0.033684649            3 
   83000    1.2123385   -7.2150682    28.894739  0.029010781  0.033712541            3 
   84000    1.2266402   -7.2097869    29.137697  0.028906445  0.033718893            2 
   85000    1.2344465   -7.2082028    29.734346   0.02915132  0.033727247            1 
   86000    1.2158674   -7.1997486    30.022788  0.029091849  0.033732936            2 
   87000    1.2135751   -7.1599782    30.465601   0.02918161  0.033738542            1 
   88000    1.2044619   -7.2344044    30.766942  0.029135361   0.03374413            1 
   89000    1.2152873   -7.1825216    31.210569  0.029223379  0.033743622            2 
   90000    1.2172872   -7.2698919    31.169497  0.028860645  0.033723888            3 
   91000    1.2203157   -7.1920263    31.660591  0.028993215  0.033699086            2 
   92000    1.2129746   -7.1830305     32.07236   0.02905105  0.033670592            1 
   93000    1.2270982   -7.1805288    32.410603  0.029041759  0.033645847            1 
   94000      1.25388   -7.2311893    32.691563  0.028981882  0.033620721            2 
   95000    1.2378649   -7.2527843    33.075333   0.02901345  0.033595358            3 
   96000    1.2128123   -7.2563659    33.398059  0.028991371  0.033563095            1 
   97000    1.2225021   -7.1955689    33.800102  0.029037889  0.033530596            1 
   98000    1.2090017    -7.183602    34.252298  0.029126104  0.033494453            2 
   99000    1.2369791   -7.2450245    34.537726   0.02907216   0.03346428            2 
  100000    1.2126102   -7.1854087    35.224646  0.029353872  0.033440752            2 
  101000    1.2102314   -7.2216488    35.656499  0.029419553  0.033423498            2 
  102000    1.2236593   -7.1822982    36.185291  0.029563146  0.033411607            2 
  103000    1.1832297   -7.1911857    36.687382  0.029682348  0.033408698            2 
  104000    1.2210227   -7.2101356    37.033722  0.029674457  0.033411508            1 
  105000    1.2386449   -7.1706575    37.606129  0.029846134   0.03341936            1 
  106000    1.2161117   -7.1905361    37.928964  0.029818368   0.03342343            1 
  107000    1.2111336   -7.2531489    38.292132  0.029822533  0.033423683            2 
  108000     1.223592   -7.2419797    38.492515  0.029701014  0.033424774            3 
  109000    1.1789447    -7.191247    39.133958  0.029918928  0.033419994            1 
  110000    1.2065578   -7.2528966    39.453307  0.029888869  0.033425241            2 
  111000    1.1933047   -7.1850872    39.757161  0.029847718  0.033422211            2 
  112000     1.180542    -7.224741    39.936631  0.029714755  0.033411069            2 
  113000    1.2352347   -7.2332179    40.084839  0.029561091  0.033393552            3 
  114000    1.2321277   -7.2254218    40.456891  0.029573751  0.033375526            2 
  115000    1.2094472   -7.2553344    40.781549  0.029551847   0.03335254            1 
  116000    1.2393037   -7.1824498     41.42557  0.029759749  0.033332168            3 
  117000    1.2192039    -7.192017    41.630051  0.029651034  0.033313387            1 
  118000    1.1866707   -7.2333729    41.873923   0.02957198  0.033293498            2 
  119000    1.2063867   -7.2016905    42.449014    0.0297262  0.033269887            1 
  120000    1.2007564   -7.2209752     42.75008  0.029687556  0.033246965            1 
  121000    1.2307469   -7.2493271    43.133451  0.029706233  0.033222929            2 
  122000    1.2161354   -7.1928421     43.35322  0.029612855  0.033197622            1 
  123000    1.2408258     -7.21363    44.018878  0.029823088  0.033179927            2 
  124000    1.1907511   -7.2199176    44.442386  0.029867195  0.033167883            1 
  125000    1.1993711   -7.2723294    44.853725  0.029902483  0.033156353            4 
  126000    1.2025827   -7.1844387    45.671987   0.03020634  0.033152126            2 
  127000    1.1714156   -7.2643522    45.773888  0.030035359   0.03314963            1 
  128000    1.1997291   -7.2536101     46.42798  0.030226549  0.033144674            1 
  129000    1.1868269   -7.2017705    46.892938  0.030292595  0.033140413            1 
  130000    1.2241321   -7.2605086    47.169437  0.030236818  0.033138382            2 
  131000    1.1904146   -7.2178367     47.82873  0.030425401  0.033139488            3 
  132000    1.2254596   -7.2499752    47.874862  0.030224029  0.033145629            1 
  133000    1.2133621   -7.2159616    48.557003  0.030424187  0.033149625            1 
  134000    1.1805262   -7.2807103    48.918597  0.030422013  0.033154804            3 
  135000    1.1964111   -7.2637604    49.214807   0.03037951  0.033160914            4 
  136000    1.2074155   -7.1769665    49.987563  0.030629634  0.033166128            2 
  137000    1.2052151   -7.2222711     50.23934  0.030559209  0.033172316            4 
  138000    1.1918526   -7.2266627    50.619159  0.030567125  0.033179121            1 
  139000    1.1999243   -7.2629879    50.707063  0.030399918  0.033182428            2 
  140000    1.2169186   -7.2230972     51.17708  0.030462547  0.033181589            5 
  141000    1.1927459   -7.2702675    51.178064  0.030247083   0.03317309            1 
  142000    1.2218651   -7.2430469     51.48125  0.030212001  0.033158592            2 
  143000    1.1801946   -7.2145102     51.77928  0.030174406   0.03314274            2 
  144000    1.1887057   -7.2567928    52.136752  0.030171731  0.033124202            1 
  145000    1.1899767   -7.2325242     52.57738  0.030216885  0.033105087            2 
  146000    1.1993698   -7.2672146    52.547459  0.029992842  0.033083411            1 
  147000    1.1772024   -7.2764609    52.541106  0.029785207  0.033054142            4 
  148000    1.2068122   -7.2379661    53.103568  0.029900658  0.033022414            1 
  149000      1.19222   -7.2486163    53.455231  0.029896661  0.032989275            2 
  150000    1.2040848   -7.2032116    53.806096  0.029892275  0.032956826            2 
  151000    1.1955248   -7.2651167     53.81449  0.029698946  0.032921533            2 
  152000    1.2070841   -7.2607136    54.182684  0.029705419  0.032882537            1 
  153000    1.2014433   -7.2330101    54.777468  0.029835222  0.032845294            1 
  154000    1.1920631   -7.2532825    54.782249  0.029644074  0.032810249            1 
  155000    1.1788872   -7.2611783    55.090786  0.029618702   0.03277382            4 
  156000    1.1917715   -7.2773195    55.489817  0.029641996  0.032736909            1 
  157000    1.1901465   -7.2199293    55.966868  0.029706405  0.032701511            1 
  158000    1.1998868   -7.2298762    56.346629  0.029718686   0.03266424            2 
  159000    1.1867159   -7.2260448    56.683968  0.029708579  0.032629209            1 
  160000    1.1790067   -7.2691591    57.061611  0.029719589  0.032598147            1 
  161000    1.2033393   -7.2267624    57.242418  0.029628581  0.032565571            1 
  162000    1.1652306    -7.294194    57.563922  0.029611071  0.032531799            1 
  163000    1.1719874   -7.2952181    57.953132   0.02962839  0.032498185            2 
  164000    1.2226462   -7.2817723    58.524798   0.02973821  0.032466683            1 
  165000    1.1753375   -7.2350391     58.91614  0.029755626  0.032438164            1 
  166000    1.2204938   -7.2571173    59.052459  0.029644809  0.032408592            4 
  167000    1.1778414   -7.2683712    59.558315  0.029719718  0.032378125            1 
  168000    1.1942424   -7.2846478    59.626968  0.029576869  0.032348183            2 
  169000    1.1903952    -7.244135    60.084464  0.029627448  0.032318573            2 
  170000    1.1602359   -7.2507358      60.5412  0.029677059  0.032288287            2 
  171000    1.2142594   -7.2828668    60.832007  0.029645228  0.032259365            1 
  172000    1.2029148   -7.2960418    61.214935  0.029658399  0.032230944            5 
  173000    1.1546673   -7.2644702    61.474208  0.029611854   0.03220075            1 
  174000    1.1604036   -7.2574328    61.641384  0.029521735  0.032168446            2 
  175000    1.1959175   -7.2718051    62.096498  0.029569761  0.032138109            2 
  176000    1.1950804   -7.2602526    62.278016  0.029487697  0.032105396            1 
  177000    1.1945196   -7.2774621    62.516258  0.029433266   0.03207127            2 
  178000    1.1678801   -7.2931457    62.562129  0.029289386  0.032032497            1 
  179000    1.1929014   -7.2629887    62.920819  0.029292746  0.031993073            2 
  180000    1.1587741   -7.2825958    63.176901  0.029248565  0.031954794            1 
  181000    1.1798769   -7.2615998    63.681183  0.029319145  0.031916811            2 
  182000    1.1759299   -7.3090248     63.68815  0.029161241  0.031879291            2 
  183000     1.168936   -7.2941857     64.27338  0.029268388  0.031841545            2 
  184000    1.2011936   -7.3125718     64.56165  0.029239878  0.031806016            3 
  185000     1.175178   -7.2601985     64.82796  0.029201784  0.031770004            2 
  186000    1.1733438   -7.2722519    65.450778  0.029323825  0.031734445            6 
  187000    1.1546455   -7.2906198    65.660749  0.029260583  0.031701528            1 
  188000    1.1785451   -7.3012737    66.199116   0.02934358  0.031669333            6 
  189000    1.1889523   -7.2844758    66.475072  0.029309996  0.031638564            4 
  190000    1.1753316   -7.3482846    66.635853  0.029226251  0.031608771            2 
  191000    1.1586016   -7.2569948    67.244271  0.029338687  0.031580862            1 
  192000     1.179657   -7.3197758    67.564791  0.029324996  0.031553522            2 
  193000     1.167666   -7.3387184    67.653724  0.029211452  0.031526473            3 
  194000    1.1531421   -7.3016241    68.265127  0.029323508  0.031500516            2 
  195000    1.1955129   -7.2692087    68.823493  0.029411749  0.031475378            2 
  196000    1.1730997   -7.2575372    69.114545  0.029385436  0.031453964            1 
  197000    1.1785463   -7.2812537    69.389495  0.029352578  0.031429671            2 
  198000    1.1915771   -7.2853232    69.986063  0.029455414  0.031408579            1 
  199000    1.1761937   -7.3116535    70.291154  0.029435157  0.031384609            2 
  200000    1.1781051   -7.2759581    70.566732  0.029402805  0.031363079            3 
  201000    1.1760101   -7.2935367    71.115491  0.029484034   0.03134393            2 
  202000    1.1555166     -7.31668    71.292661  0.029411164  0.031323559            2 
  203000    1.1576592   -7.2978225    71.588769  0.029387836  0.031302046            1 
  204000    1.1567583   -7.3339483    72.145196  0.029471077  0.031282481            2 
  205000    1.1611076   -7.2924323    72.412383  0.029435928  0.031263747            1 
  206000    1.1690604   -7.3234359    73.057038  0.029553818  0.031245429            1 
  207000    1.1887604   -7.2989628    73.087207  0.029423191  0.031225457            5 
  208000    1.1785406   -7.2740019    73.371214  0.029395518   0.03120447            2 
  209000     1.170031    -7.306585    73.654328  0.029367754  0.031182778            3 
  210000    1.1738393   -7.3316829     73.99698  0.029363881  0.031161499            1 
  211000    1.1648295   -7.3344129    74.265611   0.02933081  0.031141033            4 
  212000    1.1723843   -7.3320816    74.399446  0.029245065  0.031119031            1 
  213000    1.1685502   -7.3273029    74.844252  0.029281789  0.031097518            2 
  214000    1.1584745   -7.3254299    75.350025   0.02934191  0.031077674            1 
  215000     1.142714   -7.3070299    75.315443  0.029192032  0.031056163            2 
  216000    1.1415467   -7.2793843    76.145107   0.02937697  0.031037966            1 
  217000    1.1577226   -7.3197043    76.472347  0.029367261  0.031018979            1 
  218000    1.1782583   -7.3122802    77.027786  0.029444872  0.031001371            1 
  219000    1.1850802   -7.3477511    77.169293  0.029364267  0.030983529            3 
  220000    1.1585005    -7.335361    77.431264  0.029330024  0.030966328            2 
  221000    1.1649546   -7.2721005    78.034616  0.029424818  0.030948964            4 
  222000    1.2063314   -7.3455807    77.532633  0.029103841  0.030930569            3 
  223000    1.1677341   -7.3432306    77.778309  0.029065138  0.030908956            2 
  224000    1.1724635   -7.3335926    78.311765  0.029133841  0.030886688            2 
  225000    1.1608721   -7.3236751    78.625529  0.029120566  0.030864624            1 
  226000    1.1705643   -7.3287006    78.872957  0.029082949   0.03084154            2 
  227000    1.1692858   -7.3188712    79.294103  0.029109436  0.030820308            1 
  228000    1.1612487   -7.3149439    79.446691  0.029037533  0.030797719            1 
  229000    1.1525751   -7.3390496    79.574204  0.028957134  0.030774271            2 
  230000    1.1541633    -7.309769    80.251544  0.029076646  0.030751519            4 
  231000    1.1607037   -7.3161844    80.246839  0.028949076  0.030727357            2 
  232000    1.1419566   -7.3884621    80.431164  0.028890504  0.030703182            2 
  233000    1.1995464   -7.3249346     80.86636   0.02892216  0.030678336            2 
  234000    1.1546435   -7.3376563    80.797869   0.02877417  0.030651487            1 
  235000     1.148228   -7.3740768     81.40824   0.02886817  0.030625086            2 
  236000    1.1589267   -7.3470587    81.594366   0.02881157  0.030599774            1 
  237000    1.1785413   -7.3586028    81.681739  0.028720724   0.03057431            1 
  238000    1.1523063   -7.3216258    82.347737  0.028833241  0.030547568            5 
  239000    1.1585015    -7.315928    82.614036  0.028805452  0.030522445            2 
  240000     1.187125   -7.3688386    82.695564  0.028713737  0.030496904            2 
  241000    1.1500275   -7.3761477    83.254364  0.028787816  0.030470323            1 
  242000    1.1517843   -7.3348431    83.624169  0.028796201   0.03044416            1 
  243000     1.147112   -7.3902585    83.600943  0.028669733   0.03041803            1 
  244000    1.1434066   -7.3648982    84.266749  0.028779627  0.030393431            4 
  245000    1.1364099   -7.3413848    84.406445  0.028709675  0.030369075            3 
  246000    1.1729748   -7.3440778     84.89053  0.028756954  0.030343317            2 
  247000    1.1465033   -7.3612645    84.970465  0.028667498  0.030318642            4 
  248000    1.1509118   -7.3516268    85.428858  0.028705933  0.030292928            3 
  249000    1.1604498   -7.3713116    85.507235  0.028616879  0.030267587            9 
  250000    1.1523824   -7.3497892     86.18296  0.028727653  0.030243155            4 
  251000     1.137017   -7.3708595    86.257537   0.02863796  0.030217948            2 
  252000    1.1775609   -7.3506517    86.406808   0.02857368  0.030192606            1 
  253000    1.1607218   -7.3234903    86.951325  0.028640094  0.030168558            1 
  254000    1.1566156   -7.3383625    87.643666  0.028754483  0.030147552            2 
  255000    1.1306703   -7.3554982    87.784014  0.028687586  0.030124997            1 
  256000    1.1642001   -7.3824322    88.122449  0.028685693  0.030103343            1 
  257000    1.1551835   -7.3604015    88.580981  0.028722756  0.030083219            3 
  258000    1.1792847   -7.3633004    88.671138  0.028640548  0.030063052            1 
  259000    1.1771769   -7.3237302    89.203205   0.02870116  0.030042304            1 
  260000    1.1838768   -7.3753253    89.417826  0.028659559  0.030020026            1 
  261000     1.168715   -7.3919766    89.353535  0.028529226  0.029997399            2 
  262000    1.1336842   -7.3840224    89.986101  0.028621533  0.029975822            1 
  263000    1.1645613   -7.3312528    90.151305  0.028565052  0.029954109            1 
  264000    1.1300399    -7.378785    90.446531  0.028550041  0.029932009            3 
  265000     1.116039   -7.3604464    90.688707  0.028518461  0.029909131            1 
  266000    1.1471777   -7.3751498    91.154885  0.028557295  0.029887732            1 
  267000    1.1221276   -7.4022539    90.972489  0.028393411  0.029865625            2 
  268000    1.1181842   -7.3914126    91.574516  0.028474663  0.029843946            1 
  269000    1.1619114   -7.4015998    92.228019  0.028571257  0.029824158            3 
  270000    1.1387327   -7.3532556    92.818306  0.028647625   0.02980441            2 
  271000    1.1549065   -7.3662942    92.938221  0.028578789   0.02978453            8 
  272000    1.1589884   -7.3572449    93.341369  0.028597233  0.029766178            1 
  273000    1.1374646   -7.4081066    93.418076  0.028515896  0.029749325            2 
  274000    1.1432765   -7.4171713    93.634501  0.028477646  0.029732363            2 
  275000     1.146412   -7.3050364     94.85253  0.028743191  0.029716343            2 
  276000    1.1408663   -7.3411702    94.936039  0.028664263  0.029702131            5 
  277000    1.1590514   -7.4360825    94.946814  0.028564023  0.029687032            2 
  278000    1.1459917   -7.3146482    96.091004  0.028804258  0.029672277            1 
  279000    1.1339567   -7.3745144    95.746102  0.028597999  0.029658273            2 
  280000    1.1344766   -7.3695398    96.108524  0.028603727  0.029642421            3 
  281000    1.1476158   -7.3580347    96.376916  0.028581529  0.029626609            1 
  282000    1.1503865   -7.3730568    96.280994   0.02845183  0.029609148            2 
  283000    1.1318882   -7.2994341    96.939987  0.028545344  0.029592351            2 
  284000    1.1536487   -7.3823445    97.314694  0.028554781  0.029576707            2 
  285000    1.1571445   -7.4212149    97.283275  0.028445402  0.029560967            1 
  286000    1.1313398   -7.3635759    98.054475  0.028570651  0.029545032            1 
  287000    1.1311784   -7.3800386    98.559254   0.02861767  0.029530365            1 
  288000    1.1043261   -7.3937204    98.759409  0.028576218   0.02951687            1 
  289000     1.139136   -7.3963639    99.096808  0.028574627  0.029503491            2 
  290000    1.1475743   -7.4086892    99.110843  0.028480127   0.02948939            2 
  291000    1.1380351   -7.4169645    99.449597  0.028479266  0.029476218            1 
  292000    1.1351021   -7.4058706    99.884026  0.028505715  0.029463777            1 
  293000    1.1510724    -7.361287     100.2933   0.02852483  0.029450027            2 
  294000    1.1266247   -7.3729217    100.57205  0.028506816  0.029435887            2 
  295000    1.1897821   -7.3854581     101.0013  0.028531441  0.029422645            2 
  296000    1.1341411   -7.4002571    101.76983  0.028651416  0.029409386            1 
  297000      1.12145   -7.3906088    101.47455  0.028472097   0.02939631            1 
  298000    1.1445625   -7.4028781    101.73306  0.028448843  0.029382618            2 
  299000     1.145352   -7.4108128    102.15643  0.028471692  0.029368642            5 
  300000    1.1333995   -7.3810109    102.73391  0.028537198  0.029355309            7 
  301000    1.1299602   -7.4027844    102.78725  0.028457157  0.029340548            2 
  302000    1.1302722   -7.4265938    102.80762  0.028368547  0.029325143            2 
  303000    1.1023752   -7.4077044    102.82456  0.028279581   0.02930924            1 
  304000    1.1444949   -7.3798678    103.48086  0.028366464  0.029293432            1 
  305000    1.1183799   -7.3828024    103.96428   0.02840554  0.029278521            2 
  306000    1.1206302    -7.418283    103.68998  0.028238013  0.029263288            4 
  307000    1.1593553   -7.4136944    104.19151  0.028282169  0.029247839            3 
  308000    1.1174324   -7.3974447    104.59936  0.028300692  0.029231899            2 
  309000    1.1244552   -7.3945411    104.94775  0.028303061  0.029217032            1 
  310000    1.1069453   -7.4254499    105.19576   0.02827843  0.029202322            8 
  311000    1.1093336     -7.39994    105.52086  0.028274614  0.029187769            2 
  312000    1.1269907   -7.4055795    105.99923  0.028311761  0.029173663            1 
  313000    1.1137439   -7.3655726    106.47718  0.028348558  0.029159426            2 
  314000    1.1108101   -7.4093658      106.425  0.028244428   0.02914469            2 
  315000    1.1248715   -7.4402219    106.54477  0.028186447   0.02912963            2 
  316000    1.1309239   -7.4016324    107.00887  0.028219639  0.029113702            3 
  317000    1.1235095    -7.403897    107.31052  0.028209915  0.029098397            4 
  318000    1.1239211   -7.3666799    107.45908  0.028160137  0.029082488            1 
  319000    1.1276124   -7.4669758    107.41002  0.028059045  0.029066198            1 
  320000    1.1242987   -7.4172126    108.23196  0.028185405  0.029049797            2 
  321000    1.1186299    -7.395747     108.2856  0.028111525  0.029033871            3 
  322000    1.1080149   -7.3773957    109.03218  0.028217438  0.029017624            1 
  323000    1.1062112   -7.4091706    108.86172  0.028086098  0.029001484            1 
  324000    1.1222549   -7.4441827    108.42321  0.027886627  0.028983917            4 
  325000    1.0985086   -7.4063234    109.20045  0.028000115  0.028966979            2 
  326000    1.1259257   -7.4002256    109.89908  0.028092813  0.028950121            1 
  327000    1.1355112   -7.4372213    109.76517  0.027972775  0.028933314            2 
  328000    1.1233362   -7.4678642    110.04478   0.02795853  0.028916796            1 
  329000    1.1448644   -7.4576056    110.54318  0.027999793  0.028900936            1 
  330000     1.123452    -7.442731    110.85237  0.027993024   0.02888607            2 
  331000    1.1018053   -7.3854153    111.13146  0.027978715  0.028870149            2 
  332000    1.0981473   -7.4148647    111.44564  0.027973304  0.028854351            1 
  333000    1.1111884   -7.4505767     111.8516   0.02799089  0.028838917            1 
  334000    1.1224635    -7.408475    112.14117  0.027979334  0.028822831            1 
  335000    1.0989129    -7.444713    112.32934  0.027942622  0.028806896            2 
  336000    1.1414121   -7.4189614    112.82849  0.027983257  0.028791661            2 
  337000    1.1288355   -7.4566475    113.14009  0.027977271  0.028776812            1 
  338000     1.144328   -7.4700344    113.34519  0.027945067  0.028761182            1 
  339000     1.115562   -7.4992571    113.32179  0.027856879  0.028744974            3 
  340000    1.1208422   -7.4197905    113.70209   0.02786816  0.028728763            3 
  341000    1.1365279   -7.4204294    114.64766  0.028017511  0.028713649            3 
  342000    1.1253401   -7.4036458    114.71862  0.027952879  0.028699323            4 
  343000    1.1269852   -7.4199539    114.86633   0.02790727  0.028684626            4 
  344000    1.1230575   -7.4309173    115.16357  0.027898153  0.028669242            1 
  345000    1.1221332   -7.4565793    115.00836  0.027779798  0.028653605            1 
  346000    1.1003631    -7.412201    115.49017  0.027815552  0.028638146            3 
  347000     1.127834   -7.4506931    115.30588  0.027691134  0.028622333            1 
  348000    1.1087105   -7.4110265    116.25903  0.027839807  0.028606498            1 
  349000     1.089509   -7.4749318    116.00897  0.027700327  0.028591842            3 
  350000     1.127322   -7.4162023    116.77801  0.027804288   0.02857647            7 
  351000    1.1314628   -7.5022947    116.46445  0.027650629  0.028560731            3 
  352000    1.1075209   -7.4448704    116.72153  0.027632938  0.028544708            5 
  353000     1.116104   -7.4965976    117.15346  0.027656625  0.028528213            2 
  354000    1.1165138   -7.4458558    117.79762  0.027730137  0.028512407            1 
  355000    1.1178485   -7.4149791    117.94417  0.027686425  0.028496295            1 
  356000    1.1076178   -7.4337898    118.18775  0.027665673  0.028480569            2 
  357000    1.0768259   -7.4181166    118.99636  0.027776927  0.028464477            1 
  358000    1.1200647   -7.4654429     118.3167  0.027541131   0.02844804            2 
  359000    1.1067255   -7.4285829    118.85854   0.02759019   0.02843131            3 
  360000    1.0904207   -7.4402569    118.80218  0.027500504  0.028415086            1 
  361000     1.109119   -7.4685973    119.66937  0.027624509  0.028399214            2 
  362000    1.0866418   -7.4522141    119.44066  0.027495547  0.028382891            3 
  363000     1.104077   -7.4895521       119.67  0.027472452  0.028364733            3 
  364000    1.0978048   -7.4353211    120.07988  0.027490816  0.028347425            1 
  365000    1.1170107    -7.454794    120.05005  0.027408686  0.028329456            2 
  366000    1.0965689   -7.4691912     119.9356  0.027307742  0.028311338            2 
  367000    1.1086088   -7.4215898    120.88948  0.027449928  0.028293734            1 
  368000    1.0887646   -7.4575256    120.64052  0.027318958  0.028275917            1 
  369000    1.0843853   -7.4800269    121.19059  0.027369148  0.028257345            1 
  370000    1.0956417   -7.4928223    121.35244  0.027331632  0.028239372            3 
  371000    1.0901527   -7.4691567    121.40703  0.027270223  0.028221653            1 
  372000    1.1085807   -7.4642824    122.13664  0.027360359  0.028204468            1 
  373000    1.0901024   -7.4838214     122.7683  0.027428129  0.028187151            3 
  374000    1.0906051   -7.4698841    122.55591  0.027307466   0.02816916            2 
  375000    1.1144449   -7.4563946    123.21957  0.027382126  0.028151632            3 
  376000    1.1223988   -7.4738498    122.83559  0.027224199  0.028134343            2 
  377000    1.0973662   -7.4453907    123.62997   0.02732758  0.028116272            2 
  378000    1.1069207   -7.4658517    123.94803  0.027325403  0.028098823            1 
  379000     1.095971   -7.4994667     123.5011  0.027155035    0.0280814            1 
  380000    1.1052512   -7.4871489    123.96009  0.027184229  0.028063782            2 
  381000    1.1245371   -7.4508075    124.61007  0.027255047  0.028045729            2 
  382000    1.1088447   -7.4726206     124.7433  0.027212762  0.028027453            2 
  383000    1.1156466   -7.4544809    124.78753  0.027151334   0.02800992            3 
  384000    1.1077829   -7.4601978    125.24857  0.027180679  0.027993155            2 
  385000     1.126579   -7.4907597    124.91749  0.027038417  0.027975591            3 
  386000     1.089498   -7.4750969    125.75066  0.027148243  0.027957955            2 
  387000    1.0926289   -7.5074773    125.95578   0.02712226  0.027940222            2 
  388000    1.0959835   -7.5256122    126.00813  0.027063602  0.027921907            1 
  389000    1.1113042   -7.4871067    126.57209  0.027114844  0.027904717            2 
  390000    1.1114532   -7.4574491    126.66181  0.027064489  0.027886973            1 
  391000     1.084951   -7.4665174    126.88668  0.027043198  0.027869865            1 
  392000    1.0921691   -7.4453718    127.08872  0.027017159  0.027851629            3 
  393000    1.0905135   -7.4614767    127.25466    0.0269836  0.027833499            1 
  394000    1.1031078   -7.4746807    127.17517  0.026898302  0.027814733            2 
  395000    1.1316527   -7.4849211    127.50596  0.026899992  0.027795679            1 
  396000    1.1098062   -7.4815563     128.0426  0.026944992  0.027776292            1 
  397000    1.0955156   -7.4591315    127.89259  0.026845633  0.027757202            4 
  398000    1.0897221   -7.4663723    128.54052  0.026913843  0.027738438            2 
  399000    1.0848842   -7.5158278    128.58559  0.026855805  0.027720345            4 
  400000    1.0701114   -7.4900921    129.27674  0.026932655  0.027701934            2 
  401000    1.1018717   -7.5058035    129.46009  0.026903592  0.027684402            2 
  402000    1.0652332   -7.4805571    129.72279  0.026891125  0.027667269            2 
  403000    1.1017905   -7.4907754    129.99983  0.026881686  0.027649959            2 
  404000    1.0901832   -7.5256701    130.21901  0.026860356  0.027632137            2 
  405000    1.0816844   -7.5010756    130.14213  0.026778216  0.027613728            2 
  406000    1.0986253   -7.5054946    130.62779  0.026811945  0.027595579            2 
  407000    1.0740077    -7.518014    131.04968  0.026832448  0.027577744            2 
  408000    1.0937085   -7.5065207    131.44074  0.026846556  0.027559975            2 
  409000    1.1073871   -7.4949024    131.82277  0.026858755  0.027542466            1 
  410000    1.0947724   -7.5008126    131.69762  0.026767808  0.027525169            1 
  411000    1.1025443   -7.5247235    131.78134  0.026719655  0.027507359            1 
  412000    1.0844995   -7.5279906      132.181   0.02673564  0.027489239            4 
  413000    1.0947895   -7.5242372    132.35197  0.026705402  0.027471727            5 
  414000    1.0957996    -7.532524    132.53618  0.026677974  0.027453976            3 
  415000    1.0754579   -7.5289967     133.0814  0.026723173  0.027436934            2 
  416000    1.0565432   -7.5046511    133.31608  0.026705946  0.027420315            3 
  417000     1.078559   -7.5172574    134.17829  0.026814206  0.027403522            1 
  418000    1.0736338   -7.5233278    134.00603  0.026715715   0.02738678            2 
  419000    1.0768868   -7.5331227    134.15976  0.026682529  0.027369956            1 
  420000    1.0860142   -7.5322763    134.57496   0.02670138  0.027352908            2 
  421000    1.0982277   -7.5125614    134.20235  0.026564203  0.027335995            2 
  422000    1.0735899   -7.5198344    134.70064  0.026599653  0.027318976            1 
  423000    1.0933474    -7.497386    134.69918  0.026536481  0.027301243            1 
  424000    1.0623004   -7.5525415     134.8625  0.026505995  0.027283735            1 
  425000    1.0929451   -7.5195666    135.13631  0.026497315  0.027265727            1 
  426000     1.066372   -7.5332242    135.59518  0.026524879  0.027248243            3 
  427000    1.0784558   -7.5015918    136.19757  0.026580322  0.027230656            2 
  428000    1.0733145   -7.5008514    136.37391  0.026552552  0.027213256            1 
  429000    1.0757353   -7.4879674    136.38432   0.02649268  0.027196115            3 
  430000    1.0849737   -7.5547276    136.05756  0.026367743  0.027178443            2 
  431000    1.0477731   -7.5173232    137.06611  0.026501569  0.027160573       -1e+20 
  432000    1.0820807   -7.5355313    136.68382  0.026366477  0.027142411            3 
  433000    1.0828989   -7.5151814    136.75805  0.026319871  0.027124026            3 
  434000    1.0698835   -7.5154331    137.29606  0.026362531  0.027105954            2 
  435000    1.0801709   -7.5014735    137.90868  0.026419288  0.027088588            2 
  436000    1.0836097   -7.5315063    138.07267  0.026390036  0.027071644            1 
  437000     1.074646   -7.5147155    138.05981  0.026327195   0.02705416            3 
  438000    1.0918219   -7.5048319    138.57422  0.026364959  0.027036925            5 
  439000    1.0888281   -7.5319188    138.59242  0.026308357  0.027019489            4 
  440000    1.1008924   -7.5365743    138.64195  0.026257945  0.027001553            2 
  441000    1.0698784   -7.5955931    138.73685  0.026216336  0.026983703            3 
  442000     1.061552    -7.526393     139.4247  0.026286708  0.026965627            2 
  443000    1.0619981   -7.5561734    139.31556   0.02620684  0.026947934            2 
  444000    1.0976175   -7.5314438    139.85715  0.026249465  0.026930381            2 
  445000    1.0822301   -7.5641395    139.62507  0.026147017  0.026911935            2 
  446000    1.0829348   -7.5493689     139.9174  0.026143012  0.026893894            2 
  447000    1.0785389   -7.5581787    140.69165  0.026228867  0.026875811            2 
  448000    1.0635344   -7.5651205    140.14866   0.02606932  0.026857744            3 
  449000    1.0732134   -7.4909866     141.4991  0.026261897  0.026840157            1 
  450000    1.0771213   -7.5500061    141.21861  0.026151595  0.026823257            1 
  451000    1.0717302   -7.5333039    141.38602  0.026124542  0.026805642            3 
  452000    1.0643178   -7.5534683     141.9915  0.026178374  0.026788088            2 
  453000    1.0503521   -7.5846694    141.83061  0.026090988  0.026770712            1 
  454000    1.1101208   -7.5012524    142.25247  0.026110953  0.026753427            2 
  455000    1.0270296   -7.5390845    142.75074  0.026144824   0.02673584            2 
  456000    1.0860542   -7.5065763    142.67643  0.026073909  0.026718223            1 
  457000    1.0949901   -7.5717991    142.55052  0.025993895  0.026700604            5 
  458000     1.069242   -7.5532754    143.04899  0.026027836  0.026682495            1 
  459000    1.0780745    -7.540572    143.21285   0.02600088  0.026664262            2 
  460000     1.055491   -7.5896815    143.12886  0.025929142  0.026646424            2 
  461000    1.0672261   -7.5532178    143.26984  0.025898381  0.026627847            1 
  462000    1.0802516   -7.5677648    143.19114  0.025828128  0.026609224            1 
  463000      1.06172   -7.5369884    143.88098  0.025896505  0.026591139            1 
  464000     1.085826   -7.5909584    143.92519  0.025848633  0.026572655           11 
  465000    1.0611833    -7.561763    144.48737  0.025893794  0.026553867            2 
  466000    1.0367408   -7.5177745    144.83118  0.025899711  0.026535736            2 
  467000     1.076826    -7.566299    144.66927  0.025815359  0.026517585            2 
  468000    1.0539098   -7.6021096    144.63061  0.025753313  0.026499255            1 
  469000    1.0704307   -7.5867993    145.05476  0.025773767  0.026480931            2 
  470000    1.0396467   -7.6101124    145.00544  0.025710184  0.026462577            1 
  471000    1.0615741   -7.5857156    145.40546  0.025726373  0.026443935            1 
  472000    1.0490086   -7.5971137    145.89751  0.025758741  0.026425436            1 
  473000    1.0526626   -7.5808037    146.06822  0.025734358  0.026407243            4 
  474000    1.0658231    -7.598771    146.56682  0.025767725  0.026389324            2 
  475000    1.0808121   -7.5842902    146.36632  0.025678301  0.026370739            2 
  476000    1.0665681   -7.5786487    146.96655  0.025729438  0.026352731            1 
  477000    1.1075967    -7.559888    147.46625  0.025762797  0.026335194            2 
  478000    1.0766465   -7.5534046    147.73988  0.025756604  0.026317835            3 
  479000    1.0969374   -7.5872921    147.40519  0.025644604  0.026300757            2 
  480000    1.0518065   -7.5991763    147.99351  0.025693317  0.026283381            2 
  481000    1.0791741   -7.5928697     148.0571  0.025650918  0.026266195            3 
  482000    1.0709879   -7.5956561     148.2438   0.02562998  0.026249171            4 
  483000    1.0873752   -7.6200864    149.20508  0.025742767  0.026231993            3 
  484000    1.0482308   -7.5459993    149.38957  0.025721344  0.026215049            2 
  485000    1.0560751   -7.6030403    148.98501    0.0255988  0.026198077            2 
  486000    1.0639906   -7.5484514    149.39188  0.025615892  0.026180774            1 
  487000    1.0532534   -7.5778704    149.02046  0.025499736  0.026163567            4 
  488000    1.0674478   -7.5753132    150.08607  0.025629452  0.026146556            1 
  489000    1.0696162   -7.5554648    150.01621  0.025565135  0.026128662            1 
  490000     1.060487   -7.5893851    149.61695  0.025445059   0.02611058            4 
  491000     1.063757   -7.5614362    150.28986  0.025507444  0.026092147            2 
  492000    1.0768342   -7.6250939    150.05288  0.025415461  0.026074087            2 
  493000    1.0462463   -7.5723104    150.37999    0.0254192  0.026056495            2 
  494000    1.0205454   -7.5783081    150.91207  0.025457501  0.026038852            3 
  495000    1.0439986   -7.6093639    150.56532  0.025347698  0.026020124            1 
  496000    1.0436194   -7.6178186     150.7729  0.025331468  0.026001594            2 
  497000    1.0541715   -7.5920305    151.70999  0.025437624  0.025982908            2 
  498000    1.0558064   -7.6001026    151.56788  0.025362764  0.025963977            3 
  499000    1.0513208   -7.6015427    151.40152  0.025284155  0.025945481            4 
  500000    1.0413841   -7.5632039     151.7067   0.02528445  0.025927069            5 
  501000    1.0639711    -7.571536    151.90757  0.025267393  0.025908529            1 
  502000    1.0361891   -7.6068466    151.75248  0.025191314  0.025889792            4 
  503000    1.0426664   -7.6267845    151.80614  0.025150122  0.025870904            1 
  504000    1.0287113   -7.5730833    152.74828  0.025255998  0.025852065            2 
  505000    1.0623065   -7.6064287    152.42658  0.025152902  0.025833542            1 
  506000    1.0507794   -7.6153377    152.57622  0.025127836  0.025815196            4 
  507000    1.0607722   -7.5495477    153.52454  0.025234146  0.025796666            3 
  508000    1.0543351   -7.5803079    153.90124  0.025246267  0.025779063            2 
  509000    1.0352736   -7.5882604     153.9584  0.025206025  0.025761413            1 
  510000    1.0677708   -7.6095809    153.66162  0.025108108  0.025743647            5 
  511000    1.0525193   -7.6643067    153.79429  0.025080608  0.025725638            3 
  512000    1.0436455   -7.6334739    153.99542  0.025064359  0.025707259            1 
  513000    1.0449219   -7.6548757    153.97037  0.025011431  0.025688683            4 
  514000    1.0628045   -7.6208368    154.26788  0.025011005  0.025670329            2 
  515000    1.0623896   -7.6064029    154.65743  0.025025474  0.025651962            2 
  516000    1.0530085    -7.615963    155.22956  0.025069373  0.025633537            3 
  517000    1.0601851   -7.5888305    155.23761  0.025022181  0.025615359            1 
  518000    1.0457698   -7.5696632    155.41812  0.025002915  0.025597216            2 
  519000    1.0799719   -7.6064936    155.68619  0.024997782  0.025578702            1 
  520000    1.0607073   -7.6465301    155.48838  0.024918009  0.025560032            4 
  521000    1.0649523   -7.6631477     155.7286  0.024908604  0.025541569            2 
  522000     1.060566   -7.5896489    156.07722  0.024916542    0.0255235            2 
  523000     1.047071   -7.6159368    156.01758  0.024859397  0.025505257            2 
  524000    1.0586872   -7.6104287    157.02544  0.024972239  0.025487119            4 
  525000    1.0527767   -7.6461618    156.55319  0.024849712  0.025468828            2 
  526000    1.0468567   -7.6194039    156.72549  0.024829767  0.025450485            2 
  527000    1.0475965   -7.6261122    156.75439  0.024787222    0.0254319            3 
  528000    1.0227862   -7.6055271    156.91326  0.024765351  0.025412804            1 
  529000    1.0474602   -7.6584281    157.07033  0.024743279  0.025393476            2 
  530000    1.0380667   -7.6127601    157.15913  0.024710556  0.025374245            2 
  531000    1.0231889   -7.6226386    157.66437  0.024743309  0.025355309            2 
  532000    1.0555031   -7.6136659    157.69743  0.024701978  0.025336065            2 
  533000    1.0393351   -7.6285038     158.0762  0.024714853  0.025317137            2 
  534000     1.031432   -7.6475308    158.00209  0.024657005  0.025297875            4 
  535000     1.053552   -7.6112476    158.19623  0.024641157  0.025278149            2 
  536000    1.0557782   -7.6190321    157.91137  0.024550897  0.025258366            2 
  537000    1.0356826   -7.6300587    157.71806   0.02447518   0.02523885            2 
  538000    1.0569441   -7.6570744    157.91806  0.024460666  0.025219323            2 
  539000    1.0130956    -7.597591    158.84328   0.02455833  0.025199539            5 
  540000    1.0466848   -7.6077265    158.76507  0.024500783  0.025179689            1 
  541000    1.0500837   -7.6289878    158.73792  0.024451313  0.025159947            7 
  542000    1.0468502   -7.6616733    159.23438  0.024482531  0.025140062            1 
  543000    1.0614043   -7.5999074    159.52661  0.024482291  0.025120139            2 
  544000    1.0532658   -7.6400212    159.57981  0.024445436  0.025100752            2 
  545000    1.0458515   -7.6098989     159.6824  0.024416269    0.0250813            5 
  546000      1.04967   -7.6457955    160.04936  0.024427558  0.025061992            3 
  547000    1.0535804   -7.6340203    160.60012  0.024466807  0.025042795            2 
  548000    1.0288118   -7.6182699    160.64912  0.024429611   0.02502396            3 
  549000    1.0294252   -7.6289292    160.48014  0.024359462  0.025004707            2 
  550000    1.0308559   -7.6643401    160.18963  0.024271157  0.024985213            1 
  551000    1.0345536   -7.6612761    160.81235  0.024321287  0.024965671            5 
  552000    1.0348021   -7.6877487    160.84487  0.024282136  0.024945824       -1e+20 
  553000    1.0689744   -7.6266361    160.90502   0.02424729   0.02492576            2 
  554000    1.0244738   -7.6586968    161.08634  0.024230797   0.02490624            1 
  555000    1.0143744   -7.6481786    161.20041  0.024204266   0.02488691            2 
  556000    1.0242601   -7.6442189    161.49561  0.024204978  0.024867422            3 
  557000    1.0498398   -7.6627516    161.46302  0.024156645   0.02484785            2 
  558000    1.0436885   -7.6487518    161.77306  0.024159656  0.024828411            5 
  559000    1.0240232   -7.6848789    162.08452  0.024162869  0.024808812            2 
  560000    1.0095047   -7.6479087    162.44319  0.024173094  0.024789131            1 
  561000    1.0321999   -7.6437213    162.32327  0.024112191  0.024769789            2 
  562000    1.0245261   -7.6621828    162.58677  0.024108359   0.02475031            4 
  563000    1.0203013   -7.7133181    162.60225  0.024067829  0.024730774            2 
  564000    1.0567537   -7.6515852    163.63197  0.024177301  0.024711726            2 
  565000    1.0331152   -7.6833385     163.2682  0.024080855  0.024692726            1 
  566000     1.007486   -7.6511056    162.88995  0.023982619  0.024673428            3 
  567000    1.0468847   -7.7002821    163.10347  0.023971703  0.024654353            4 
  568000    1.0267032   -7.6850981    164.01527  0.024063273  0.024635055            3 
  569000    1.0148688   -7.6470206    163.77468  0.023985747  0.024615888            2 
  570000    1.0446238   -7.6382914    164.25062  0.024013249  0.024597097            2 
  571000     1.010903   -7.6623839    164.45266   0.02400068   0.02457814            1 
  572000    1.0198379   -7.7119302    164.63704  0.023985583  0.024559457            2 
  573000    1.0326245   -7.6886445    165.06104  0.024005387  0.024540687            2 
  574000    1.0187518   -7.6549205    164.86131  0.023934568  0.024522188            1 
  575000    1.0284767   -7.6789587     165.3139  0.023958537  0.024503815            1 
  576000    1.0417934   -7.6720111    165.90183     0.024002  0.024486106            2 
  577000    1.0316087   -7.6162437     166.6385  0.024066797  0.024468649            2 
  578000    1.0242761   -7.6346436    166.46856  0.024000657   0.02445097            2 
  579000    1.0379427   -7.6894867    166.35326  0.023942611   0.02443341            1 
  580000    1.0157398   -7.6831419    166.83553  0.023970622  0.024415838            1 
  581000    1.0082721   -7.6697891    167.42547   0.02401398   0.02439819            2 
  582000    1.0197286   -7.7005433    167.21618  0.023942752  0.024380796            2 
  583000     1.002257   -7.7085693    167.11731  0.023887551  0.024363339            3 
  584000    1.0148582   -7.6882163     167.1291  0.023848331  0.024345501            4 
  585000    1.0016452   -7.6828535     167.6495  0.023881695   0.02432753            1 
  586000    1.0305855   -7.7178535     167.8268  0.023866155   0.02430932            1 
  587000     1.003668   -7.6684044    168.46253  0.023915747  0.024291475            3 
  588000    1.0098261   -7.6963209    168.31202  0.023853745  0.024273858            2 
  589000    1.0260372   -7.6215654    168.70152  0.023868353  0.024256548            1 
  590000    1.0215604   -7.6923802    168.39403  0.023784467  0.024239442            2 
  591000    1.0142235   -7.6590987    168.48508  0.023757061   0.02422184            3 
  592000    1.0329627    -7.644116    169.03902  0.023794908   0.02420384            3 
  593000    1.0076709   -7.7323715    168.42022  0.023667822  0.024185872            3 
  594000    1.0139699   -7.7013555    168.69328  0.023666285   0.02416754            3 
  595000    1.0107648   -7.6662401    169.45035  0.023732543  0.024149376            2 
  596000    1.0252557   -7.7034939    169.05554   0.02363752   0.02413113            4 
  597000    1.0011113    -7.699286    169.22465  0.023621531   0.02411281            2 
  598000    1.0089944   -7.6554524     169.2642  0.023587542  0.024094877            6 
  599000    1.0339832   -7.6729548    169.94521  0.023642906  0.024077067            1 
  600000    1.0370645   -7.7027708    169.98156   0.02360855  0.024058762            1 
  601000     1.012236   -7.7119935    169.68099  0.023527592  0.024040355            1 
  602000     1.017859   -7.7260785    169.95224  0.023526057  0.024021961            5 
  603000    1.0206683   -7.7336875    169.76873  0.023461683  0.024003434            1 
  604000    1.0028186   -7.7183777    170.30299  0.023496549  0.023984533            2 
  605000    1.0220116   -7.7001388    170.08002     0.023427  0.023965643            2 
  606000    1.0234227   -7.7419486    170.72022  0.023476378   0.02394711            2 
  607000    1.0063707   -7.7140004     170.7491  0.023441666  0.023928524            3 
  608000   0.98931107   -7.7108465    170.79762  0.023409762  0.023910307            1 
  609000   0.99961214   -7.7118969     171.5681  0.023476752   0.02389205            3 
  610000    1.0022908   -7.7243994    171.28779  0.023399971  0.023873851            1 
  611000    1.0130341   -7.7086407     171.5928  0.023403274  0.023855787            7 
  612000   0.99927101   -7.7205952    171.89562  0.023406266  0.023837597            4 
  613000    1.0397033   -7.7805056    171.49985   0.02331428  0.023819259            2 
  614000    1.0124942   -7.6890862    172.52102  0.023414904  0.023801219            2 
  615000   0.98894036   -7.6711472    172.54969  0.023380717  0.023783458            1 
  616000    1.0007994   -7.7191157    172.47106  0.023332123  0.023765415            1 
  617000      1.01239   -7.7060422    171.92821  0.023220989  0.023747172            4 
  618000   0.98158802   -7.7127534    172.12998  0.023210622  0.023728853            2 
  619000     1.031849   -7.6818024    173.12959  0.023307699  0.023710696            1 
  620000    1.0163323   -7.7042944    172.47706    0.0231824  0.023692383            2 
  621000    1.0012809   -7.7356744    172.44552  0.023140837  0.023673709            3 
  622000     1.008163   -7.7336118    172.99259  0.023176928  0.023655152            2 
  623000    1.0020823   -7.7345992     172.7301  0.023104615   0.02363673            3 
  624000    1.0190943   -7.7518212    173.74123  0.023202622  0.023618247            2 
  625000    1.0267323   -7.7602776     173.6943  0.023159239  0.023600118            3 
  626000   0.99923182    -7.681033    174.75587  0.023263561  0.023582128            3 
  627000    1.0166598   -7.6995607    174.42994  0.023183139  0.023564221            3 
  628000    1.0086573   -7.7222078    174.07176  0.023098694  0.023546211            2 
  629000   0.97842397   -7.7407809    174.20426  0.023079525  0.023528355            4 
  630000    1.0145442   -7.7109484    174.87986  0.023132257   0.02351063            3 
  631000    1.0010527   -7.7371364    175.47943  0.023174779  0.023493201            2 
  632000   0.97383721   -7.7472556    175.02481  0.023078166  0.023475455            1 
  633000    1.0022382   -7.7262814    175.80756  0.023144755  0.023457898            3 
  634000    0.9991787    -7.722837    175.53755  0.023072759  0.023440773           10 
  635000    1.0021162   -7.7048976    176.58414  0.023173772  0.023423561            3 
  636000    1.0358993   -7.7161936    176.27473  0.023096793  0.023406741            1 
  637000   0.99543963    -7.733904    176.86817   0.02313817  0.023390141            4 
  638000   0.97701056   -7.7250051    177.12052  0.023134865  0.023373407            4 
  639000   0.99567382   -7.6861696    177.36318  0.023130305   0.02335672            3 
  640000   0.98035479   -7.6994736    177.64875  0.023131348  0.023340113            4 
  641000   0.99987695    -7.744844    177.13818  0.023028884  0.023323474            2 
  642000   0.99507366   -7.7695682    177.12332  0.022991085  0.023306509            4 
  643000    1.0157378   -7.7476899    177.85244  0.023049823  0.023289638            2 
  644000     1.000018    -7.722071    177.86697  0.023015912   0.02327274            3 
  645000    1.0108847   -7.7572991      178.344  0.023041861  0.023256001            2 
  646000     1.012724   -7.7511868    178.17159  0.022983951   0.02323945            2 
  647000   0.99283158   -7.7532498    178.58987  0.023002302  0.023222975            1 
  648000   0.98826173   -7.7567948    178.55563  0.022962401  0.023206889            6 
  649000   0.97708087   -7.7674229    178.27632  0.022891156  0.023190668            1 
  650000    0.9798883   -7.7410835    178.88886  0.022934469  0.023174307            2 
  651000   0.99382679   -7.7501096     178.8894  0.022899309  0.023157847            3 
  652000    1.0094559    -7.735987    179.41103  0.022930857  0.023141418            2 
  653000   0.99792524   -7.7549836     179.2654  0.022877157  0.023124747            3 
  654000   0.97481652   -7.7904814    179.20294  0.022834218  0.023107956            4 
  655000    1.0077359   -7.7394668     179.5066   0.02283799  0.023091197            5 
  656000   0.99440736   -7.8026105    179.09639  0.022751066   0.02307448            3 
  657000    0.9855341     -7.74018    180.16558  0.022852052  0.023057793            2 
  658000    1.0126498   -7.7658485    179.78366  0.022768954  0.023041172            2 
  659000   0.98969514   -7.7345166    180.14109  0.022779601  0.023024529            4 
  660000    0.9798681   -7.7596031    180.27056  0.022761434  0.023007983            2 
  661000    1.0031102    -7.737459    180.20266   0.02271844  0.022991339            1 
  662000   0.98863284   -7.7675149    180.11438  0.022673008  0.022974347            2 
  663000   0.97639744   -7.7413788    180.62005   0.02270237  0.022957484            1 
  664000    1.0148708   -7.7508348    180.90724  0.022704222  0.022940828            3 
  665000   0.99689082   -7.7640427    180.59795  0.022631322  0.022923995            3 
  666000   0.99695663   -7.7965338    180.15743   0.02254222  0.022907031            2 
  667000   0.98648929   -7.7620654    180.97863  0.022611024  0.022889816            3 
  668000   0.97163588   -7.7726624    180.87832  0.022564661  0.022872513            2 
  669000    1.0014196   -7.7661359    181.15148  0.022564957  0.022855266            3 
  670000   0.98988408   -7.7585383    180.96241  0.022507763  0.022837938            2 
  671000   0.98050469   -7.7745336    181.46343  0.022536442  0.022820642            4 
  672000   0.97549637   -7.8196055     180.7362  0.022412723  0.022803609            4 
  673000    1.0039411   -7.7801004    181.33684  0.022453795  0.022786176            4 
  674000   0.99941065   -7.7566699    182.22516  0.022530312   0.02276911            3 
  675000   0.98789438   -7.7952333    181.72022  0.022434595  0.022752044            2 
  676000   0.96834136   -7.7840685     182.3247  0.022475924  0.022735049            2 
  677000   0.96210491   -7.7961293    182.24119  0.022432445  0.022718016            2 
  678000    0.9828971    -7.783158    182.62582  0.022446635  0.022701051            2 
  679000   0.99338542   -7.8104345    182.02521  0.022339864  0.022684188            1 
  680000   0.98399422   -7.7562524    182.70089  0.022389815  0.022667483            5 
  681000   0.98069734   -7.7978858    183.53184   0.02245862  0.022650822            2 
  682000    0.9846877   -7.7549158    183.63602  0.022438419  0.022634114            1 
  683000   0.96205446   -7.7874093    183.09086  0.022339051  0.022617544            3 
  684000   0.98092595    -7.785486    183.86851  0.022401135  0.022600931            2 
  685000   0.97655346   -7.7721779    183.98676  0.022382818  0.022584453            2 
  686000   0.97278073   -7.7912829    183.92339  0.022342492  0.022568015            2 
  687000   0.99750752   -7.8066052    184.08153  0.022329152   0.02255143            2 
  688000   0.98805713   -7.8038274    183.91703  0.022276772   0.02253481            1 
  689000   0.97637053   -7.8275721     184.3475  0.022296504  0.022518354            2 
  690000   0.97523367    -7.792372    184.24287  0.022251554  0.022501536            2 
  691000   0.97426514   -7.7954322    184.57022   0.02225883  0.022485043            3 
  692000   0.98533729   -7.8237979     184.0858  0.022168328  0.022468315            2 
  693000   0.99213694   -7.8081308    184.69332  0.022209394   0.02245126            1 
  694000   0.97577068   -7.7993263    184.79336  0.022189404  0.022433985            3 
  695000   0.99130712   -7.7741153    185.26192   0.02221366  0.022417043            1 
  696000   0.96979426   -7.8423055      184.527   0.02209375  0.022400095            3 
  697000   0.99129609   -7.8120477    184.70665   0.02208353  0.022382919            2 
  698000   0.96190654   -7.7919347    184.90966  0.022076129  0.022365751            1 
  699000   0.97903855   -7.7607974    185.19911  0.022079055  0.022348623            2 
  700000   0.97168931   -7.8050193    185.70242  0.022107431  0.022331587            3 
  701000   0.96717215   -7.7654755    185.74308  0.022080727  0.022314526            2 
  702000   0.98020355   -7.7651876    185.66598  0.022040122  0.022297402            2 
  703000   0.98151343   -7.8005923    185.56074  0.021996295  0.022280364            2 
  704000   0.98179464   -7.8344002    185.05077  0.021904683  0.022263139            2 
  705000   0.97457792   -7.8181661    185.80543  0.021962817  0.022245685            3 
  706000   0.97288046   -7.8643305    185.73028  0.021922838  0.022228426            3 
  707000   0.97359402   -7.8362789    185.67844  0.021885719  0.022211027            1 
  708000   0.95600974   -7.8039444    186.10407  0.021904905  0.022193738            4 
  709000   0.99060642   -7.7797425    186.54828   0.02192622  0.022176362            1 
  710000   0.97566118   -7.8039844    185.97804  0.021828408  0.022158896            2 
  711000   0.97440721   -7.7835293     186.8553  0.021900528   0.02214177            6 
  712000   0.96395838   -7.8330173    186.36819  0.021812757   0.02212464            2 
  713000   0.96017394   -7.8105701    186.89287  0.021843486  0.022107187            3 
  714000   0.98455312   -7.8774421    186.53145  0.021770711  0.022089762            2 
  715000   0.95235287   -7.8587609    186.37368  0.021721874  0.022072342            2 
  716000   0.98302017   -7.8008671    187.15826  0.021782851  0.022055073            4 
  717000   0.95544974   -7.8088277    187.16468  0.021753217  0.022037925            2 
  718000     0.959943   -7.7924485    187.57669  0.021770739   0.02202075            3 
  719000   0.97380691   -7.8588157    186.35715  0.021599113  0.022003211            2 
  720000   0.97035655   -7.7916661    187.15061   0.02166095  0.021985709            2 
  721000   0.95681786   -7.8368907    187.25357  0.021642807  0.021968022            1 
  722000   0.98028729    -7.886329    186.93549  0.021576118  0.021950117            1 
  723000   0.96140935   -7.8227913     187.8385  0.021650358  0.021932535            2 
  724000   0.95852412   -7.7940028    187.34436  0.021563577  0.021915029            5 
  725000   0.96928988   -7.8183866    188.46638  0.021662802  0.021897539            2 
  726000   0.95372599   -7.8262714    187.83775  0.021560807  0.021880353            1 
  727000   0.95001456   -7.7954553     188.4454  0.021600802  0.021863015            3 
  728000   0.96945149   -7.8288439    189.01353  0.021636164  0.021845902            2 
  729000   0.96106147   -7.8533932    188.57807  0.021556707  0.021828594            2 
  730000   0.96199382   -7.8245602    188.68045  0.021538865  0.021811229            1 
  731000   0.95888635   -7.8669461    189.05309   0.02155188  0.021793941            2 
  732000   0.98089176    -7.826125    189.15225  0.021533727  0.021776711            5 
  733000   0.97234986   -7.8136681    189.09954  0.021498356  0.021759487            1 
  734000   0.95604459   -7.8239058    189.05457  0.021463961  0.021742112            3 
  735000   0.94881859   -7.8388608    189.28058  0.021460383  0.021724773            5 
  736000    0.9757675    -7.832233    189.30638  0.021434147  0.021707136            1 
  737000   0.96648717   -7.8360338    189.24551  0.021398181  0.021689591            3 
  738000   0.97422801   -7.8177032    189.26849   0.02137178  0.021672035            2 
  739000   0.95896417   -7.8478101    189.43173  0.021361268  0.021654399            2 
  740000   0.95657913   -7.8945751    188.73179   0.02125358   0.02163679            1 
  741000   0.96972778    -7.892765    189.09338  0.021265562  0.021619094            4 
  742000   0.94157527   -7.8696563    189.77618  0.021313587   0.02160149            3 
  743000   0.93807511   -7.8486718       189.84  0.021292059  0.021583904            2 
  744000   0.95540434   -7.8373248    189.98692  0.021279896  0.021566458            1 
  745000   0.96130492   -7.8274403     190.0673  0.021260324  0.021549093            2 
  746000   0.93751466   -7.8568981    190.27454  0.021254975  0.021531628            3 
  747000   0.95139918   -7.8375239    190.26297  0.021225231  0.021514183            1 
  748000   0.94144375   -7.8218674    190.27484  0.021198177  0.021496641            3 
  749000   0.95154652   -7.8936804    190.42647  0.021186745  0.021479175            2 
  750000   0.96203173   -7.8339146    190.54294  0.021171437  0.021461627            4 
  751000   0.95183232   -7.8359485    190.57722  0.021147051  0.021444148            2 
  752000    0.9481818   -7.8479341    190.62958  0.021124732  0.021426471            2 
  753000   0.95570657    -7.851513    190.69064  0.021103435  0.021408916            1 
  754000   0.92953285   -7.8417067    191.23004  0.021135062   0.02139142            3 
  755000   0.96919758   -7.8790059    191.07806  0.021090293  0.021373942            2 
  756000   0.97161195   -7.8666316    191.40782  0.021098745  0.021356604            1 
  757000    0.9538185   -7.8706309    191.35027  0.021064539  0.021339086            2 
  758000   0.95570405   -7.8561496    191.46655  0.021049532  0.021321594            3 
  759000   0.93453761   -7.8810596    191.78324   0.02105657  0.021304232            1 
  760000   0.93257559   -7.8804285    191.10457  0.020954448  0.021286917            5 
  761000   0.93334336   -7.8812103    191.60791  0.020982032  0.021269588            2 
  762000    0.9583143   -7.9018336    191.42897  0.020934927  0.021252035            1 
  763000   0.92945568   -7.8909877    191.46626  0.020911562  0.021234396            3 
  764000   0.93885884   -7.8736268    192.23777  0.020968344  0.021216885            4 
  765000   0.94453706   -7.8786653    192.92855  0.021016182  0.021199688            1 
  766000   0.98320549   -7.8836235    192.35702  0.020926569  0.021182449            4 
  767000   0.94603636   -7.8623131    192.94635  0.020963315   0.02116522            4 
  768000   0.94805289   -7.8273653    192.96187  0.020937703  0.021148167            4 
  769000   0.93049388   -7.8744246    192.66285  0.020878072  0.021130938            1 
  770000   0.92647862   -7.8828315     192.5264  0.020836191   0.02111361            2 
  771000   0.91951582   -7.8879283    192.68844  0.020826679  0.021096356            2 
  772000    0.9358696   -7.8896459    193.40704  0.020877271  0.021079211            3 
  773000   0.93587944   -7.8472478    194.29619  0.020946118  0.021062289            2 
  774000   0.94180107   -7.8762832    193.61855  0.020846097  0.021045294            1 
  775000   0.93567075   -7.9078074    193.90015  0.020849478  0.021028207            1 
  776000    0.9412108   -7.8870268    193.13992  0.020740971  0.021011205            1 
  777000   0.94833526   -7.8865078    193.88383  0.020794062  0.020994105            3 
  778000   0.92479934   -7.9078437    193.73364  0.020751247  0.020977194            4 
  779000   0.93964552   -7.9121371    193.77008  0.020728507  0.020960138            2 
  780000   0.93769707   -7.8841989    194.40296  0.020769547  0.020943224            3 
  781000   0.94369336   -7.8560786     195.2932  0.020837942  0.020926618            2 
  782000     0.953088   -7.8903639    194.63296  0.020740938  0.020910009            2 
  783000   0.96443073   -7.9033546    194.84596  0.020737118  0.020893367            2 
  784000   0.93806948   -7.8831953    194.95398  0.020722149  0.020876982            2 
  785000   0.93455813   -7.8930229    195.31805    0.0207344  0.020860649            1 
  786000   0.93467265   -7.8855778    195.04743  0.020679329  0.020844353            3 
  787000   0.94545715   -7.9479944     194.9302   0.02064064  0.020827649            1 
  788000   0.94181075   -7.8808762    194.92561  0.020613961   0.02081083            3 
  789000   0.93643628   -7.8702594    195.98451  0.020699674  0.020794256            2 
  790000   0.94249001   -7.8475511    195.26721  0.020597807  0.020777816            2 
  791000   0.93092844   -7.8523693    196.27145  0.020677565  0.020761402            3 
  792000   0.92898806   -7.8865747    195.37722  0.020557367  0.020745017            2 
  793000     0.926814   -7.9299887    195.60938   0.02055584  0.020728442            4 
  794000   0.96214885   -7.8968369    195.61421  0.020530459  0.020711761            6 
  795000    0.9391236   -7.8895851    195.84785  0.020529125  0.020695037            2 
  796000   0.93408143   -7.8825929    196.86375  0.020609689  0.020678466            2 
  797000   0.95287311    -7.930223    196.18636  0.020513002   0.02066218            2 
  798000   0.92833678   -7.9267729    196.50275  0.020520337  0.020645689            3 
  799000   0.92928407   -7.8939518    196.70876  0.020516141  0.020629385            3 
  800000   0.92484396   -7.9021739    196.18134  0.020435556  0.020612948            2 
  801000   0.93352583   -7.9175118    196.51767  0.020445034  0.020596487            1 
  802000   0.92546615   -7.8859823    197.22765  0.020493314  0.020580301            2 
  803000    0.9253153   -7.8938347     197.5986  0.020506289  0.020564131            4 
  804000   0.91686779   -7.9203451    197.38765  0.020458919  0.020548071            3 
  805000   0.91943957    -7.900342    197.08472  0.020402145  0.020531885            2 
  806000    0.9411356   -7.8859443    197.39106  0.020408505  0.020515672            2 
  807000    0.9229274   -7.9129634     197.8617  0.020431815  0.020499646            2 
  808000    0.9387537   -7.8943967    198.11324  0.020432471  0.020483591            1 
[...]
 1800000   0.53049627   -8.9165182     216.4764  0.010022056 0.0085877393           10 
 1801000   0.53448106   -8.9287048    216.91669  0.010036863 0.0085801227           12 
 1802000   0.53056068   -8.9289002    216.50563  0.010012284 0.0085725041            7 
 1803000   0.53889911   -8.9204339    216.80895   0.01002075 0.0085648894           14 
 1804000   0.51977265   -8.9183362    216.96735  0.010022513 0.0085572921           14 
 1805000   0.53685059    -8.927594    217.10895  0.010023497 0.0085497056            7 
 1806000   0.53073715   -8.9272632    216.91905  0.010009185 0.0085421255           11 
 1807000   0.53641967   -8.9267838    216.69394 0.0099932639 0.0085345535            7 
 1808000   0.52737092   -8.9274817    216.93412 0.0099988073 0.0085269838           12 
 1809000    0.5323183   -8.9242403    216.61087  0.009978389 0.0085194301            7 
 1810000   0.53903383     -8.93449    217.01406 0.0099914391 0.0085118913           19 
 1811000   0.54664539   -8.9189484    216.57159 0.0099655617 0.0085043549           11 
 1812000   0.53265215   -8.9445502    216.78259 0.0099697658 0.0084968345           10 
 1813000   0.53237148   -8.9330955    216.54592 0.0099533884 0.0084893148           18 
 1814000   0.52290377   -8.9398046    216.78961 0.0099590965  0.008481801            6 
 1815000   0.52997595   -8.9366806    216.67604 0.0099483949 0.0084742971           14 
 1816000   0.53001173   -8.9294997    216.61252  0.009940002  0.008466808           16 
 1817000   0.53362049   -8.9295414    216.83578 0.0099447707 0.0084593255            6 
 1818000   0.53176014   -8.9590077    217.19282 0.0099556665  0.008451852           10 
 1819000   0.53219399    -8.927046    216.78083 0.0099313191 0.0084443879           14 
 1820000   0.53300867   -8.9285175    216.87128 0.0099300035 0.0084369468            6 
 1821000   0.52873622   -8.9370649    216.77243 0.0099200268 0.0084295104           10 
 1822000   0.52769948   -8.9448263     216.9015 0.0099204855 0.0084220833            9 
 1823000   0.53232503   -8.9230367    216.80511 0.0099106375 0.0084146557            7 
 1824000     0.529659   -8.9369689    216.51424 0.0098919151 0.0084072324            8 
 1825000   0.52636404   -8.9412455    216.62822 0.0098916995  0.008399821            9 
 1826000    0.5296087   -8.9439634    216.48854 0.0098799076 0.0083924179            7 
 1827000   0.53099395   -8.9187153    216.51064  0.009875508 0.0083850172           10 
 1828000   0.53010058   -8.9399882    216.82328  0.009884358 0.0083776313            6 
 1829000   0.52279076   -8.9515767    216.78673 0.0098772887 0.0083702541            3 
 1830000   0.52296191   -8.9326273    216.50962 0.0098592725 0.0083628909            5 
 1831000   0.51853509   -8.9550346    216.68388 0.0098618187 0.0083555298            3 
 1832000    0.5375412   -8.9393747    216.43515 0.0098451214 0.0083481678            4 
 1833000   0.53671804   -8.9354635    216.77627 0.0098552588 0.0083408182            5 
 1834000    0.5223894   -8.9445698    216.48864 0.0098368156 0.0083334793            5 
 1835000    0.5133773   -8.9554056    216.65545 0.0098390306 0.0083261353            5 
 1836000   0.53505042   -8.9513832    216.57301 0.0098299298 0.0083188044            6 
 1837000   0.53579438   -8.9557395    216.11016  0.009803582 0.0083114764            4 
 1838000   0.51779616   -8.9389254    216.23562 0.0098039361 0.0083041582            5 
 1839000   0.52260968   -8.9457105    216.63386 0.0098166512 0.0082968533            5 
 1840000   0.50227788   -8.9496988    216.61175 0.0098103149 0.0082895599           12 
 1841000   0.52253867   -8.9432725    216.27276 0.0097896416 0.0082822694            9 
 1842000   0.52930682   -8.9660031    216.42018 0.0097909961  0.008274984            6 
 1843000   0.51902561   -8.9623638    216.27458 0.0097791002 0.0082677163            5 
 1844000    0.5064309   -8.9291156    216.34377 0.0097769236 0.0082604508            6 
 1845000    0.5343714   -8.9452041    216.66505 0.0097861358 0.0082531881           11 
 1846000   0.50982137   -8.9560527    216.48347 0.0097726377  0.008245939           15 
 1847000   0.51880566   -8.9567325    216.83678 0.0097832872 0.0082386857            9 
 1848000   0.51550314   -8.9406324    216.25563  0.009751787 0.0082314459            3 
 1849000   0.51177302   -8.9577118    216.42657 0.0097542173 0.0082242167            3 
 1850000   0.51624736   -8.9689015    216.43032 0.0097491133 0.0082169975            4 
 1851000   0.51536946   -8.9538198    216.86221 0.0097632906 0.0082097896            8 
 1852000   0.51463754   -8.9524834      216.374 0.0097360512 0.0082025904            8 
 1853000   0.51537305   -8.9385827    216.19576 0.0097227812 0.0081953991            5 
 1854000   0.50731445    -8.969249    216.35591 0.0097247353 0.0081882136            4 
 1855000   0.51155862   -8.9588008    216.35774 0.0097195749 0.0081810397            5 
 1856000   0.50928397   -8.9489868    216.17057 0.0097059343 0.0081738742            5 
 1857000   0.50202347   -8.9850007    216.53547 0.0097170827  0.008166718            6 
 1858000   0.51258483   -8.9614441    216.38533  0.009705119 0.0081595657            9 
 1859000    0.5016365   -8.9537079    216.23659 0.0096932308 0.0081524155            4 
 1860000   0.51346729   -8.9740875    216.24323 0.0096883167 0.0081452761            9 
 1861000   0.51114552   -8.9663439    216.18569  0.009680534 0.0081381434           11 
 1862000   0.49498418   -8.9581717    216.38037 0.0096840483 0.0081310163            7 
 1863000   0.51628336   -8.9482413    216.40245 0.0096798377 0.0081239041            6 
 1864000   0.51429046   -8.9540857    216.23574 0.0096671916 0.0081167897            8 
 1865000   0.51299252   -8.9786532    216.34021 0.0096666762 0.0081096907           10 
 1866000   0.50452905   -8.9708915     216.7708  0.009680725 0.0081025948            9 
 1867000   0.51327808   -8.9864981    216.29111 0.0096541293 0.0080955047           11 
 1868000   0.51921424   -8.9687103    216.42916 0.0096551196 0.0080884183            2 
 1869000   0.50091084   -8.9742135    216.80483 0.0096667038 0.0080813458            9 
 1870000   0.51315738   -8.9726941    216.30916 0.0096394458 0.0080742816            6 
 1871000   0.50778723   -8.9751948    216.74989 0.0096539234 0.0080672277            3 
 1872000   0.50494405   -8.9500912    216.06253 0.0096181682 0.0080601762            6 
 1873000   0.50012578   -8.9818863    216.42921 0.0096293474 0.0080531293           13 
 1874000   0.50254192   -8.9781433    216.37702  0.009621888 0.0080460985           11 
 1875000   0.50818223   -8.9656474    216.30986 0.0096137714  0.008039076            8 
 1876000   0.51208484   -8.9828684    216.05646 0.0095973907 0.0080320638           15 
 1877000   0.50292627   -8.9669582    216.07896 0.0095932765 0.0080250645            8 
 1878000   0.49378549   -8.9723238    216.36056  0.009600664 0.0080180603            8 
 1879000   0.50569311   -8.9686536    216.27708 0.0095918519 0.0080110634            8 
 1880000   0.49935197   -8.9889366    216.12579 0.0095800441 0.0080040728            8 
 1881000   0.50101901   -8.9803548    216.40499 0.0095873199 0.0079970928            9 
 1882000   0.49947986   -8.9816477    216.45257 0.0095843327 0.0079901234            4 
 1883000   0.50670787   -8.9770433    216.43054 0.0095782679 0.0079831651            5 
 1884000   0.51412135   -8.9776278    216.45749 0.0095743757  0.007976215            7 
 1885000    0.4930456   -8.9714843    216.12222 0.0095544749 0.0079692682            5 
 1886000    0.5006877   -8.9802226    216.18648 0.0095522482 0.0079623283           15 
 1887000   0.49241227   -8.9811331    216.01917 0.0095397973  0.007955399            9 
 1888000   0.49565541   -8.9766444    216.22599 0.0095438731  0.007948473           14 
 1889000    0.4965418   -8.9788646    216.18133 0.0095368506 0.0079415575           14 
 1890000    0.4990853   -8.9797243    216.06493 0.0095266723 0.0079346437            9 
 1891000   0.50216527   -8.9673823    216.12208 0.0095241528 0.0079277418           11 
 1892000   0.50129156   -8.9998159    216.60139 0.0095402302 0.0079208492            5 
 1893000   0.48952555   -8.9719465    216.19693 0.0095173854 0.0079139629           11 
 1894000   0.49409389   -8.9854039    216.21928  0.009513344 0.0079070846            9 
 1895000   0.49901016   -8.9805695    216.07568 0.0095020088 0.0079002163           15 
 1896000   0.50292362   -8.9858715    215.81929 0.0094857284 0.0078933537           14 
 1897000   0.50413691   -8.9785951    216.35819 0.0095044015 0.0078865032            6 
 1898000   0.50241933   -8.9960269    215.94803 0.0094813854 0.0078796502           14 
 1899000   0.49320485   -9.0089897    216.27307 0.0094906559 0.0078728058            7 
 1900000   0.49619806   -9.0099743    216.07388 0.0094769246 0.0078659782            6 
 1901000   0.50002937   -8.9745348     216.3167 0.0094825838 0.0078591642           12 
 1902000   0.49833686   -8.9788586    216.11541 0.0094687791 0.0078523591           11 
 1903000   0.48501876   -8.9918914    215.96231  0.009457099 0.0078455481            4 
 1904000   0.49930723   -9.0042224    216.54521 0.0094776438 0.0078387489           10 
 1905000   0.49703952   -8.9883649    216.28578   0.00946132 0.0078319525            2 
 1906000   0.49645017   -9.0046904     216.4164  0.009462067 0.0078251724           15 
 1907000   0.49489917   -8.9981887    216.00786 0.0094392528 0.0078183909           13 
 1908000   0.48773981   -8.9828726    216.13141 0.0094397016 0.0078116134            6 
 1909000   0.49005787    -9.004823    215.93833 0.0094263282 0.0078048512            7 
 1910000   0.48347475   -8.9934447    216.43229 0.0094429445 0.0077980894            3 
 1911000   0.49123216   -8.9856162    215.68826  0.009405558 0.0077913439           13 
 1912000   0.49139235   -8.9967455    216.12203 0.0094195448 0.0077846025           16 
 1913000   0.49320752   -8.9918386    216.19627 0.0094178544 0.0077778643            9 
 1914000   0.49280565     -8.98849    215.91777 0.0094008083 0.0077711311            7 
 1915000   0.49302617   -8.9979273    216.08993  0.009403391 0.0077644094            8 
 1916000   0.49528785    -8.994817    216.45744 0.0094144677 0.0077577024           17 
 1917000    0.4903856   -9.0075209    215.83456 0.0093824796 0.0077509928            6 
 1918000   0.48617487   -9.0033124    216.33937 0.0093995209 0.0077442897           11 
 1919000   0.49022765   -9.0020133    216.30627 0.0093931852 0.0077376028            6 
 1920000   0.47492374   -8.9983515    216.05363 0.0093773278 0.0077309167            4 
 1921000   0.48327508   -9.0047522    215.80923 0.0093618439 0.0077242415           12 
 1922000   0.48819298   -9.0190921    216.07401 0.0093684532 0.0077175706           13 
 1923000   0.48896165   -9.0015273    215.84037 0.0093534568 0.0077109156            3 
 1924000   0.47577916   -9.0058129    215.85211 0.0093491038 0.0077042615            7 
 1925000   0.48592058   -9.0099556    215.75374 0.0093399886  0.007697615           12 
 1926000   0.48171689    -9.018098    215.91621  0.009342169 0.0076909709            9 
 1927000    0.4834505   -9.0140422    215.88916 0.0093361512  0.007684334           14 
 1928000   0.48957969   -9.0153063    216.26482 0.0093475457 0.0076777033           11 
 1929000   0.48170875   -9.0118574    216.13266 0.0093369906 0.0076710783           10 
 1930000   0.48741017   -8.9858301    216.03279 0.0093278406 0.0076644699            8 
 1931000   0.48792847   -9.0111794    215.66755 0.0093072479 0.0076578624           10 
 1932000   0.48786351   -9.0225381    215.66616 0.0093023704 0.0076512583            7 
 1933000   0.47585241   -9.0196836    215.88988 0.0093072028 0.0076446677           13 
 1934000   0.49139317   -9.0090756    215.77703 0.0092975279 0.0076380847           10 
 1935000   0.48364468   -9.0209834    215.59205 0.0092847566 0.0076315079            4 
 1936000   0.47300771   -9.0153816     216.2824 0.0093096765 0.0076249405            5 
 1937000   0.48475291   -9.0094711    215.64475 0.0092774373 0.0076183712            9 
 1938000   0.47956119   -9.0090594    215.85514 0.0092816969 0.0076118131            8 
 1939000   0.47295058    -9.003935    215.86281 0.0092772396 0.0076052589           15 
 1940000   0.47595904   -9.0036227    215.74867 0.0092675545  0.007598714            4 
 1941000   0.47568425    -9.017864     215.9234 0.0092702818 0.0075921789           12 
 1942000   0.49344641   -9.0282978    215.80422 0.0092603941 0.0075856491            4 
 1943000   0.47603547   -9.0191459    215.63205 0.0092482439 0.0075791291            9 
 1944000   0.47160227   -9.0193706    215.84474 0.0092526037 0.0075726169            8 
 1945000   0.48001084   -9.0316292    215.84751 0.0092479651 0.0075661093            7 
 1946000   0.47525489   -9.0189897    215.88421 0.0092447845 0.0075596099           12 
 1947000   0.48153821    -9.034735     215.6605 0.0092304615 0.0075531165           12 
 1948000   0.47563373     -9.01257    215.62491 0.0092242004 0.0075466309            8 
 1949000   0.47449659   -9.0328988    215.89664 0.0092310862 0.0075401577           12 
 1950000   0.48047956   -9.0086628    215.71412 0.0092185521 0.0075336905            8 
 1951000   0.48272505   -9.0331396    215.95572 0.0092241465 0.0075272331           11 
 1952000   0.47996598    -9.011113    215.69183 0.0092081552 0.0075207843            7 
 1953000   0.48527615   -9.0326164    215.71251 0.0092043226 0.0075143353            8 
 1954000   0.47143124   -9.0146969    215.32618 0.0091831362 0.0075078854           20 
 1955000   0.46586244    -9.033015    215.93407  0.009204351 0.0075014461           10 
 1956000   0.47048982   -9.0248151    215.61871 0.0091862097 0.0074950179           15 
 1957000   0.46764949   -9.0448713    215.61333 0.0091812863 0.0074885946           12 
 1958000   0.47424507   -9.0154228    215.66614 0.0091788449 0.0074821803            5 
 1959000   0.47854574   -9.0260346    215.70444 0.0091757887 0.0074757697           13 
 1960000   0.46327042   -9.0243033    215.94893  0.009181502 0.0074693671            3 
 1961000   0.46602235   -9.0385007    215.69437 0.0091660024  0.007462971            6 
 1962000   0.46994466   -9.0340605    215.72094 0.0091624591 0.0074565851           11 
 1963000   0.47315078   -9.0376658    215.49727 0.0091482966 0.0074502056            4 
 1964000   0.46973832   -9.0206004    215.49551 0.0091435637 0.0074438269           14 
 1965000   0.45661165   -9.0120361    215.62934 0.0091445862 0.0074374483           10 
 1966000   0.46956888    -9.037533    215.37375 0.0091291008  0.007431082           13 
 1967000   0.46843741   -9.0378997    215.71789 0.0091390398 0.0074247332           11 
 1968000   0.46855527   -9.0274624    215.56016  0.009127717  0.007418391            5 
 1969000   0.46455577   -9.0338763    215.62038 0.0091256296 0.0074120471           11 
 1970000   0.46543585   -9.0298032    215.79947  0.009128573  0.007405723            5 
 1971000   0.47088298   -9.0286446     215.9238 0.0091291982 0.0073993971            6 
 1972000   0.45909305   -9.0425566    215.79797 0.0091192516 0.0073930809            9 
 1973000   0.46939866   -9.0446886    215.65601 0.0091086338 0.0073867756            5 
 1974000   0.46037796   -9.0391168    215.64329 0.0091034823 0.0073804688            3 
 1975000    0.4688988   -9.0397875    215.46822  0.009091486 0.0073741675           10 
 1976000   0.47465517   -9.0318869    215.32696 0.0090809278 0.0073678703            6 
 1977000   0.48014508   -9.0472096     215.5619 0.0090862377 0.0073615861            5 
 1978000   0.47420308   -9.0498677    215.68507 0.0090868331 0.0073553114           11 
 1979000   0.47079076   -9.0555549    215.66841   0.00908154 0.0073490431            6 
 1980000   0.46027976   -9.0396051    215.60545 0.0090743036 0.0073427829            3 
 1981000   0.46289576   -9.0445648      215.533 0.0090666752 0.0073365287            7 
 1982000   0.47059883    -9.045208    215.52656   0.00906183 0.0073302816           11 
 1983000   0.46858855   -9.0553501    215.44194 0.0090537039 0.0073240346            6 
 1984000   0.46899069    -9.036507     215.7637 0.0090626555 0.0073178007            8 
 1985000   0.45237962   -9.0485307    215.54663  0.009048977   0.00731157           11 
 1986000   0.45423878   -9.0454554    215.40617 0.0090385266 0.0073053487           12 
 1987000   0.45233397   -9.0525925    215.71872 0.0090470862 0.0072991329            4 
 1988000   0.46451806   -9.0477852    215.50414 0.0090335404  0.007292928            8 
 1989000   0.45108864    -9.048648    215.76897 0.0090400941 0.0072867255            5 
 1990000   0.44665915    -9.039732    215.19127 0.0090113598 0.0072805336            8 
 1991000   0.45804897   -9.0423477    215.48239 0.0090190183 0.0072743511            4 
 1992000   0.45075225   -9.0521634    215.40906 0.0090114232 0.0072681736            9 
 1993000   0.44939622   -9.0457111    215.57049 0.0090136517 0.0072620039            9 
 1994000   0.46731933   -9.0637912     215.5417 0.0090079279 0.0072558344            5 
 1995000   0.46061872   -9.0529143     215.4046  0.008997686 0.0072496778            9 
 1996000   0.45375617   -9.0477314    215.42619 0.0089940794 0.0072435265            5 
 1997000   0.46318519   -9.0498875    215.54769 0.0089946455 0.0072373865            7 
 1998000    0.4491869   -9.0439483    215.68295 0.0089957855 0.0072312461           10 
 1999000   0.44929857   -9.0557287     215.4133  0.008980044 0.0072251129            5 
 2000000   0.45249403   -9.0444468    215.81273  0.008992197 0.0072189864           11 
 2001000   0.45045507   -9.0479649    215.54554 0.0089765759 0.0072128701           11 
 2002000   0.45477231   -9.0547154    215.62993 0.0089756047 0.0072067596           11 
 2003000   0.45489854    -9.053023    215.37278 0.0089604252 0.0072006602           13 
 2004000   0.45791179   -9.0459737    215.52384 0.0089622356 0.0071945651           14 
 2005000   0.44597978   -9.0486547    215.35511 0.0089507527 0.0071884752            5 
 2006000   0.44736954   -9.0459322    215.32228 0.0089449271  0.007182399           12 
 2007000   0.45977541   -9.0547553    215.63745 0.0089535563 0.0071763231           14 
 2008000   0.45180086   -9.0461842    215.44202 0.0089409867 0.0071702561           11 
 2009000    0.4471597    -9.050773    215.37389 0.0089337105    0.0071642           10 
 2010000   0.45289542   -9.0619315    215.17216 0.0089209021 0.0071581449            9 
 2011000   0.43608316   -9.0577752    215.32337 0.0089227318  0.007152095            5 
 2012000   0.44964701   -9.0724018    215.47384 0.0089245296  0.007146054            2 
Loop time of 4981.92 on 48 procs for 2000000 steps with 4000 atoms

Performance: 69370.895 tau/day, 401.452 timesteps/s
99.4% CPU use with 48 MPI tasks x no OpenMP threads

MPI task timing breakdown:
Section |  min time  |  avg time  |  max time  |%varavg| %total
---------------------------------------------------------------
Pair    | 344.09     | 360.78     | 379.54     |  40.8 |  7.24
Neigh   | 33.297     | 34.375     | 36.194     |  11.8 |  0.69
Comm    | 319.61     | 338.06     | 358.25     |  49.2 |  6.79
Output  | 4.2416     | 4.2434     | 4.274      |   0.2 |  0.09
Modify  | 4189.7     | 4201.1     | 4211.2     |   6.6 | 84.33
Other   |            | 43.38      |            |       |  0.87

Nlocal:        83.3333 ave          90 max          78 min
Histogram: 5 2 8 8 6 5 5 4 2 3
Nghost:        2209.92 ave        2226 max        2181 min
Histogram: 1 0 1 4 4 8 9 11 6 4
Neighs:        14809.5 ave       16658 max       13521 min
Histogram: 4 6 6 6 11 5 5 1 1 3
FullNghs:      29619.6 ave       32068 max       27569 min
Histogram: 3 4 9 7 7 2 8 3 2 3

Total # of neighbors = 1421743
Ave neighs/atom = 355.43575
Neighbor list builds = 106755
Dangerous builds = 0

#clear
#
#next RN
#
#jump SELF
Total wall time: 1:23:05
