
units lj                  # Use reduced LJ style units
atom_style atomic         # Uncharged point particles
atom_modify map hash      # Needed for indexing of clusters etc
                          # Used to be able to find where atoms are in relation to each other.

lattice fcc 1.0 spacing 1 1 1
Lattice spacing in x,y,z = 1.5874011 1.5874011 1.5874011
region box block 0 10 0 10 0 10 units lattice
create_box 2 box
Created orthogonal box = (0.0000000 0.0000000 0.0000000) to (15.874011 15.874011 15.874011)
  3 by 4 by 4 MPI processor grid
create_atoms 1 box
Created 4000 atoms
  using lattice units in orthogonal box = (0.0000000 0.0000000 0.0000000) to (15.874011 15.874011 15.874011)
  create_atoms CPU = 0.026 seconds
set type 1 type/fraction 2 0.62 78393
Setting atom values ...
  2494 settings made for type/fraction
mass 1 1.0
mass 2 1.0
pair_style lj/cut  3.5
pair_modify tail  yes
pair_coeff 1  1  1.0  1.0   # Intearaction between 1 and 1 set with epsilon = 1 and sigma = 1
pair_coeff 1  2  1.5  0.8
pair_coeff 2  2  0.5  0.88

write_data data.0
System init for write_data ...
Neighbor list info ...
  update every 1 steps, delay 10 steps, check yes
  max neighbors/atom: 2000, page size: 100000
  master list distance cutoff = 3.8
  ghost atom cutoff = 3.8
  binsize = 1.9, bins = 9 9 9
  1 neighbor lists, perpetual/occasional/extra = 1 0 0
  (1) pair lj/cut, perpetual
      attributes: half, newton on
      pair build: half/bin/atomonly/newton
      stencil: half/bin/3d
      bin: standard
WARNING: Not all mixed pair coeffs generated from mixing. Use write_data with 'pair ij' option to store all pair coeffs. (../write_data.cpp:312)


#############################
#   M E L T   S Y S T E M   #
#############################

velocity all create 2.4 6583654 mom yes dist gaussian # Assign velocities
                                                    # Temperature 2.4, random number seed, zero linear momentum
                                                                                # Gaussian distribution

timestep 0.002   # simulation timestep
thermo 1000       # output thermodynamic data every 1000 steps bf 100

# Define a fix  in this case with index 1 applied to all
# particles in the simulation. This fix is for simulations
# in the anisotropic NPT ensemble. Note that we use the MTK
# correction.
fix 1 all npt temp 2.4 2.4 0.1 iso 5.68 5.68 0.5 mtk yes tchain 5 pchain 5 # Use NPT ensemble
                                                                         # Set temperature and pressure and damping
                                                                         # Numbers of thermostats in chain and in barostat
run 10000          # run for 10000 steps
Per MPI rank memory allocation (min/avg/max) = 3.642 | 3.644 | 3.648 Mbytes
Step Temp E_pair E_mol TotEng Press Volume 
       0          2.4   -4.6132646            0   -1.0141646   -4.0148013         4000 
    1000    2.4341431   -4.3167919            0  -0.66649006    5.6660243    3626.0192 
    2000    2.4377345   -4.3339869            0  -0.67829929     5.755717    3623.7652 
    3000    2.3806466   -4.3402833            0  -0.77020617    5.3676537    3645.0933 
    4000    2.4140681    -4.352806            0  -0.73260917    5.8367633    3597.9438 
    5000    2.4449844   -4.3659355            0  -0.69937579    5.6647704    3612.4116 
    6000     2.341093   -4.4021293            0  -0.89136767    5.7793251    3570.1297 
    7000    2.4154099   -4.3835452            0  -0.76133616    5.7066897    3588.9749 
    8000    2.4265599   -4.3190723            0  -0.68014235    5.7423081    3630.7593 
    9000    2.3903461   -4.3398952            0   -0.7552725    5.7671675    3609.0261 
   10000    2.3643756   -4.3910911            0  -0.84541438    5.4096203    3610.9308 
Loop time of 2.64916 on 48 procs for 10000 steps with 4000 atoms

Performance: 652282.046 tau/day, 3774.780 timesteps/s
99.6% CPU use with 48 MPI tasks x no OpenMP threads

MPI task timing breakdown:
Section |  min time  |  avg time  |  max time  |%varavg| %total
---------------------------------------------------------------
Pair    | 1.2369     | 1.2828     | 1.3527     |   1.8 | 48.42
Neigh   | 0.21901    | 0.22521    | 0.23093    |   0.6 |  8.50
Comm    | 0.81372    | 0.87482    | 0.9246     |   2.2 | 33.02
Output  | 0.00027194 | 0.00027645 | 0.00034363 |   0.0 |  0.01
Modify  | 0.2302     | 0.25017    | 0.2704     |   2.3 |  9.44
Other   |            | 0.0159     |            |       |  0.60

Nlocal:        83.3333 ave          94 max          71 min
Histogram: 2 2 2 5 7 5 17 6 1 1
Nghost:        1754.92 ave        1792 max        1716 min
Histogram: 1 4 4 5 6 11 11 2 2 2
Neighs:        10575.9 ave       11825 max        8504 min
Histogram: 1 2 2 4 4 5 11 7 6 6

Total # of neighbors = 507642
Ave neighs/atom = 126.91050
Neighbor list builds = 905
Dangerous builds = 201

# Equilibrate just above the melting temperature to avoid step fn in T

fix 1 all npt temp 1.25 1.25 0.1 iso 5.68 5.68 0.5 mtk yes tchain 5 pchain 5
run 2000
Per MPI rank memory allocation (min/avg/max) = 3.644 | 3.646 | 3.650 Mbytes
Step Temp E_pair E_mol TotEng Press Volume 
   10000    2.3643756   -4.3910911            0  -0.84541438    5.4096203    3610.9308 
   11000    1.2364173   -6.3833631            0   -4.5292007    5.6066786    2769.2384 
   12000    1.2594247    -6.476899            0   -4.5882342    6.2958036    2720.8822 
Loop time of 0.68026 on 48 procs for 2000 steps with 4000 atoms

Performance: 508040.960 tau/day, 2940.052 timesteps/s
99.6% CPU use with 48 MPI tasks x no OpenMP threads

MPI task timing breakdown:
Section |  min time  |  avg time  |  max time  |%varavg| %total
---------------------------------------------------------------
Pair    | 0.30213    | 0.33189    | 0.38189    |   2.4 | 48.79
Neigh   | 0.041513   | 0.044552   | 0.049795   |   0.6 |  6.55
Comm    | 0.20398    | 0.2521     | 0.28311    |   2.8 | 37.06
Output  | 5.3231e-05 | 5.4355e-05 | 7.0471e-05 |   0.0 |  0.01
Modify  | 0.039584   | 0.046577   | 0.051815   |   1.7 |  6.85
Other   |            | 0.005091   |            |       |  0.75

Nlocal:        83.3333 ave          91 max          76 min
Histogram: 1 1 7 4 13 2 14 3 2 1
Nghost:        2137.83 ave        2155 max        2121 min
Histogram: 3 4 3 3 9 10 8 1 6 1
Neighs:        14031.4 ave       15474 max       11941 min
Histogram: 1 0 2 3 8 13 8 5 3 5

Total # of neighbors = 673507
Ave neighs/atom = 168.37675
Neighbor list builds = 143
Dangerous builds = 14

#############################
# L I N E A R  Q U E N C H  #
#############################

# Define solid atoms. This closely follows ten Wolde  Ruiz-Montero and Frenkel  Faraday Discuss  1996  104  93-110
# Compute components of the per-atom q6 vector
compute q6 all orientorder/atom degrees 1 6 components 6 nnn NULL cutoff 1.3 # compute the Q6 parameter.
                                                                             # Use all neighbours within 1.3 unit cell.

# get number of connections
compute coord_number all coord/atom orientorder q6 0.5

# An atom is solid if it has 8 or more connections (of a possible 14)
variable is_solid atom c_coord_number>=8
group solid dynamic all var is_solid    # Must be dynamic to update
dynamic group solid defined

# do clustering
compute cluster solid cluster/atom 1.3 # Create a cluster where all atoms within are solid and max 1.3 units from another member

# define chunks one chunk per cluster
compute clus_chunks solid chunk/atom c_cluster nchunk every compress yes  # Says which atoms are in which chunk

# count the size of each chunk
compute size_chunks solid property/chunk clus_chunks count


# Find the maximum entry in the vector of chunk sizes
variable max_n equal max(c_size_chunks)


# Thermo style which includes this variable
# thermo_style custom step temp pe vol v_max_n

thermo ${N}  # Print the thermo information every 100 steps
thermo 1000  

# Reset the npt fix at a lower temperature (below freezing)
fix 1  all npt temp  ${temp} ${temp}  0.1  iso  5.68  5.68  0.5  mtk yes tchain  5  pchain  5
fix 1  all npt temp  0.45 ${temp}  0.1  iso  5.68  5.68  0.5  mtk yes tchain  5  pchain  5
fix 1  all npt temp  0.45 0.45  0.1  iso  5.68  5.68  0.5  mtk yes tchain  5  pchain  5

dump dmp2 all dcd ${N} traj.dcd
dump dmp2 all dcd 1000 traj.dcd


compute msd all msd com yes
variable twopoint equal c_msd[4]/6/(step*dt+1.0e-6)
fix 9 all vector 10 c_msd[4]
variable fit equal slope(f_9)/6/(10*dt)
thermo_style custom step temp pe c_msd[4] v_twopoint v_fit v_max_n

fix 1 all npt temp 1.25 ${temp} 0.1 iso 5.68 5.68 0.5 mtk yes tchain 5 pchain 5
fix 1 all npt temp 1.25 0.45 0.1 iso 5.68 5.68 0.5 mtk yes tchain 5 pchain 5
run 2000000 # 5000000  # Run for this many steps
Neighbor list info ...
  update every 1 steps, delay 10 steps, check yes
  max neighbors/atom: 2000, page size: 100000
  master list distance cutoff = 3.8
  ghost atom cutoff = 3.8
  binsize = 1.9, bins = 8 8 8
  4 neighbor lists, perpetual/occasional/extra = 1 3 0
  (1) pair lj/cut, perpetual
      attributes: half, newton on
      pair build: half/bin/atomonly/newton
      stencil: half/bin/3d
      bin: standard
  (2) compute orientorder/atom, occasional
      attributes: full, newton on
      pair build: full/bin/atomonly
      stencil: full/bin/3d
      bin: standard
  (3) compute coord/atom, occasional
      attributes: full, newton on
      pair build: full/bin/atomonly
      stencil: full/bin/3d
      bin: standard
  (4) compute cluster/atom, occasional
      attributes: full, newton on
      pair build: full/bin/atomonly
      stencil: full/bin/3d
      bin: standard
Per MPI rank memory allocation (min/avg/max) = 9.850 | 9.855 | 9.860 Mbytes
Step Temp PotEng c_msd[4] v_twopoint v_fit v_max_n 
   12000    1.2594247    -6.476899 3.1564297e-30 2.191965e-32 8.3333333e+20            2 
   13000    1.2252662   -6.4415872   0.50139889 0.0032140953  0.041323281            7 
   14000    1.2606057   -6.4989519   0.93128953 0.0055433899  0.037955884            2 
   15000    1.2788941   -6.4846778    1.3809664 0.0076720355  0.037214248            2 
   16000    1.2307132   -6.4680772    1.8635761 0.0097061251  0.037474724            2 
   17000    1.2576335   -6.4362805    2.3178717  0.011362116  0.037683766            3 
   18000    1.2597837   -6.4886546    2.7947476  0.012938646  0.037754944            2 
   19000    1.2859101   -6.3992481    3.3259194  0.014587365  0.038363829            2 
   20000    1.2356073   -6.4367519    3.7650796  0.015687831  0.038780086            3 
   21000    1.2608778   -6.5017422    4.1541658  0.016484785  0.038750227            2 
   22000    1.2695483   -6.4405385    4.7170293  0.017867535  0.038773682            3 
   23000    1.2333676   -6.4797568    5.1392335  0.018620411  0.038810131            5 
   24000    1.2213576   -6.4733681    5.4823449  0.019035919  0.038646081            3 
   25000    1.2390134   -6.4797286     5.976619  0.019922063   0.03843249            2 
   26000    1.2370719   -6.4725606    6.4429885  0.020650604  0.038339657            2 
   27000    1.2372907   -6.5267535    6.8544086  0.021155582  0.038227765            6 
   28000    1.2623266   -6.4968688    7.2744229  0.021650068  0.038121436            2 
   29000    1.2591395   -6.4963485    7.7388362  0.022238035  0.037994555            2 
   30000    1.2463667   -6.5058609    8.1688925  0.022691368  0.037924179            2 
   31000    1.2459223   -6.5009264    8.5809287  0.023067012  0.037821108            4 
   32000    1.2227266    -6.560365    9.0198931  0.023489305  0.037687705            2 
   33000    1.2787671   -6.4690455    9.5814448  0.024195567  0.037641963            2 
   34000    1.2593601   -6.5282063    9.8957091  0.024254189  0.037623776            5 
   35000    1.2532821   -6.4351085    10.362157  0.024671801  0.037544566            3 
   36000    1.2369085   -6.4976034    10.882447  0.025190848  0.037511793            1 
   37000    1.2302548   -6.5456945    11.247823  0.025332934  0.037482604            1 
   38000    1.2443458   -6.4961845    11.808965  0.025896853  0.037454382            1 
   39000    1.2518939   -6.4827729    12.279402  0.026238038  0.037469537            3 
   40000    1.2472502   -6.4953489    12.556344   0.02615905  0.037467434            1 
   41000    1.2302782   -6.4290406     13.13546  0.026698089  0.037429161            1 
   42000    1.2243062     -6.54787    13.493991  0.026773791  0.037415887            2 
   43000    1.2412354   -6.5303793    14.001403  0.027134501   0.03739524            3 
   44000    1.2354585   -6.5605168    14.249373  0.026987448  0.037347788            2 
   45000    1.2562663   -6.5013199    14.745688  0.027306829  0.037279857            3 
   46000    1.2318624   -6.4728395    15.094453  0.027345024  0.037206976            1 
   47000     1.252967   -6.5363602    15.547578  0.027566628  0.037135453            1 
   48000    1.2474809   -6.4919373    15.968012  0.027722244  0.037066075            2 
   49000    1.2152014   -6.5248671     16.43876  0.027957075  0.036993074            1 
   50000    1.2279065   -6.5139366    17.076699  0.028461164  0.037001686            5 
   51000    1.2414914   -6.4922136    17.512597  0.028615354  0.037018943            2 
   52000    1.2391672   -6.5251789    17.694012  0.028355789  0.036990907            5 
   53000    1.2412044   -6.4546658      18.0982  0.028456288  0.036924605            1 
   54000    1.2121082   -6.5190258    18.408299  0.028407868  0.036826388            2 
   55000     1.254724   -6.5296909    18.872291   0.02859438  0.036731574            3 
   56000    1.2243178   -6.4793322    19.300019  0.028720266  0.036653594            2 
   57000    1.2524401   -6.5161036    19.802402   0.02895088  0.036589531            3 
   58000    1.2251298   -6.5488019    20.141915  0.028939533  0.036535809            4 
   59000    1.2381005   -6.5344262    20.740214  0.029294088  0.036496497            2 
   60000    1.2107232    -6.463355    21.158435  0.029386715  0.036461814            3 
   61000    1.2514982   -6.5134531    21.647596  0.029573218  0.036446472            3 
   62000    1.2342076   -6.4940332    22.234009  0.029884421  0.036461662            3 
   63000    1.1988467    -6.547849    22.597957  0.029891477  0.036474633            3 
   64000     1.217074   -6.4886225    23.024579   0.02997992  0.036475683            2 
   65000    1.2373252   -6.4497779    23.571328  0.030219652   0.03647952            2 
   66000    1.2397755     -6.47116    24.121251  0.030456125  0.036502987            3 
   67000    1.2309881   -6.5282032    24.407897  0.030358081  0.036527164            2 
   68000    1.2324942   -6.5185761    25.005886  0.030644468  0.036556225            4 
   69000    1.2334375   -6.5660656    25.587562  0.030902853  0.036601185            2 
   70000    1.2139765   -6.5172129    25.937033  0.030877419  0.036648903            2 
   71000    1.2357236   -6.4843267    26.335847  0.030910619  0.036675709            3 
   72000    1.2332186    -6.491812    26.785267  0.031001466  0.036682558            4 
   73000    1.1947872   -6.5552914    26.950561   0.03076548  0.036687022            1 
   74000    1.2357622   -6.5574535     27.42092  0.030879414  0.036681337            4 
   75000    1.2343681   -6.4955025    28.174182  0.031304646  0.036700952            1 
   76000    1.2272394   -6.5701793    28.687262  0.031455331  0.036722596            2 
   77000    1.2524379   -6.5616689    29.086749  0.031479165  0.036757946            2 
   78000    1.2307086   -6.5378753    29.482027  0.031497892  0.036783547            6 
   79000    1.2382756   -6.5656052     29.74436  0.031375907  0.036799408            7 
   80000    1.2003355    -6.505002    30.281398  0.031543122  0.036799609            4 
   81000    1.2277464   -6.5633295    30.617992  0.031499991  0.036799834            2 
   82000    1.1955403   -6.5209144    31.157371  0.031663994  0.036808473            3 
   83000    1.2116662   -6.5553323    31.640982  0.031768054  0.036817632            2 
   84000    1.2044092   -6.5343598    32.022912  0.031768762  0.036825196            5 
   85000    1.2347015   -6.5349174    32.490524  0.031853454  0.036832557            7 
   86000    1.2387704   -6.5259633     33.18868  0.032159573  0.036849673            2 
   87000    1.2281195   -6.5154721    33.579379  0.032164156  0.036871309            5 
   88000    1.2375072   -6.5221887    34.133817   0.03232369  0.036891256            4 
   89000     1.198641   -6.5479264    34.314952  0.032130105   0.03690366            2 
   90000    1.2057445   -6.5213987    34.844179  0.032263129   0.03690972            1 
   91000    1.2197204   -6.5507299      35.2047  0.032238736  0.036916156            3 
   92000    1.2181704   -6.5401407    35.652572  0.032293996  0.036917303            3 
   93000    1.2298203   -6.5309282    36.082344   0.03233185   0.03692318            2 
   94000    1.2219969   -6.5463356    36.259759  0.032145176  0.036922997            2 
   95000     1.202416   -6.5340783    36.992246  0.032449338  0.036926527            3 
   96000    1.2040485   -6.5792524     37.25284  0.032337535  0.036927279            3 
   97000    1.2392221   -6.5352562    37.831833  0.032501575  0.036929404            2 
   98000    1.2082136   -6.5987117    37.939542  0.032261515  0.036923498            3 
   99000    1.2060959   -6.5686111    38.369319  0.032297407  0.036916717            4 
  100000    1.2170984   -6.5814595    38.988749  0.032490624  0.036910406            4 
  101000    1.2356926   -6.5441031    39.350809  0.032467664  0.036900005            2 
  102000    1.2133861   -6.5649676    39.780787  0.032500643  0.036890115            4 
  103000    1.2234532   -6.5462517    40.315718  0.032617895   0.03688261            4 
  104000    1.1821999   -6.5678431     40.94977  0.032812316  0.036879697            3 
  105000    1.1927993    -6.632353    41.015538  0.032552014  0.036876726            2 
  106000    1.2283183   -6.5260031    41.638119   0.03273437   0.03687241            2 
  107000    1.1861133   -6.5548789    42.194824  0.032862013  0.036865707            2 
  108000     1.240081   -6.5785215    42.377601  0.032698766   0.03686274            2 
  109000    1.2269931   -6.5839288    42.714319  0.032656207  0.036848609            2 
  110000    1.2391261   -6.6188276    42.865195  0.032473632  0.036828977            3 
  111000    1.2051749   -6.5800705     43.38717   0.03257295  0.036797818            3 
  112000    1.2197047   -6.5156508    43.886185  0.032653412  0.036767576            4 
  113000    1.1991431   -6.5652313    44.245689  0.032629564  0.036741094            2 
  114000    1.2016945    -6.569975     44.60873   0.03260872  0.036710637            2 
  115000    1.2026652   -6.5643113    44.867329  0.032512557   0.03667811            3 
  116000    1.2057113   -6.5930628    45.186315  0.032461433  0.036649603            3 
  117000    1.2479769   -6.5488274    45.803551  0.032623612  0.036622638            2 
  118000     1.229631   -6.6036582    46.112678   0.03256545  0.036592099            2 
  119000    1.2135853   -6.5558317    46.626002  0.032651262  0.036568359            2 
  120000    1.1956153   -6.5757059    47.060768  0.032681089  0.036544736            2 
  121000    1.1970709   -6.5831709     47.48314  0.032701887  0.036516097            5 
  122000    1.2097875   -6.5883494     48.02621  0.032804788   0.03649113            3 
  123000    1.2080921   -6.5633246    48.373606  0.032773446  0.036472903            2 
  124000    1.2193716   -6.5713508    48.691454  0.032722751  0.036453596            5 
  125000    1.1913003   -6.5317023    49.221893  0.032814595  0.036429583            3 
  126000    1.2266737   -6.5311223    49.674033  0.032853196  0.036409351            1 
  127000     1.196676   -6.5625906    49.995301  0.032805316  0.036389785            1 
  128000    1.2075278   -6.5830721    50.356083  0.032783908  0.036369042            3 
  129000    1.2045434   -6.6158731    50.641704  0.032714279  0.036345038            2 
  130000    1.1900414   -6.5848915    51.182947  0.032809581  0.036323676            1 
  131000    1.2200604   -6.5847775    51.774975  0.032935735  0.036304622            3 
  132000    1.2304319   -6.5840939    52.055815   0.03286352  0.036286764            3 
  133000    1.1677363   -6.6064627    52.398736  0.032831288  0.036266415            4 
  134000    1.2183525   -6.6138679    52.864749  0.032876088  0.036244232            4 
  135000    1.2200826   -6.6182243     53.26303  0.032878414  0.036221604            2 
  136000    1.2036316   -6.6295941    53.606032  0.032846833  0.036199858            1 
  137000    1.2264426   -6.5820699    54.055595  0.032880532  0.036177895            4 
  138000    1.1561989   -6.5924777    54.238729  0.032752855  0.036152895            3 
  139000    1.2024226   -6.6210021    54.891309  0.032908458   0.03612864            2 
  140000    1.1930538   -6.6116554     55.11017  0.032803672  0.036104563            3 
  141000    1.2107465   -6.6054945    55.348536  0.032711901  0.036081332            4 
  142000    1.2075883   -6.5769595      56.1242  0.032936737  0.036057723            2 
  143000    1.2171375    -6.597164    56.766807   0.03308089  0.036039029            2 
  144000    1.1881405   -6.5926065    57.173637  0.033086596  0.036024309            4 
  145000     1.183241   -6.6204571    57.516624  0.033055531  0.036008962            2 
  146000     1.217455   -6.5580343    57.911576  0.033054553  0.035998142            6 
  147000    1.1881128   -6.6294293    58.287629  0.033042874  0.035983047            3 
  148000    1.1782595   -6.6315126    58.918004  0.033174552   0.03597067            2 
  149000    1.2163951   -6.5988735    59.342105  0.033189097  0.035962496            3 
  150000    1.2108269   -6.5834649    59.956982  0.033309434  0.035953604            2 
  151000     1.210392   -6.5527475    60.784122  0.033545321  0.035948981            4 
  152000    1.2041964   -6.6357887     60.76506  0.033314177  0.035947332            3 
  153000     1.196838   -6.6183215    61.219741  0.033344085  0.035943563            2 
  154000     1.189056   -6.5772984    61.931175  0.033512541   0.03593964            5 
  155000    1.2002223   -6.6077474    62.026113  0.033347373  0.035936426            2 
  156000    1.1860767    -6.599364    62.472426  0.033372022  0.035927925            2 
  157000    1.1904895   -6.6090394    62.623229  0.033239506  0.035918456            2 
  158000    1.1891901   -6.6046529     62.86114   0.03315461  0.035907188            3 
  159000    1.2164567   -6.6123584    63.289882  0.033170798  0.035894157            2 
  160000    1.2148879   -6.6250101    63.548569  0.033098213  0.035877826            1 
  161000     1.179598   -6.5645144    63.942319  0.033096438  0.035859265            2 
  162000    1.2108014   -6.6542491    64.194101  0.033021657  0.035838078            4 
  163000    1.1706725   -6.6369894    64.777792  0.033117481  0.035819706            3 
  164000    1.1958164    -6.578022    65.081887  0.033070065  0.035797968            3 
  165000    1.2089692   -6.6348428    65.350206  0.033005154   0.03577754            2 
  166000    1.1804462   -6.5659495    65.864274  0.033064395  0.035753663            4 
  167000    1.2049471   -6.6572325    65.826294  0.032847452  0.035730996            1 
  168000    1.1977028   -6.6536686    66.104874  0.032790116   0.03570534           10 
  169000    1.1619838   -6.6228786    66.662986  0.032871295  0.035677586            2 
  170000    1.1827698   -6.6403579    66.940138  0.032813793   0.03565172            3 
  171000    1.1824607   -6.5877501    67.373928  0.032833298   0.03562229            1 
  172000    1.2023765   -6.6016782    67.802391  0.032849996  0.035594836            1 
  173000    1.1793739    -6.624584    68.261747  0.032881381  0.035570885            2 
  174000    1.1841031      -6.6117    68.767019  0.032934396    0.0355474            8 
  175000     1.176371   -6.6115446    69.038759  0.032875599  0.035521944            2 
  176000    1.1859533   -6.6017065    69.546561  0.032929243  0.035496414            3 
  177000    1.1828712   -6.6295856    69.735885  0.032832337  0.035471345            2 
  178000    1.1621698   -6.6868547    69.696101   0.03262926  0.035442581            7 
  179000    1.1938523   -6.6099678    70.136149  0.032651838  0.035415408            2 
  180000    1.1758182   -6.6910916    70.359619  0.032573898   0.03538842            3 
  181000    1.1996688   -6.6587207    71.046591  0.032710217  0.035362196            4 
  182000    1.1833038   -6.6112423    71.435902  0.032708746  0.035336058            1 
  183000    1.1833262   -6.6273829    71.741943  0.032669373  0.035309243            2 
  184000    1.2027955   -6.6482295    71.703215  0.032474282  0.035277209            7 
  185000    1.1619787   -6.6186433    72.660208  0.032729823  0.035246643            3 
  186000    1.1672307   -6.7015065    72.445686  0.032457744  0.035214208            3 
  187000    1.1451249   -6.7027309    72.597523  0.032351837  0.035179909            1 
  188000     1.179342   -6.6689004     73.46117  0.032562575  0.035146106            4 
  189000    1.1612171   -6.6757743    73.978532    0.0326184  0.035116245            3 
  190000    1.1854185   -6.6509573    74.314206   0.03259395  0.035086906            3 
  191000    1.1786607   -6.6769913    74.395828  0.032458913  0.035055775            2 
  192000    1.1404791   -6.6784704    74.767898  0.032451344  0.035024868            5 
  193000    1.1667977   -6.6755038    75.086129  0.032420608   0.03499464            1 
  194000    1.1959196    -6.662738    75.657028  0.032498723   0.03496603            2 
  195000    1.1470087   -6.6536895    76.117392    0.0325288  0.034937177            5 
  196000    1.1666489   -6.6430129    76.391636  0.032479437  0.034907695            1 
  197000    1.1987058   -6.6732711    76.807765  0.032490594  0.034881402            3 
  198000    1.1655462   -6.6452996    77.289571   0.03252928  0.034854299            2 
  199000    1.1576193   -6.6696226    77.356059   0.03239366  0.034827559            1 
  200000    1.1505646   -6.6103161    77.859179  0.032441324  0.034798709            3 
  201000    1.1746363   -6.6859414    78.117397   0.03238698  0.034769336            5 
  202000    1.1798519   -6.6622684    78.618989  0.032433576  0.034739767            2 
  203000    1.1874241   -6.6480205    79.050287  0.032450857   0.03471006            3 
  204000    1.1607443   -6.6920328    79.130658  0.032324615  0.034681374            2 
  205000    1.1841896   -6.6326213     79.74588  0.032417024  0.034650811            3 
  206000     1.177651   -6.6551403    79.472242  0.032148965  0.034618901            4 
  207000    1.1951401   -6.7354363     79.98925  0.032201792  0.034587727           12 
  208000    1.1471515   -6.6507634    80.494682  0.032249472  0.034557777            2 
  209000     1.169538   -6.6761828    80.867932  0.032243992  0.034527364            2 
  210000    1.1548214   -6.6577478    81.259929  0.032246004  0.034495755            2 
  211000    1.1703665   -6.7044053    81.603779  0.032228981  0.034466404            2 
  212000    1.1545877   -6.6977684    81.649672  0.032094997  0.034436147            2 
  213000    1.1620332    -6.706843    82.190168  0.032155778  0.034405537            3 
  214000    1.1832167   -6.6846685    82.688658  0.032199633  0.034375483            3 
  215000    1.1631916   -6.6587846    83.379435  0.032317611  0.034347023            5 
  216000    1.1493028   -6.6716413    83.576986  0.032244207  0.034321358            2 
  217000    1.1771658   -6.6540729    83.737846  0.032157391   0.03429442            5 
  218000    1.1730273   -6.6858921    84.177957  0.032178118  0.034264951            3 
  219000    1.1919964   -6.6623514    84.697995   0.03222907  0.034235363            2 
  220000    1.1866339   -6.6684578    84.425347  0.031979298  0.034206053            2 
  221000    1.1577232   -6.6897835    84.930942  0.032025242  0.034175433            2 
  222000    1.1455544   -6.6483997    85.281267  0.032012488  0.034144986            3 
  223000    1.1637099   -6.6294681    85.542286  0.031966474  0.034114189            2 
  224000    1.1684679   -6.6580536    86.159814  0.032053502  0.034085246            1 
  225000      1.16476   -6.6161509    86.267352  0.031950871  0.034054492            3 
  226000    1.1585737   -6.6277674    86.716293  0.031975034   0.03402379            3 
  227000    1.1541579   -6.6978174    87.176448  0.032003101  0.033992783            4 
  228000    1.1500488   -6.6496132    87.640754  0.032032439   0.03396315            1 
  229000    1.1831475   -6.7271645    87.732645  0.031925999    0.0339357            4 
  230000    1.1347957   -6.6480578    88.807056  0.032176469  0.033910007            3 
  231000     1.168887   -6.6684537    88.801986  0.032035348  0.033885983            4 
  232000    1.1650073   -6.6653535    89.149906  0.032022236  0.033860949            4 
  233000    1.1658381   -6.7002843    89.162212  0.031889203   0.03383768            6 
  234000    1.1811572   -6.6813737     89.71541  0.031949932  0.033813604            4 
  235000    1.1683472   -6.6649099    90.572597  0.032117942  0.033790219            4 
  236000    1.1836246   -6.6951173    90.562384  0.031978243  0.033767298            3 
  237000    1.1673228   -6.6750218    91.227554  0.032077199   0.03374252            3 
  238000    1.1365583   -6.6843833     91.66433  0.032095354  0.033719787            5 
  239000    1.1456779   -6.7037846    92.107409  0.032115554  0.033700145            2 
  240000    1.1563931   -6.6727056    92.598686  0.032152321  0.033680964            4 
  241000    1.1607109   -6.6973628    92.645123  0.032034966  0.033661859            1 
  242000    1.1879904   -6.6815568    93.168865  0.032082942  0.033642434            5 
  243000    1.1470389   -6.6894229    94.095515  0.032268695  0.033624985            4 
  244000    1.1568883   -6.6834698    94.253772  0.032190496  0.033609819            2 
  245000    1.1253648   -6.7116279    94.502038   0.03214355  0.033593511            4 
  246000    1.1492009   -6.7047291    94.764299  0.032101727  0.033576232            2 
  247000    1.1286716   -6.6981905    94.945359  0.032032847  0.033559183            2 
  248000    1.1335135   -6.7332884    95.769015  0.032180449  0.033542402            4 
  249000    1.1582832   -6.7197971    95.666399  0.032016867  0.033526039            2 
  250000     1.154717   -6.6644014    96.639499  0.032213166  0.033510883            3 
  251000    1.1457545   -6.7334946    97.084213  0.032232474  0.033497241            2 
  252000    1.1562751   -6.7514245    97.152342  0.032127097  0.033483682            2 
  253000    1.1257887   -6.7083395    97.175076  0.032007601  0.033467317            9 
  254000    1.1431652    -6.748044      98.1736  0.032209186  0.033451564            4 
  255000    1.1374196   -6.6923478    98.503027  0.032190532  0.033436872            1 
  256000    1.1554261   -6.6870504    98.755516  0.032146978   0.03342184            5 
  257000    1.1922468   -6.7321545    99.093885   0.03213161  0.033408801            2 
  258000    1.1505938   -6.6879066     99.26816  0.032063359  0.033395816            5 
  259000    1.1866929   -6.6981228    99.997996  0.032174387  0.033382402            3 
  260000    1.1531524   -6.7301891    99.589523  0.031919719    0.0333667            4 
  261000    1.1721574    -6.719064    100.41611  0.032061339  0.033351504            3 
  262000    1.1134948   -6.6989718    101.03411   0.03213553  0.033338029            1 
  263000     1.116204   -6.7568692    101.31988  0.032103891   0.03332468            5 
  264000     1.156511   -6.6917702    101.54611  0.032053696  0.033309826            2 
  265000    1.1711112    -6.682854    102.27543  0.032162086  0.033296643            2 
  266000    1.1407337   -6.7778208    102.12495  0.031994033  0.033283203            6 
  267000    1.1456121   -6.7536917    102.48933   0.03198793  0.033268658            3 
  268000    1.1524798   -6.7313199    102.98721  0.032023385  0.033255712            2 
  269000    1.1489743   -6.6798086    103.61054   0.03209744  0.033241027            3 
  270000     1.146963   -6.6779005    103.98277  0.032093447  0.033228714            3 
  271000    1.1356507   -6.6990199    104.04776  0.031995007  0.033213951            3 
  272000    1.1301154    -6.688833    104.07114  0.031884541  0.033198082            4 
  273000    1.1213013   -6.7350377    104.21256  0.031810915  0.033181116            5 
  274000    1.1413598   -6.7192995    104.63948   0.03182466  0.033163758            2 
  275000     1.137156   -6.7543275    104.71715  0.031732471   0.03314431            4 
  276000    1.1376494   -6.7467735    104.85754  0.031659887  0.033125092            2 
  277000    1.1489527   -6.7745138    105.30159  0.031679179  0.033105806            2 
  278000    1.1614051   -6.7343778    105.63969  0.031666572  0.033086041            2 
  279000    1.1286777   -6.7569177    106.00736  0.031662891  0.033066652            3 
  280000    1.1784162   -6.7987872    106.43234  0.031676293  0.033046879            4 
  281000    1.1437829   -6.7404292    106.69285  0.031640823  0.033026013            2 
  282000    1.1625318   -6.7081762    107.27375   0.03170028  0.033005089            3 
  283000     1.155811   -6.7597768    107.50893  0.031657517   0.03298504            2 
  284000    1.1570003   -6.7762747    107.61472  0.031577091  0.032964972            9 
  285000    1.1307045   -6.7080266    108.22221   0.03164392  0.032945144            2 
  286000    1.1370419   -6.7202335    108.89534   0.03172941  0.032925859            4 
  287000    1.1520819    -6.741917    108.75648  0.031578535  0.032907289            3 
  288000    1.1442065   -6.7901234    108.77067  0.031472994  0.032888245            4 
  289000      1.16189   -6.7458711    109.11893  0.031464513   0.03286852            3 
  290000    1.1359872    -6.751846    109.81028   0.03155468  0.032848026            6 
  291000    1.1229742   -6.7611368    110.03678  0.031511105   0.03282838            2 
  292000    1.1278009   -6.7525596    110.54644  0.031548641    0.0328098            3 
  293000    1.1302953   -6.7898526    110.25675  0.031358575  0.032790719            4 
  294000    1.1484898   -6.7605235    111.30932  0.031550261  0.032771299            2 
  295000    1.1504208   -6.7648098     111.3345  0.031450423  0.032752298            2 
  296000    1.1355806    -6.775172    111.63027   0.03142744  0.032733562            3 
  297000    1.1494549   -6.7176569    112.17769  0.031475222  0.032714006            8 
  298000    1.1314861   -6.7751482    112.16812  0.031366925  0.032695528            2 
  299000    1.1300794   -6.7624467    112.82924  0.031446276  0.032677562            3 
  300000     1.128139   -6.7551636    112.89863  0.031360731  0.032660163            5 
  301000    1.1345246   -6.7365961    114.00966  0.031564136   0.03264178            2 
  302000    1.1404323   -6.7975651    113.86082  0.031418549  0.032623989            4 
  303000    1.1282424   -6.7443741    114.24761  0.031421233  0.032605908            2 
  304000    1.1240091   -6.7503039    114.29344  0.031330438   0.03258614            2 
  305000    1.1510409    -6.800281     114.6127  0.031314946   0.03256774            2 
  306000    1.1406202   -6.7990616    115.01913  0.031323292  0.032549709            2 
  307000    1.1299866   -6.7116784    115.85321  0.031447667  0.032532565            5 
  308000    1.1121263   -6.8059495    115.25304  0.031183183  0.032514575            6 
  309000    1.1426137   -6.7436792    116.75026  0.031486047  0.032496048            2 
  310000    1.1386949   -6.7495465    116.48672  0.031313633  0.032477219            1 
  311000    1.1371836   -6.7735345    116.71492  0.031274095  0.032460542            5 
  312000    1.1223957   -6.7793471    117.21544  0.031307542  0.032443387            7 
  313000    1.1544978   -6.7765974    117.63744  0.031319871  0.032426294            4 
  314000    1.1545806   -6.7915036    117.71812   0.03124154  0.032409511            1 
  315000    1.1286286   -6.7819888     118.3806  0.031317619  0.032392519            2 
  316000     1.109296   -6.7418877    118.97751  0.031375925  0.032375433            2 
  317000    1.1268061   -6.7547277    119.66299  0.031457148  0.032359963            2 
  318000    1.1432123   -6.7820319    119.74742  0.031380352  0.032344516            4 
  319000    1.1318406   -6.7959876    119.50025  0.031217411  0.032328958            1 
  320000    1.1155425   -6.7817357    120.24997  0.031315096  0.032311664            2 
  321000    1.1187604   -6.8109517    120.24865  0.031217198  0.032295558            2 
  322000    1.1451275   -6.7931587    120.76818  0.031254704  0.032279315            1 
  323000    1.1217463   -6.7904998     121.5732  0.031365635  0.032263883            4 
  324000    1.1062511   -6.8024324    121.86287  0.031343332  0.032248555            3 
  325000    1.1310298   -6.8081842    121.80232  0.031231365  0.032234526            2 
  326000    1.1343392   -6.7753955    122.83245  0.031398887  0.032220935            4 
  327000    1.1335846   -6.8716841    122.26119  0.031157285  0.032206705            5 
  328000    1.1260161   -6.7998992    122.83945  0.031209211   0.03219143            4 
  329000    1.1474773   -6.8165453    123.68673  0.031328959  0.032176756            3 
  330000    1.1140939   -6.8191531    123.45367   0.03117517  0.032162349            2 
  331000     1.122938   -6.7840212    123.80195  0.031168667  0.032147961            5 
  332000    1.1414543   -6.7735385    124.20724  0.031176517  0.032132971            3 
  333000    1.1251108   -6.7853489    124.75032  0.031218798  0.032118685            3 
  334000    1.1198074   -6.7596127    125.34653  0.031274085  0.032104139            2 
  335000    1.1294648   -6.7437254    125.87015  0.031310983   0.03208934            3 
  336000    1.1415253   -6.7480389    125.94471  0.031236288  0.032075151            1 
  337000     1.135678   -6.8163221    125.82355  0.031113638  0.032059669            3 
  338000    1.1241723   -6.8036217    125.68013  0.030986225  0.032043111            5 
  339000     1.119027   -6.7952155    126.43007   0.03107917  0.032026218            3 
  340000    1.1134107   -6.8147654    126.68295  0.031049742  0.032010094            3 
  341000    1.1128798   -6.8441555    127.13695  0.031069635  0.031994941            4 
  342000    1.1136287   -6.8098543     127.3282  0.031025389  0.031980057            2 
  343000    1.1400482   -6.7807422    127.84255    0.0310599  0.031964659            1 
  344000    1.1133741   -6.7775901    127.78728   0.03095622  0.031947923            6 
  345000    1.1203843   -6.8802598    127.58803  0.030818365  0.031929652            3 
  346000    1.1035758    -6.827388    128.65889  0.030987208  0.031912758            3 
  347000    1.1171182   -6.8097348    128.44446  0.030846411  0.031896102            3 
  348000    1.1471266   -6.8041359    128.64884  0.030806714   0.03187826            5 
  349000    1.1052907   -6.8506572    128.34533  0.030645971  0.031858997            3 
  350000    1.1263473    -6.788834    129.08817  0.030735279   0.03184028            1 
  351000    1.0999649   -6.8032162    129.76974  0.030809531  0.031821512            1 
  352000    1.1310874    -6.825209    129.23806  0.030596132   0.03180263            5 
  353000    1.0989921   -6.8122476    130.21932  0.030741106  0.031783974            2 
  354000    1.1353559   -6.8227568     130.6978  0.030766903  0.031767626            2 
  355000    1.1085237   -6.7881485    131.69872  0.030915191  0.031751643            5 
  356000    1.1257906    -6.803536    131.75776  0.030842173  0.031735646            4 
  357000    1.1187426   -6.8046384     132.2714  0.030875676  0.031719228            5 
  358000    1.1215504   -6.8136455    132.08722   0.03074656  0.031702203            6 
  359000    1.1128156   -6.8243414    132.39065  0.030731348  0.031685674            6 
  360000    1.1167973   -6.8223197    132.95965  0.030777696  0.031669777            2 
  361000    1.1186752   -6.7899392    133.41852  0.030798367  0.031654356            3 
  362000    1.1307754   -6.8052811    133.42274   0.03071426  0.031639106            4 
  363000    1.1300182   -6.7683233    134.41743  0.030857995  0.031622669            2 
  364000    1.1228793   -6.8490596     134.1627  0.030714905  0.031606501            1 
  365000    1.1182892   -6.7951738    134.81894  0.030780581  0.031590971            3 
  366000    1.1317464      -6.8146    134.88699  0.030711975  0.031575709            6 
  367000    1.1059711   -6.8612104    134.84852  0.030619554  0.031559987            4 
  368000     1.133655   -6.8522024    134.87539  0.030542434  0.031543123            4 
  369000     1.134253   -6.8453057    135.29875  0.030555274  0.031526268            2 
  370000    1.1079502   -6.8603118    135.33359  0.030480539  0.031509081            4 
  371000    1.1133336   -6.8685517    135.95097  0.030537056  0.031492323            3 
  372000     1.106282   -6.8341189    136.57712  0.030595233  0.031476149            6 
  373000    1.0790597   -6.8631869    136.54546  0.030506135  0.031458979            5 
  374000     1.100677     -6.86855    137.29779    0.0305922  0.031442577            4 
  375000    1.1116518   -6.8080989    137.23246  0.030496103  0.031426155            4 
  376000    1.1241988   -6.8113363    138.02264  0.030590124   0.03141011            2 
  377000     1.110688   -6.8555591    137.43321  0.030378694  0.031393376            3 
  378000    1.0813719   -6.8594042     138.0237  0.030428505  0.031375745            9 
  379000    1.1027783   -6.8432783    138.77748  0.030513957  0.031358855            4 
  380000    1.1167134   -6.8356836    138.60849  0.030396598   0.03134137            1 
  381000     1.078474   -6.7966144    139.15876  0.030437175  0.031323944            3 
  382000     1.121116   -6.8670959    138.67289  0.030251503  0.031305962            2 
  383000    1.1246692   -6.8531712     139.0833  0.030261815  0.031287511            6 
  384000    1.1100946    -6.850209    139.69001  0.030314673  0.031269095            2 
  385000    1.1005806   -6.8778009    139.58867  0.030213997  0.031249862            3 
  386000    1.1005857   -6.8236129    140.53366  0.030339737  0.031230418            2 
  387000    1.0908462   -6.8732453    140.06249  0.030159882  0.031210424            2 
  388000    1.1171961   -6.8850779    140.04712  0.030078849  0.031189829            2 
  389000    1.1143301    -6.884821    140.09468  0.030011715  0.031168503            2 
  390000    1.0706245   -6.8718212    140.69989  0.030064078  0.031147315            8 
  391000    1.0858539   -6.8586203    141.00034  0.030051223  0.031127239            3 
  392000    1.0930009   -6.9377556    140.87475  0.029947863  0.031106205            3 
  393000    1.1079623   -6.8430042     141.8859  0.030086068  0.031084596            2 
  394000    1.1087725   -6.8782251    142.09685  0.030054324  0.031063683            4 
  395000    1.0820731     -6.87053     141.9053  0.029937828  0.031042688            2 
  396000    1.0947606   -6.8596129    142.13542  0.029910652  0.031021414            2 
  397000    1.0881328   -6.8251059    143.05615   0.03002858  0.031000256            5 
  398000    1.0877016   -6.8211663    143.24449  0.029992565  0.030980031            2 
  399000    1.0997352   -6.8696935    143.26176  0.029921003  0.030959879            4 
  400000    1.1147286   -6.8788608    143.35416   0.02986545  0.030939228            8 
  401000    1.1006399   -6.8473857    143.86742  0.029897636  0.030919038            7 
  402000     1.085904   -6.8351822    144.42994  0.029939872  0.030898513            6 
  403000    1.0936472   -6.8785844    144.49109  0.029878223  0.030878142            3 
  404000    1.0786961   -6.8282575     145.1904  0.029948515  0.030858234            4 
  405000    1.0948242   -6.8909992    144.52881  0.029738439  0.030838008            8 
  406000    1.1022184   -6.8358314    145.40253  0.029844527  0.030817848            3 
  407000    1.0939053   -6.8810221    145.50665  0.029792517  0.030797707            2 
  408000    1.0845074   -6.8907608    145.79846  0.029779096  0.030776949            4 
  409000    1.0770355   -6.8817291    146.01494  0.029750395  0.030755796            5 
  410000    1.0742991   -6.9115943    145.45479  0.029563981  0.030734203            3 
  411000    1.0797722   -6.8820666    145.82002  0.029566103  0.030712296            5 
  412000    1.0805235   -6.9589536     146.4961  0.029631088  0.030690384            4 
  413000    1.0847116   -6.8651539     147.0598  0.029673083  0.030668159            3 
  414000     1.084547   -6.9248032    146.37424  0.029463414  0.030646513            2 
  415000    1.0833692   -6.8656747    147.29696  0.029577704  0.030623928            4 
  416000    1.0979876   -6.8506943    147.79775  0.029606922  0.030602225            2 
  417000    1.0944329    -6.887945    147.79277  0.029534926  0.030580973            4 
  418000    1.0819289   -6.8810374    147.92764  0.029491157  0.030559167            4 
  419000    1.0827216   -6.9065183    148.58681  0.029551871  0.030537564            3 
  420000    1.0765268   -6.8014617     149.2619  0.029615457   0.03051712            4 
  421000    1.0671626   -6.8901239    149.22941  0.029538679  0.030497162            2 
  422000    1.0990176   -6.8764802    149.37388  0.029497212  0.030477244            2 
  423000    1.0754149   -6.8842137    149.74318  0.029500232   0.03045673            4 
  424000     1.070933   -6.9061032     150.0249  0.029486026  0.030436598            4 
  425000    1.1028984   -6.9499271    149.99431  0.029410649   0.03041561            4 
  426000    1.0914696   -6.9066445    150.15811  0.029373653  0.030395224            2 
  427000    1.0879833   -6.8711949    150.67631  0.029405993  0.030375151            6 
  428000    1.0899422    -6.904345    150.82001  0.029365266  0.030354833            3 
  429000    1.0932818   -6.8975054    151.16039  0.029362936  0.030334389            2 
  430000     1.079598   -6.9140831    151.52863  0.029366014  0.030313749            2 
  431000    1.0963712     -6.89026    151.95044  0.029379435  0.030293768            2 
  432000    1.0881352   -6.8583769     152.5677  0.029430498   0.03027399            6 
  433000    1.0469208   -6.9037784    152.08161  0.029268977  0.030253718            3 
  434000    1.0737514   -6.9122454    152.84127  0.029347402  0.030232344            6 
  435000    1.0649331   -6.9242476    152.74674  0.029261827  0.030211669            2 
  436000    1.0495971   -6.9300993    152.42924   0.02913403  0.030191492            2 
  437000    1.0763463   -6.8953726    153.63298  0.029296907  0.030171311            4 
  438000    1.0810045   -6.8946401    153.95492  0.029291271  0.030150913            4 
  439000    1.0651518   -6.8627707    154.49543  0.029327151  0.030130789            3 
  440000    1.0929255   -6.9086136    153.89296  0.029146394    0.0301107            5 
  441000     1.066206   -6.9176408    154.32998  0.029162884  0.030089795            3 
  442000    1.0684307   -6.9323809      154.319  0.029094835  0.030068814            3 
  443000    1.0717288   -6.8905443    154.80379  0.029120353  0.030047593            4 
  444000    1.0821529   -6.9095155    155.21879  0.029132655  0.030027027            3 
  445000    1.0802635    -6.899466    155.19111  0.029062006  0.030006227            4 
  446000     1.098125   -6.8867451    155.55413  0.029064674  0.029984657            5 
  447000    1.0911247   -6.9353475    155.56241  0.029001195  0.029963269            3 
  448000    1.0722971   -6.9175421    155.54358  0.028932958  0.029941625            3 
  449000    1.0681204   -6.8941489    155.94012  0.028942116  0.029920073            3 
  450000     1.097169   -6.9695465    155.44017  0.028785217  0.029897742            4 
  451000    1.0789426   -6.9491584    155.91115  0.028808416  0.029875296            4 
  452000    1.0698911   -6.9436121    156.25525  0.028808122  0.029853171            3 
  453000    1.0797699   -6.8601889    157.19581  0.028917552  0.029830791            4 
  454000    1.0739914   -6.9095057    157.31233  0.028875243  0.029808086            6 
  455000    1.0447686   -6.9552743    156.81299  0.028720327  0.029785722            6 
  456000    1.0589011   -6.9371301    157.79857  0.028837457  0.029763564            3 
  457000    1.0592665   -6.9163725    158.00193  0.028811438    0.0297415            3 
  458000    1.0721724   -6.8997837    158.63371  0.028863485  0.029719624            5 
  459000    1.0544533   -6.9147914    158.57099  0.028789214  0.029698054            3 
  460000    1.0539692   -6.9464533    159.12417  0.028826842  0.029676359            4 
  461000    1.0637248   -6.9141484    159.15297  0.028769518  0.029654828            6 
  462000    1.0422936   -6.9474613    158.61734  0.028610631  0.029633072            6 
  463000    1.0434561   -7.0086674    158.83083  0.028587262  0.029611281            2 
  464000    1.0966344   -6.9395206    159.09105  0.028572387   0.02958943            5 
  465000    1.0829046   -6.9437981    160.55543  0.028773374  0.029568249            6 
  466000    1.0837701   -6.9290764     160.9621  0.028784352  0.029547098            3 
  467000    1.0579457    -6.915374    160.58256  0.028654989  0.029526252            5 
  468000    1.0717119   -6.9063555     160.7515  0.028623843  0.029504891            6 
  469000    1.0740838   -6.9071325    161.07051  0.028619494  0.029483919            1 
  470000    1.0385588   -6.9407669    161.14655  0.028572084   0.02946302            5 
  471000    1.0762097   -6.9459892    161.62923  0.028596821  0.029442737            5 
  472000    1.0635077    -6.950804     161.4117  0.028497829  0.029421492            3 
  473000    1.0876676   -6.9681885    161.81563  0.028508743  0.029399961            5 
  474000    1.0792177   -6.9413278    162.23501  0.028522329   0.02937939            5 
  475000    1.0706847   -6.9713881    162.36411  0.028484931  0.029359327            4 
  476000    1.0543633   -6.9711704    162.31226  0.028416011  0.029338039            5 
  477000    1.0605232   -6.9626754    162.76487  0.028435511  0.029316969            3 
  478000    1.0759762   -6.9533879    162.79581  0.028381418  0.029295993            2 
  479000    1.0629139   -6.9600364    163.06076   0.02836826  0.029274915            2 
  480000    1.0639716   -6.9482839    163.67941  0.028416564  0.029252773            3 
  481000    1.0474128   -6.9369826    163.68384  0.028358253  0.029231364            6 
  482000    1.0512559   -6.9176243     163.8877  0.028334665  0.029210079            2 
  483000    1.0796008   -6.9507162    163.86145  0.028271472  0.029188713           10 
  484000    1.0711624   -6.9789017    164.12221  0.028257955  0.029166903            4 
  485000    1.0449013   -6.9850662    163.58659  0.028107662  0.029144496            4 
  486000     1.072037   -6.9499435    164.62761  0.028228328  0.029122245            3 
  487000    1.0427188   -6.9323083    165.14507   0.02825891  0.029100782            5 
  488000    1.0606945   -6.9741385    165.78279  0.028309902  0.029079285            4 
  489000    1.0721566    -6.953591    165.51095  0.028205683  0.029057772            6 
  490000    1.0681096   -6.9508186    166.20736  0.028266557  0.029036414            4 
  491000    1.0523426   -6.9532828      165.837  0.028146129  0.029014728            7 
  492000    1.0718036   -6.9665837    166.03865  0.028123078  0.028992917            6 
  493000    1.0501237   -6.9393024    166.59404  0.028159912  0.028971205            5 
  494000    1.0453268    -6.969063     165.9703  0.027997689  0.028949196            3 
  495000    1.0628009    -6.952312    166.46588  0.028024558  0.028926879            4 
  496000    1.0589683   -6.9209419    167.42678  0.028129499  0.028904714            3 
  497000    1.0758872   -6.9561875    166.44069   0.02790756  0.028882605            5 
  498000    1.0599731   -6.9574531    166.88685  0.027926179  0.028859977            5 
  499000    1.0563851   -6.9896601    166.41036  0.027790641  0.028837608            7 
  500000    1.0396412   -6.9869086    167.16737  0.027861229  0.028814863            3 
  501000    1.0468232   -6.9409956     168.0022  0.027944478  0.028792704           10 
  502000    1.0579851    -6.942325    168.51242  0.027973509  0.028770588            4 
  503000    1.0654585   -6.9694509    168.27525  0.027878603  0.028748224            6 
  504000    1.0635045   -6.9829595    168.32962  0.027832278  0.028725787            3 
  505000    1.0771805   -6.9898954    168.77659  0.027850922   0.02870379            1 
  506000    1.0460107   -6.9701077     168.7084  0.027784651  0.028681661            4 
  507000    1.0614719   -7.0046004    168.90943  0.027762892  0.028658955            3 
  508000    1.0566638   -6.9948842     169.1293  0.027744308  0.028636314           20 
  509000    1.0400246   -6.9881226    169.18947  0.027699652  0.028613775            5 
  510000    1.0457312   -6.9944714    169.52157  0.027699603  0.028591401            7 
  511000    1.0368781   -6.9436886    169.29262   0.02760806  0.028569229            3 
  512000    1.0395856   -6.9709625    170.17049   0.02769702  0.028547135            3 
  513000    1.0385208   -6.9738989    169.77671  0.027579062  0.028524197            6 
  514000    1.0150143   -7.0042682    170.11444  0.027580162  0.028501248            5 
  515000    1.0617284   -6.9800807    169.80789  0.027477006  0.028477839            3 
  516000    1.0578441   -6.9931577    170.46203  0.027529398  0.028453993            3 
  517000    1.0530334   -7.0121208    169.91459   0.02738791  0.028430407            8 
  518000    1.0405394   -6.9822841    170.18132  0.027377948  0.028406743            7 
  519000    1.0498821   -6.9614128    170.90326  0.027441114   0.02838315            2 
  520000    1.0334499   -6.9965094    171.29773  0.027451559  0.028360024            4 
  521000    1.0403636   -6.9985719     171.9203  0.027498449  0.028336689            3 
  522000    1.0453944   -6.9962458     171.8664  0.027437165  0.028313514            2 
  523000    1.0520564   -7.0236785    171.44185  0.027317057  0.028290039            3 
  524000    1.0465456   -7.0049811    171.82895  0.027326487  0.028266461            3 
  525000    1.0471727   -7.0167464    172.11749  0.027320237   0.02824298            4 
  526000    1.0279749   -7.0087018    172.85368  0.027384931  0.028219599            3 
  527000    1.0443525   -7.0195771    172.77406  0.027320376  0.028196319            6 
  528000    1.0407511   -7.0190757    172.51557  0.027227837  0.028172899            6 
  529000    1.0315411   -7.0099196    173.12374  0.027272171   0.02815014            6 
  530000    1.0452073   -7.0317333    173.51543    0.0272823  0.028127891            3 
  531000    1.0468789   -6.9968404     173.7891   0.02727387  0.028105285           11 
  532000    1.0509147   -7.0210383    174.03632  0.027261328  0.028082766            4 
  533000    1.0448992   -7.0570692    173.39417  0.027109783   0.02805995            2 
  534000    1.0268922   -6.9951145    174.52968  0.027236218  0.028036662            2 
  535000    1.0517036    -6.990597    174.27772  0.027146063  0.028014025            3 
  536000    1.0369358   -7.0358719    174.15141  0.027075779  0.027991053            8 
  537000    1.0379467   -7.0413335    174.31859  0.027051302  0.027968134            3 
  538000    1.0121495   -7.0664187    174.40958  0.027015114  0.027944894            3 
  539000    1.0284385    -7.012169    175.37148   0.02711371   0.02792187            2 
  540000    1.0566949   -7.0155314    175.60886  0.027100133  0.027899334            6 
  541000    1.0342173    -7.025603    175.19845  0.026986822  0.027876492            3 
  542000    1.0459069   -7.0059841    175.46115  0.026977422  0.027853684            3 
  543000    1.0345046   -6.9820111    176.17488  0.027037274  0.027831013            5 
  544000    1.0285479   -7.0546757    175.25192  0.026846189  0.027807985            4 
  545000    1.0481927   -6.9951372     176.4804   0.02698477  0.027784704            3 
  546000    1.0440448   -7.0316871    175.84596  0.026838517  0.027761559            3 
  547000    1.0375175   -7.0484644    176.20724  0.026844492  0.027738434            7 
  548000    1.0451393   -7.0407032     176.8555  0.026894084  0.027715462            3 
  549000    1.0188309   -7.0047198    177.07347  0.026878183  0.027692645            4 
  550000    1.0183671   -7.0437981    177.14822  0.026840639  0.027669947            5 
  551000    1.0126188   -7.0434419    177.01188  0.026771307  0.027647244            2 
  552000    1.0487432   -6.9922765    178.32904  0.026921655   0.02762446           10 
  553000     1.047949   -7.0345052    178.26231  0.026862916  0.027602315            7 
  554000    1.0499692   -7.0224828    178.32708  0.026824169  0.027580269            2 
  555000    1.0322764   -7.0201003    178.60754   0.02681795  0.027558466            7 
  556000     1.012673   -7.0733047    177.94358  0.026670201   0.02753599            2 
  557000    1.0259904   -6.9974148    179.08839  0.026793594  0.027513436            2 
  558000    1.0360521   -7.0613675     178.3901  0.026641294  0.027491072            5 
  559000    1.0407009   -7.0075626    179.61591  0.026776372  0.027468628            4 
  560000    1.0148723   -7.0441296    179.50555  0.026712135  0.027447131            7 
  561000    1.0162287   -7.0619029    179.59834  0.026678303  0.027425398            3 
  562000    1.0400213   -7.0415228     179.8633  0.026670121  0.027403893            5 
  563000    1.0284352   -7.0801712    180.85536  0.026769591  0.027382366            2 
  564000    1.0224567   -7.0667154    180.51818  0.026672309  0.027360725            4 
  565000    1.0175274    -7.055854    180.90311  0.026681875  0.027339162            6 
  566000    1.0078646   -7.0382418    180.77089  0.026615266  0.027317593            3 
  567000    1.0191737   -7.0644568    181.26408  0.026640811  0.027296318            4 
  568000    1.0409816   -7.0410999    181.36852  0.026609232  0.027275041            3 
  569000    1.0264953   -7.0925265    180.76025  0.026473382  0.027253546            4 
  570000    1.0016131   -7.0348907     182.6196  0.026698772  0.027232622            6 
  571000    1.0385129   -7.0870689    181.85383  0.026540255  0.027211749            4 
  572000    1.0040457   -7.0420821    182.27571   0.02655532  0.027190843            4 
  573000    1.0161773    -7.090163    181.81323  0.026441715  0.027169837            5 
  574000     1.022497   -7.0448273    182.56012  0.026504083  0.027148668            2 
  575000    1.0270513    -7.024301    182.77582   0.02648925  0.027127598           11 
  576000    1.0195786   -7.0349362    183.40892  0.026534855  0.027105957            6 
  577000    1.0298687   -7.0364945    183.87744  0.026556533  0.027085357            5 
  578000    1.0253911   -7.0560813    183.14619   0.02640516  0.027064466            3 
  579000    1.0269328   -7.0650982    183.60181   0.02642513  0.027043893            3 
  580000    1.0204987   -7.0436432    183.99047  0.026435412  0.027023157            3 
  581000    1.0311379   -7.0562851    183.91508    0.0263791  0.027002031            4 
  582000    1.0333293   -7.0696763    184.52508  0.026421117  0.026981151            6 
  583000    1.0155856    -7.029602    185.34868  0.026493523  0.026960162            6 
  584000    1.0287244   -7.0572764    184.82086  0.026372839  0.026939463            8 
  585000    0.9998931   -7.1143344    184.68225  0.026308012  0.026918746            6 
  586000    1.0419997    -7.101375    184.82795  0.026283838  0.026897574            4 
  587000    1.0170963   -7.0850636    185.18284  0.026289443  0.026876677            5 
  588000    1.0322994    -7.112757    185.37075  0.026271365  0.026855648            3 
  589000    1.0431249   -7.0894223    184.92622  0.026163868  0.026834329            7 
  590000    1.0133658    -7.047605    185.69924  0.026228706  0.026813255            4 
  591000     1.018545   -7.0530958    185.91291  0.026214454  0.026793013            3 
  592000    1.0252172   -7.0665011    186.04901  0.026189331  0.026772577            4 
  593000    1.0162053   -7.0355022    186.73034  0.026240913  0.026752228           16 
  594000    1.0500427   -7.0958528    185.95066  0.026087355    0.0267314            6 
  595000    1.0010537   -7.1195078     186.1765   0.02607514  0.026710227            4 
  596000    1.0237095   -7.0623529    186.82506  0.026122072  0.026689035            6 
  597000    1.0256603   -7.0929319    186.94435  0.026094967  0.026668304            4 
  598000    1.0120903   -7.0994082    187.00527   0.02605982  0.026647573            4 
  599000    1.0100889    -7.063108    187.87648  0.026137518  0.026626986            4 
  600000    1.0035145   -7.0748494    187.73389  0.026074151  0.026606719            6 
  601000    1.0089556   -7.0892793    187.95982  0.026062094  0.026586064            4 
  602000    1.0254683   -7.0883706    187.56403  0.025964013  0.026564957            3 
  603000    0.9946477   -7.0844802    187.76171  0.025948274  0.026543705            6 
  604000    1.0216517   -7.0852455     187.9968  0.025937749  0.026522454            4 
  605000    0.9968694   -7.0391039    188.26472  0.025931779  0.026501484            5 
  606000   0.99542472   -7.0941428    188.42973  0.025911679  0.026480482            3 
  607000    1.0144123   -7.0997858     188.7088  0.025907304  0.026459921            3 
  608000      1.01058   -7.1020073    188.57245  0.025846005  0.026438758            4 
  609000    1.0397545   -7.0968962    188.32552  0.025769775  0.026417282            2 
  610000    1.0242273   -7.0832436    189.53247  0.025892413  0.026396083            3 
  611000    1.0022913   -7.0914552     189.2611  0.025813025  0.026375055            6 
  612000    1.0172645   -7.0927334    189.32774  0.025779921  0.026353749            2 
  613000    1.0041321   -7.0636864    189.55742  0.025769089  0.026332942            9 
  614000    1.0150474   -7.0706332    190.65905  0.025876636  0.026312563            2 
  615000    1.0257173   -7.0652993    190.52825  0.025816837  0.026292163            6 
  616000    1.0118633   -7.0824458    190.58191  0.025782184  0.026271635            4 
  617000    1.0176978   -7.0897068    190.64301  0.025748651  0.026251264            6 
  618000   0.99796036   -7.0934419    190.71239  0.025716342  0.026231419            4 
  619000   0.99991354   -7.0724178     190.8486  0.025693135  0.026210952            6 
  620000   0.99841555   -7.0698337    191.37019    0.0257218  0.026189902            4 
  621000    1.0279026   -7.0822223    191.30984  0.025672281  0.026169384            3 
  622000    1.0144576   -7.1162319    191.56498   0.02566519  0.026149096            6 
  623000    1.0161874   -7.0891659    191.51818  0.025617733  0.026128734            2 
  624000    0.9929474   -7.1106278    191.61192  0.025589198  0.026108041            5 
  625000    1.0011399   -7.1483192    191.21435  0.025495246  0.026087218            4 
  626000   0.99701444   -7.1263983    191.17973   0.02544991  0.026066201            6 
  627000    1.0107077   -7.1277124    192.06606  0.025527122  0.026045546            5 
  628000    1.0159671   -7.1362952     192.6428  0.025563004  0.026024806            6 
  629000   0.99498043   -7.1185687    192.71714  0.025532213   0.02600396            3 
  630000   0.99057486    -7.121321    192.35544  0.025443842  0.025983159           11 
  631000   0.98773994   -7.1160304    192.87733  0.025472442  0.025962483            3 
  632000    1.0386601   -7.1032632    193.57694  0.025524386  0.025942275            8 
  633000    1.0080604   -7.0921154    193.14874  0.025427691  0.025921995            3 
  634000   0.98901881   -7.1300398      193.229  0.025398133  0.025901653            3 
  635000    1.0033492   -7.1227768    193.74203  0.025425464  0.025881095            7 
  636000   0.98776028   -7.1052674    193.91949  0.025408738  0.025860568            3 
  637000    1.0092529   -7.0917948    194.24943  0.025412014  0.025840336            5 
  638000   0.99254915    -7.120174    193.78498  0.025311517  0.025820123            9 
  639000   0.99353275   -7.1166526     194.0392   0.02530506  0.025799896            3 
  640000     1.036477   -7.1275787    194.75454  0.025358664  0.025779756            8 
  641000   0.98758302   -7.0982902     194.7472  0.025318149  0.025759406            3 
  642000    1.0096783   -7.1257616    194.38973  0.025232311  0.025739208            5 
  643000    1.0088956    -7.101506    194.91056  0.025260571  0.025718584            3 
  644000    1.0055452   -7.1046105    195.23639  0.025263509  0.025698181            3 
  645000    1.0049838    -7.126681    194.72596  0.025158393  0.025677666            6 
  646000   0.99050837   -7.1321047    194.52022  0.025092907  0.025656567            9 
  647000    1.0024458   -7.1601371    194.84494  0.025095947  0.025635984            7 
  648000   0.98841655   -7.1413656    195.84503  0.025185832  0.025615017            5 
  649000   0.99085232    -7.107817    195.79692  0.025140847  0.025594545            2 
  650000    1.0022956   -7.1542275    195.79403  0.025101799  0.025574094            4 
  651000    1.0021265   -7.1460666    196.11044  0.025103743  0.025553767            6 
  652000    1.0078211   -7.1410688    196.18226   0.02507442  0.025533203            6 
  653000   0.98767677   -7.1694757    196.43834  0.025068701   0.02551263            5 
  654000    0.9981437   -7.1662813    195.92889  0.024965455  0.025491957            5 
  655000     1.002335   -7.1681342    195.91577  0.024925671  0.025471351            2 
  656000   0.99341705   -7.1510541    196.67891  0.024984618  0.025451066           12 
  657000    0.9836951   -7.1823782    196.44269  0.024916628  0.025430639            7 
  658000    1.0191528   -7.1672161    196.74992  0.024917669  0.025410265            6 
  659000   0.99415828   -7.1158602     197.5949   0.02498671  0.025389831            4 
  660000   0.99857798   -7.1795325      196.884  0.024859091   0.02536948            9 
  661000    1.0148635   -7.1432749    197.65862  0.024919141  0.025348915            8 
  662000   0.99942031   -7.1836779    198.07147  0.024933468  0.025328341            6 
  663000   0.98870145   -7.1405113     197.7912  0.024860633  0.025308138            6 
  664000   0.99765564   -7.1720029    197.70279  0.024812098  0.025287983            5 
  665000    1.0350005   -7.1635247    197.77201   0.02478346  0.025267796            7 
  666000    0.9724583   -7.1733382    198.29282  0.024811414  0.025247355            5 
  667000    0.9765815    -7.217877    198.16273  0.024757963  0.025227059           11 
  668000    1.0064835   -7.1625352    198.57706  0.024772588  0.025206541            6 
  669000   0.99059691   -7.1966878    198.14603  0.024681867  0.025186131            5 
  670000   0.97777168   -7.1406143    199.02953  0.024754916  0.025166056            4 
  671000   0.98044977   -7.1603691    199.54008  0.024781431  0.025146249            8 
  672000    1.0029897   -7.1696382    199.58833  0.024750537  0.025126326            2 
  673000   0.97236969   -7.1515528    200.28167  0.024799612  0.025106656            3 
  674000   0.97563282    -7.181048    199.46528  0.024661879  0.025087168            8 
  675000   0.97035357     -7.15545    200.02489   0.02469443  0.025067716            4 
  676000   0.99004604   -7.1640147    200.76141  0.024748695   0.02504795           19 
  677000    0.9817812   -7.1517174    200.24558  0.024648644  0.025027912            9 
  678000   0.96886974    -7.180526    200.50285   0.02464391  0.025007847            4 
  679000   0.96036692   -7.1833354    200.41844  0.024597256  0.024987783           14 
  680000   0.98794897   -7.1554755    201.08751  0.024643077  0.024967905            5 
  681000   0.99606771   -7.1379589    200.35402  0.024517134   0.02494817            7 
  682000   0.95195384   -7.1597099    201.51066  0.024622514  0.024928508            6 
  683000   0.98763409   -7.1868549    200.65064  0.024481532  0.024908693            2 
  684000   0.99848433   -7.1961073    201.49209  0.024548256  0.024888636            5 
  685000   0.99170705   -7.1792695    201.42902  0.024504747  0.024868604            3 
  686000    0.9514405    -7.213858    200.85896  0.024399776  0.024848742            4 
  687000   0.97350066   -7.1997415    201.35149  0.024424004  0.024828731            6 
  688000   0.97591129   -7.2301228    201.86074  0.024450186   0.02480873            6 
  689000   0.98885262   -7.2040784    202.06949  0.024439948  0.024788566            9 
  690000   0.96630408   -7.2069972    201.42208  0.024326338  0.024768725           12 
  691000   0.96592037   -7.1860025    201.94565  0.024354275  0.024748821            4 
  692000   0.98876075   -7.1811409    202.67393  0.024406783  0.024729357            6 
  693000   0.96098821    -7.217536    202.63969  0.024367447  0.024709769            9 
  694000   0.96167558   -7.1844307    202.98033  0.024373238   0.02468988            4 
  695000   0.97266384   -7.1823962    202.84805  0.024322308  0.024670292            6 
  696000   0.98740336   -7.2147282    202.56939  0.024253998  0.024650829            5 
  697000   0.97004326   -7.1921631    202.78766  0.024245297  0.024630804            8 
  698000    1.0032846   -7.2327604    203.19081  0.024258692  0.024610756            4 
  699000    0.9580323   -7.2185878    202.82077  0.024179873  0.024590947            2 
  700000   0.99348857   -7.2142109    203.59092  0.024237014  0.024571224            2 
  701000   0.97776265   -7.1784449    203.43748  0.024184199  0.024551561            4 
  702000   0.97106731   -7.1935937    203.26895  0.024129743  0.024531709            5 
  703000   0.97476197   -7.2248302    204.16762  0.024201946   0.02451167            4 
  704000   0.97864902   -7.2132528    204.02327  0.024150482   0.02449191            3 
  705000   0.96834663   -7.2226406    203.78304   0.02408783   0.02447236            7 
  706000   0.97654325   -7.2409054    204.18874  0.024101599  0.024452564            5 
  707000   0.98627304   -7.1958941    204.28984  0.024079425  0.024433156            7 
  708000   0.98721436    -7.173354    205.16129  0.024147987   0.02441408            5 
  709000   0.98100224    -7.180938    205.43514  0.024146114  0.024394867            3 
  710000   0.98560734   -7.2582422    204.48077   0.02400009  0.024375323            3 
  711000   0.97177262   -7.2214271    204.95091  0.024021438  0.024355685            5 
  712000    0.9682367   -7.2315961     205.2839  0.024026674  0.024335992            3 
  713000   0.97952682   -7.2142145    205.37519  0.024003645  0.024316502            5 
  714000   0.99671141   -7.1985948     206.1481  0.024060236  0.024297301           12 
  715000   0.96565853   -7.2359867    205.99071  0.024008241  0.024278108           10 
  716000   0.96340306   -7.2341023    205.56464  0.023925122  0.024258831            5 
  717000   0.95967745   -7.2641265    206.34534   0.02398249  0.024239647            6 
  718000   0.97659943   -7.2331611    205.74957  0.023879941  0.024220138            2 
  719000   0.98866706   -7.2009595    207.05184  0.023997664  0.024200879           10 
  720000   0.94568709   -7.2154104    206.71809  0.023925705  0.024181849            3 
  721000    0.9582877   -7.2275885    206.53968    0.0238719  0.024162765            6 
  722000   0.96527612   -7.2301595    206.87733  0.023877808  0.024143717            7 
  723000   0.96438076   -7.2195002    207.11141  0.023871762   0.02412499            5 
  724000   0.96456832   -7.2268722    207.00631  0.023826693   0.02410604            4 
  725000   0.96207119   -7.2401118    207.19778  0.023815836  0.024086615            2 
  726000    0.9834072   -7.2380212    206.93529  0.023752903  0.024067235            7 
  727000   0.95274902   -7.2538036    207.03505  0.023731666  0.024047968            5 
  728000   0.97369528   -7.2473597    207.49554  0.023751779  0.024028308            5 
  729000   0.95648262   -7.2698282    206.80022  0.023639714  0.024008821            2 
  730000    0.9707868   -7.2368278    207.12642  0.023644568  0.023989306            5 
  731000   0.96050491   -7.2410207    208.23711   0.02373884  0.023969839            3 
  732000   0.95554261   -7.1677909    209.56152  0.023857185  0.023950921            2 
  733000    0.9855765   -7.2017583    208.33299  0.023684969  0.023932001            8 
  734000   0.96968879    -7.239901    208.62774  0.023686164    0.0239128            3 
  735000   0.97764851   -7.2719672    207.45534  0.023521014  0.023893295            5 
  736000   0.95202032   -7.2350207    208.01717  0.023552669  0.023873895            5 
  737000   0.99192622   -7.1905707    209.05736  0.023638327  0.023854932            6 
  738000   0.97057685   -7.2548046    208.33941  0.023525227  0.023835807            6 
  739000   0.95598107   -7.2289749    208.83256  0.023549003   0.02381632            9 
  740000   0.97972131   -7.2444888    208.89297  0.023523983  0.023796723            8 
  741000    0.9535631   -7.3215008    208.00613  0.023392502  0.023776963           18 
  742000   0.95973889   -7.2666034    208.72251  0.023441432  0.023757153            8 
  743000   0.96611461   -7.2371239    209.07371  0.023449272  0.023737559            5 
  744000   0.95561566   -7.2458883    208.96447  0.023405519   0.02371802            4 
  745000    0.9539391   -7.2610287    208.84777  0.023361048  0.023698553           11 
  746000    0.9618269   -7.2974181    209.15496  0.023364049   0.02367891           12 
  747000    0.9528067   -7.2844841    209.32109  0.023351304  0.023659242            6 
  748000    0.9520815   -7.2517741    209.52825  0.023343166  0.023639666            5 
  749000   0.97140169   -7.2179211    209.95821  0.023359837  0.023620456           12 
  750000   0.96288144   -7.2276677    210.58371   0.02339819  0.023601326            4 
  751000   0.95694377   -7.2159415    210.34011  0.023340003  0.023582283            4 
  752000   0.95112019    -7.227446    211.20709  0.023405041  0.023563346            3 
  753000   0.96905626   -7.2541808    210.49888  0.023295582  0.023543995            7 
  754000   0.95074735   -7.2726636    210.24721  0.023236871  0.023524605            4 
  755000   0.96026637   -7.2608112    210.29612  0.023211492  0.023505087            4 
  756000   0.94394852   -7.2517313    210.80798  0.023237211  0.023485504            6 
  757000   0.92311448    -7.260091    210.96754   0.02322408  0.023466217            5 
  758000   0.96460822   -7.2527653    211.04063  0.023201476  0.023447014           15 
  759000   0.95380682   -7.2814077    210.50131  0.023111694  0.023427786           11 
  760000   0.93669416   -7.2502762    211.23156  0.023161355   0.02340833            6 
  761000   0.94821954   -7.2290754    211.03408  0.023109295  0.023389047            5 
  762000   0.95641441    -7.261751    210.91229  0.023065649  0.023369704            2 
  763000   0.92931198   -7.2780047    211.27282  0.023074795  0.023350155            3 
  764000   0.96624728    -7.252827    212.03558   0.02312779  0.023330623            5 
  765000   0.95285481    -7.227208    212.18198  0.023113506  0.023311298            3 
  766000   0.96013981   -7.3111235     211.6941  0.023030254  0.023291719            6 
  767000   0.95490827   -7.2879628    211.51313  0.022980566  0.023272052           13 
  768000   0.97081777   -7.2767138    211.37135  0.022935259  0.023252455            3 
  769000   0.94789556   -7.2999161    211.74895  0.022946353  0.023232864            6 
  770000   0.92802075   -7.2969509    211.78582  0.022920543  0.023213151            7 
  771000   0.94443168   -7.3036026    211.81521  0.022893992  0.023193281            6 
  772000   0.93691394   -7.2618897     212.3048  0.022917184  0.023173642            5 
  773000   0.92202037   -7.2763055     212.5981  0.022919156  0.023153994            4 
  774000    0.9449591   -7.3332502    211.98198  0.022823211  0.023134443            5 
  775000   0.94770199   -7.2806417    212.83194  0.022885155  0.023115061            4 
  776000   0.94990734    -7.306344    212.07325   0.02277419  0.023095514            2 
  777000   0.93319425   -7.3021946    212.09398  0.022747102     0.023076            5 
  778000   0.93481965   -7.2913181       212.35  0.022745287  0.023056148            7 
  779000   0.94120816   -7.3007581    212.64102  0.022747221   0.02303644            6 
  780000   0.94576101   -7.3106335    212.54922   0.02270825  0.023016668            9 
  781000   0.95221167   -7.3319535    212.44765  0.022668337  0.022996833            5 
  782000   0.92340726   -7.3058029     212.9413  0.022691954  0.022977152            8 
  783000   0.94169882   -7.3048807    213.69296  0.022742971  0.022957646            4 
  784000   0.95608681   -7.2908274    213.33396  0.022675803   0.02293807            7 
  785000   0.94437635    -7.281619    213.99613  0.022717211  0.022918703            4 
  786000   0.93998427    -7.325401    213.33299  0.022618002  0.022899452            6 
  787000   0.93684102   -7.3344077    213.58624  0.022616078  0.022880071            5 
  788000   0.94405456     -7.31103    213.90165  0.022620732  0.022860598            5 
  789000   0.92315717   -7.3060168    213.89934  0.022591819  0.022841209            2 
  790000    0.9295541   -7.2890836    214.43061  0.022619263  0.022822056            3 
  791000   0.94771122   -7.3102428    213.69719    0.0225134  0.022802754            7 
  792000   0.94567544   -7.3193641      214.418  0.022560817  0.022783355            7 
  793000   0.92428277   -7.3035613    214.08279   0.02249714  0.022764026            5 
  794000   0.94430672   -7.3066207    214.17624  0.022478614  0.022744491            6 
  795000   0.91408873   -7.3440002    214.26076  0.022459199  0.022724916            3 
  796000   0.92882074   -7.3399075    214.37075  0.022442499  0.022705429            9 
  797000   0.92866787    -7.301329    214.98657  0.022478729  0.022686005            5 
  798000   0.94257264   -7.3340286    214.81893  0.022433055  0.022666645           16 
  799000   0.94174198   -7.3391943    214.82749  0.022405871  0.022647122            4 
  800000   0.91772773   -7.3524642    214.37194   0.02233041  0.022627691            7 
  801000   0.94543272   -7.3102595    214.75795  0.022342692  0.022608268            4 
  802000   0.93354497   -7.3099818    215.43464  0.022385146  0.022589002            4 
  803000   0.91120066   -7.3388487    215.35927  0.022349446   0.02256978            7 
  804000   0.92827245   -7.3255829    215.12019  0.022296869  0.022550436            7 
  805000   0.94299933   -7.3261137     215.0199  0.022258789  0.022530781            4 
  806000   0.93669122    -7.323947    215.02439  0.022231637  0.022511235            3 
  807000   0.93692401   -7.3049934     215.4924  0.022252416  0.022491925           10 
  808000   0.92552717   -7.2881328    216.31137  0.022309341  0.022472721            7 
[...]
 1800000   0.53143006   -8.4817783    224.19748  0.010379513 0.0084982978         1362 
 1801000   0.52507641   -8.4690881    224.28718    0.0103779 0.0084901732         1284 
 1802000   0.53282026   -8.4910919     224.1902  0.010367656 0.0084820573         1289 
 1803000   0.52276211   -8.4956463    224.06979  0.010356341 0.0084739633         1330 
 1804000    0.5323514    -8.498338    224.03044  0.010348782 0.0084658743         1315 
 1805000   0.52528972   -8.5137818    224.26143  0.010353713 0.0084577891         1388 
 1806000   0.53537322   -8.4992803    224.55753  0.010361643 0.0084497153         1411 
 1807000   0.52616836   -8.5058642    224.18527  0.010338741 0.0084416498         1400 
 1808000   0.52706678   -8.5060163    224.09258  0.010328751 0.0084336047         1344 
 1809000   0.52524485   -8.5057991    224.55001  0.010344113 0.0084255594         1361 
 1810000   0.53105393   -8.5172054    224.31949  0.010327785 0.0084175309         1409 
 1811000   0.52559001   -8.5215727    224.40284  0.010325917 0.0084095175         1408 
 1812000   0.52582059   -8.5099474    224.34259  0.010317448 0.0084015074         1373 
 1813000   0.53039299   -8.5070982    223.99357  0.010295715 0.0083935091         1428 
 1814000   0.53851238   -8.5057985    224.40264  0.010308831 0.0083855275         1302 
 1815000    0.5245091   -8.5124474    224.11569  0.010289976 0.0083775473         1368 
 1816000   0.53024923   -8.4996814    223.92249  0.010275445 0.0083695824         1440 
 1817000   0.53903713   -8.5171813     224.1352  0.010279545 0.0083616282         1418 
 1818000   0.52488429   -8.5030582    224.18463  0.010276156 0.0083536859         1365 
 1819000   0.52868238   -8.4945718    224.08957  0.010266152 0.0083457562         1438 
 1820000   0.53344689   -8.5158617    223.71712  0.010243458 0.0083378307         1399 
 1821000   0.52325251    -8.502402    223.77285  0.010240383 0.0083299151         1321 
 1822000   0.51592878   -8.5014966    224.16321  0.010252617 0.0083220151         1390 
 1823000   0.52196743   -8.5089894     224.1865  0.010248057 0.0083141262         1387 
 1824000   0.53629703   -8.5122842    224.14991  0.010240767 0.0083062351         1356 
 1825000   0.53306131    -8.508782    224.09529  0.010232662 0.0082983535         1359 
 1826000   0.51855611    -8.507477    224.02697   0.01022394 0.0082904827         1337 
 1827000   0.52987106    -8.519661    224.16756  0.010224756 0.0082826196         1356 
 1828000   0.51096409   -8.5213921     224.1862  0.010220013 0.0082747688         1382 
 1829000   0.52844436    -8.508844    224.08612  0.010209865 0.0082669273         1311 
 1830000   0.51402147   -8.5046583    224.14349  0.010206898 0.0082591038         1411 
 1831000   0.51716225   -8.5187103    224.17969  0.010202971 0.0082512798         1227 
 1832000   0.53076388   -8.5119725    224.19206  0.010197965 0.0082434694         1377 
 1833000   0.51974715    -8.527704    223.75153  0.010172373 0.0082356687         1408 
 1834000   0.51596574   -8.5057779    224.03424  0.010179673 0.0082278782         1338 
 1835000   0.51918058   -8.5064435    224.17156  0.010180361 0.0082200896         1321 
 1836000     0.506934   -8.5223681    223.56022  0.010147069 0.0082123168         1390 
 1837000    0.5158046   -8.5162701    224.00171  0.010161573 0.0082045483         1285 
 1838000   0.53843829   -8.5260591    224.09765  0.010160394 0.0081968028         1402 
 1839000   0.53298794   -8.5127695    224.26194  0.010162314 0.0081890676         1329 
 1840000   0.51836122   -8.5328548    223.99573  0.010144734 0.0081813384         1366 
 1841000   0.51231185   -8.5306396    223.67063  0.010124508 0.0081736112         1368 
 1842000   0.51941091   -8.5237337    224.05933  0.010136596 0.0081658977         1337 
 1843000   0.52348778   -8.5250933    224.15624  0.010135478 0.0081581916         1376 
 1844000   0.52166858   -8.5285273    223.87794  0.010117405 0.0081504924         1371 
 1845000   0.52122677   -8.5277244     223.8671  0.010111432 0.0081428119         1421 
 1846000   0.52293854   -8.5191911    224.32508  0.010126629 0.0081351299         1358 
 1847000   0.52053454   -8.5165169    223.93821  0.010103691  0.008127465         1420 
 1848000   0.52340692   -8.5347141     223.7023  0.010087586 0.0081198123         1378 
 1849000   0.51633315   -8.5183142    224.02779    0.0100968  0.008112168         1332 
 1850000   0.51049254   -8.5268653     224.2136  0.010099712 0.0081045315         1372 
 1851000    0.5044195   -8.5181521    224.00422  0.010084829 0.0080969032         1377 
 1852000   0.51111668   -8.5347944    224.00441  0.010079392 0.0080892857         1441 
 1853000   0.50360327   -8.5217532     223.9198  0.010070147 0.0080816718         1406 
 1854000   0.51974091   -8.5207015    223.96541  0.010066766 0.0080740695         1442 
 1855000   0.52567174   -8.5406175     224.1048  0.010067601 0.0080664878         1392 
 1856000   0.51307538   -8.5353494    223.83171  0.010049915 0.0080589104         1362 
 1857000   0.49961735   -8.5402849    224.06219  0.010054846 0.0080513452         1392 
 1858000   0.50391338   -8.5415407    223.74473  0.010035196 0.0080437797         1428 
 1859000    0.4972083   -8.5105217    223.71448  0.010028442 0.0080362225         1330 
 1860000   0.50593487   -8.5349196     223.7789  0.010025937 0.0080286737         1349 
 1861000   0.50944327   -8.5349517    223.91664  0.010026717 0.0080211321         1351 
 1862000    0.5110244   -8.5442669    223.55549  0.010005169 0.0080136063         1365 
 1863000   0.49938792    -8.546385     223.8777  0.010014211 0.0080060959         1413 
 1864000    0.5173777   -8.5317381    224.03789     0.010016 0.0079985905         1402 
 1865000   0.50043076   -8.5287573    223.94382  0.010006426 0.0079910958         1359 
 1866000   0.50442436   -8.5369097    223.72689 0.0099913761 0.0079836021         1336 
 1867000   0.50787813   -8.5432449    223.69095 0.0099844203 0.0079761239         1351 
 1868000   0.51117609    -8.539196    224.25992  0.010004458 0.0079686564         1373 
 1869000   0.50572043   -8.5333389     223.3677 0.0099593232  0.007961195         1328 
 1870000   0.50698166   -8.5432435    223.82715 0.0099744719 0.0079537465         1367 
 1871000   0.51052997    -8.535208    224.01668 0.0099775825 0.0079463034         1436 
 1872000   0.50554504   -8.5534734    223.33645 0.0099419715  0.007938866         1419 
 1873000   0.50004238   -8.5239982    223.90279 0.0099618612   0.00793144         1388 
 1874000   0.51621057   -8.5324705    223.49956 0.0099386145 0.0079240187         1370 
 1875000   0.50678047   -8.5480606    223.85988 0.0099493282 0.0079166044         1392 
 1876000   0.50478533    -8.519594     223.8379 0.0099430482 0.0079092077         1369 
 1877000   0.50448696   -8.5540099    223.72507 0.0099327413 0.0079018193         1340 
 1878000   0.51060854    -8.558378    223.52609 0.0099186231 0.0078944383         1306 
 1879000   0.51306028   -8.5576851    223.51662 0.0099129244 0.0078870672         1338 
 1880000   0.50678402   -8.5527034    223.90349 0.0099247999 0.0078797038         1389 
 1881000      0.50575   -8.5395079     223.8046 0.0099151425 0.0078723524         1334 
 1882000   0.48638998   -8.5413121    223.64893 0.0099029814 0.0078650115         1363 
 1883000   0.50421399   -8.5527772    223.75869 0.0099025795 0.0078576739         1279 
 1884000   0.49149564   -8.5445645    223.49285 0.0098855648 0.0078503495         1367 
 1885000   0.49931391   -8.5539983    223.27974 0.0098708993   0.00784303         1370 
 1886000   0.51196871   -8.5446852     223.9244 0.0098941498 0.0078357173         1380 
 1887000   0.49645695    -8.552646    223.21157 0.0098574268 0.0078284161         1371 
 1888000   0.50030477   -8.5476496    223.41069 0.0098609946 0.0078211237         1356 
 1889000   0.50565738   -8.5534533    224.05901 0.0098843751 0.0078138499         1359 
 1890000   0.49874329   -8.5523629    223.57557 0.0098578295 0.0078065735         1407 
 1891000   0.50473611   -8.5498958    223.78743 0.0098619526 0.0077993109         1354 
 1892000   0.49535284    -8.558282    223.39362 0.0098393947 0.0077920501         1356 
 1893000   0.49423269   -8.5539382    223.54465 0.0098408458 0.0077847972         1325 
 1894000   0.50437061   -8.5528628    223.62096 0.0098390073 0.0077775594         1372 
 1895000   0.50234082   -8.5430807    223.24057 0.0098170875 0.0077703333         1383 
 1896000   0.49362056    -8.565064    223.84598  0.009838519 0.0077631115         1294 
 1897000   0.49308394   -8.5439778    223.44854 0.0098158731 0.0077558931         1416 
 1898000   0.49550098   -8.5578312    223.34957 0.0098063564 0.0077486975         1352 
 1899000   0.49989521   -8.5687565    223.20296 0.0097947587 0.0077415005         1343 
 1900000   0.49207431   -8.5493555    223.48507 0.0098019769 0.0077343237         1366 
 1901000   0.49263528   -8.5487416    223.51118 0.0097979652   0.00772715         1378 
 1902000   0.49703774   -8.5662264    223.46271 0.0097906902 0.0077199731         1375 
 1903000   0.48554026   -8.5519334    223.63971 0.0097932961  0.007712808         1357 
 1904000   0.48295972   -8.5699233    223.35546 0.0097757119 0.0077056483         1412 
 1905000   0.49204712   -8.5667177    223.45952 0.0097751321  0.007698501         1385 
 1906000   0.49397941   -8.5638974    223.54019 0.0097735306 0.0076913682         1432 
 1907000   0.48589279   -8.5557078     223.6418 0.0097728457 0.0076842429         1420 
 1908000   0.49717477   -8.5701859    223.34533 0.0097547752  0.007677125         1372 
 1909000    0.4884011   -8.5698988    223.61118 0.0097612703 0.0076700127         1373 
 1910000   0.48164335   -8.5557552    223.73479 0.0097615527 0.0076629143         1412 
 1911000   0.48631354   -8.5705141    223.54329 0.0097480939 0.0076558208         1378 
 1912000   0.49042086   -8.5774017    223.48488 0.0097404497 0.0076487359         1383 
 1913000   0.48482812   -8.5847208    223.56515  0.009738855 0.0076416644         1343 
 1914000   0.49065792   -8.5559756    223.76783 0.0097425908 0.0076345997         1366 
 1915000   0.48364737   -8.5694214    223.47662 0.0097248313 0.0076275453         1406 
 1916000   0.48746017   -8.5615888    223.43081 0.0097177631 0.0076204928         1418 
 1917000    0.4914228   -8.5691174    223.33653 0.0097085954 0.0076134513         1432 
 1918000   0.48359886   -8.5513218    223.53064 0.0097119672 0.0076064158         1475 
 1919000   0.48602239   -8.5777229    223.43132 0.0097025935 0.0075993984         1438 
 1920000    0.4773366    -8.572011    223.33996 0.0096935745 0.0075923822         1396 
 1921000   0.49262777   -8.5700544    223.05299 0.0096760798 0.0075853734         1365 
 1922000   0.48298031   -8.5705265    223.48821 0.0096899155 0.0075783773         1413 
 1923000   0.46609908   -8.5785318    223.23126 0.0096737414 0.0075713857         1417 
 1924000   0.48820987   -8.5887977    223.63737 0.0096863033 0.0075644068         1418 
 1925000   0.48406453   -8.5545518     223.6364 0.0096812296 0.0075574343         1439 
 1926000   0.48800477    -8.576535    223.37568  0.009664922 0.0075504719         1449 
 1927000   0.48657269   -8.5773382    223.66641 0.0096724795 0.0075435195         1407 
 1928000   0.48181516   -8.5763402    223.44644 0.0096579546 0.0075365797         1431 
 1929000   0.49061737    -8.577639    223.33342 0.0096480657 0.0075296443         1376 
 1930000   0.48525166   -8.5910609    222.85989 0.0096226205 0.0075227151         1356 
 1931000   0.48251144   -8.5843479    223.35718 0.0096390982 0.0075157896         1467 
 1932000   0.47187027   -8.5927017    223.02036 0.0096195807 0.0075088811         1443 
 1933000   0.48178323   -8.5710638    223.02459 0.0096147866 0.0075019771         1394 
 1934000   0.48573962   -8.5860744    223.34299 0.0096235345 0.0074950845         1393 
 1935000   0.49363657   -8.5833672    223.49349 0.0096250425 0.0074882003         1373 
 1936000   0.47427641   -8.5774501    223.49202 0.0096200078 0.0074813235         1474 
 1937000   0.48196698   -8.5705239    223.31001 0.0096072109 0.0074744581         1388 
 1938000   0.47811738    -8.578581    223.37196 0.0096049173 0.0074675918         1407 
 1939000   0.48335833   -8.5742951    222.85973 0.0095779496 0.0074607358         1395 
 1940000   0.47666703   -8.5777264    223.01254 0.0095795766 0.0074538934         1396 
 1941000   0.48101116   -8.5861967    223.20505 0.0095829061 0.0074470636         1431 
 1942000   0.47769217   -8.5792152    223.35677 0.0095844821 0.0074402341         1407 
 1943000   0.48169364   -8.5926515    223.08042 0.0095676968  0.007433417         1420 
 1944000   0.46826381    -8.578793    223.40684  0.009576768 0.0074266104         1465 
 1945000   0.47901102   -8.5827187    223.30936 0.0095676674 0.0074198089         1362 
 1946000   0.47727959   -8.5841146    223.35385 0.0095646559 0.0074130168         1447 
 1947000   0.46929614   -8.5974671    223.08102 0.0095480663 0.0074062304         1427 
 1948000   0.48170107   -8.5889159    223.37022 0.0095555364  0.007399452         1443 
 1949000   0.47794723   -8.5803848    223.03836 0.0095364442 0.0073926826         1434 
 1950000   0.47236503   -8.5931066    222.95233 0.0095278773 0.0073859199         1440 
 1951000   0.47238604   -8.5800191    223.05846  0.009527527 0.0073791631         1481 
 1952000   0.48133329   -8.5912842    222.97646 0.0095191455 0.0073724173         1453 
 1953000   0.48033424   -8.5817114    223.38114 0.0095315388 0.0073656845         1414 
 1954000   0.47384253   -8.5999229    223.14208 0.0095164652 0.0073589622         1451 
 1955000   0.46307481   -8.5902685    223.75045 0.0095375299 0.0073522473         1395 
 1956000   0.47396833   -8.5820225    223.22142 0.0095101152 0.0073455362         1447 
 1957000    0.4834274   -8.5919034    223.04377 0.0094976907 0.0073388404         1363 
 1958000   0.46713629   -8.5980641    223.22179 0.0095004167   0.00733215         1456 
 1959000    0.4717704   -8.5911026    223.27808 0.0094979614 0.0073254613         1405 
 1960000   0.46922642   -8.5944615    223.20212  0.009489886 0.0073187764         1404 
 1961000   0.48352283   -8.5884976    222.93848 0.0094738431 0.0073121105         1402 
 1962000    0.4643224    -8.605294    223.52398 0.0094938829 0.0073054514         1392 
 1963000   0.47350624   -8.5864992    223.27979   0.00947868 0.0072987953         1402 
 1964000   0.47315444   -8.5870232    223.12388 0.0094672387 0.0072921462         1419 
 1965000    0.4614255   -8.5831851    223.40861 0.0094744958 0.0072855071         1458 
 1966000   0.47103274   -8.6064342     222.8858 0.0094475163 0.0072788798         1411 
 1967000   0.46082741   -8.5903144    223.00857 0.0094479145 0.0072722582         1384 
 1968000   0.46004717   -8.6021247    222.81792 0.0094350408 0.0072656383         1417 
 1969000   0.46739283   -8.6044276     222.9618 0.0094363384 0.0072590327         1398 
 1970000   0.47587444   -8.6213506    222.97791 0.0094322298 0.0072524333         1450 
 1971000   0.46204935   -8.5797047    223.10065 0.0094326337 0.0072458391         1431 
 1972000   0.45569133    -8.610906    223.01751 0.0094243371  0.007239256         1420 
 1973000   0.46341826   -8.5996213    223.23685 0.0094288246 0.0072326755         1389 
 1974000   0.46513879   -8.6053626    222.73384 0.0094028132 0.0072261096         1471 
 1975000   0.46068453   -8.6046346    222.69236 0.0093963021 0.0072195509         1432 
 1976000   0.46050324    -8.593057     222.9946 0.0094042931 0.0072130011         1421 
 1977000   0.46421634   -8.5946398    223.16521 0.0094067278 0.0072064558         1378 
 1978000   0.46005792   -8.6208524    223.05473 0.0093973176 0.0071999103         1381 
 1979000   0.47140177   -8.6043314    223.19461 0.0093984592  0.007193376         1363 
 1980000    0.4675116   -8.6030932    223.18439 0.0093932822 0.0071868517         1421 
 1981000   0.46033257   -8.6054435    222.89874 0.0093765243 0.0071803378         1369 
 1982000   0.46475795   -8.6111358    222.92176 0.0093727613 0.0071738263         1345 
 1983000     0.452255   -8.6171723    222.93573 0.0093686222 0.0071673293         1361 
 1984000   0.46217248   -8.6161525     223.1378 0.0093723872 0.0071608335         1401 
 1985000   0.46225692   -8.5912409    222.99134 0.0093615174 0.0071543492         1362 
 1986000   0.45340448   -8.5962113    222.73217 0.0093459286 0.0071478773         1333 
 1987000   0.45321298   -8.5989478    222.94089 0.0093499784 0.0071414151         1375 
 1988000   0.48132925   -8.6043576    222.76535 0.0093379171 0.0071349602         1389 
 1989000    0.4638149   -8.6104949     222.8652 0.0093374055 0.0071285122         1358 
 1990000   0.46442765   -8.6157888    222.76321 0.0093284427 0.0071220712         1373 
 1991000   0.45370253   -8.6223349    222.75202  0.009323289 0.0071156337         1435 
 1992000   0.45080806   -8.6212612    223.02515 0.0093300345 0.0071092068         1388 
 1993000   0.45933016   -8.5879256    223.09811  0.009328404 0.0071027849         1375 
 1994000   0.45730401    -8.607356    222.49971 0.0092987172 0.0070963674         1363 
 1995000   0.46379483   -8.6118851    223.03394 0.0093163716 0.0070899737         1342 
 1996000   0.46984885   -8.6075145     222.7587 0.0093002129 0.0070835767         1415 
 1997000   0.46175149   -8.6160757    223.14796 0.0093117994 0.0070771853         1442 
 1998000   0.45685403   -8.5992134    222.82925 0.0092938459 0.0070708022         1423 
 1999000   0.46837347   -8.6121403    222.87665 0.0092911729 0.0070644271         1361 
 2000000    0.4518497   -8.6130471    222.77708 0.0092823782 0.0070580586         1370 
 2001000      0.45158   -8.6089915    222.80843 0.0092790452 0.0070516933         1419 
 2002000   0.45916237   -8.6150153    222.87211 0.0092770607 0.0070453375         1448 
 2003000   0.45024771   -8.6207344    222.70224 0.0092653618 0.0070389932         1384 
 2004000   0.43883224    -8.619694    223.25033   0.00928353 0.0070326573         1401 
 2005000   0.45369486   -8.6103347    223.21228 0.0092773185 0.0070263269         1425 
 2006000   0.44798927   -8.6103332    222.71291 0.0092519486 0.0070200055         1366 
 2007000   0.46129555   -8.6368521    222.73895 0.0092484203 0.0070136852         1407 
 2008000   0.44548046   -8.6081934    222.53062 0.0092351685 0.0070073789         1420 
 2009000   0.44933551    -8.615362    222.60182 0.0092335252 0.0070010752         1398 
 2010000   0.44227743    -8.623199    223.06726 0.0092482281 0.0069947785         1349 
 2011000   0.44234367   -8.6284217    222.36803 0.0092146539 0.0069884916         1338 
 2012000   0.44696357   -8.6159869    222.81756  0.009228693 0.0069822064         1366 
Loop time of 5260.58 on 48 procs for 2000000 steps with 4000 atoms

Performance: 65696.226 tau/day, 380.186 timesteps/s
99.4% CPU use with 48 MPI tasks x no OpenMP threads

MPI task timing breakdown:
Section |  min time  |  avg time  |  max time  |%varavg| %total
---------------------------------------------------------------
Pair    | 383.25     | 420.82     | 459.96     | 101.2 |  8.00
Neigh   | 36.572     | 38.278     | 39.751     |  11.3 |  0.73
Comm    | 343.1      | 378.34     | 416.65     | 101.9 |  7.19
Output  | 5.6114     | 5.6141     | 5.6689     |   0.3 |  0.11
Modify  | 4348.2     | 4366.8     | 4382.5     |  14.3 | 83.01
Other   |            | 50.67      |            |       |  0.96

Nlocal:        83.3333 ave          90 max          75 min
Histogram: 1 1 3 3 13 4 10 2 8 3
Nghost:        2428.75 ave        2441 max        2414 min
Histogram: 2 3 5 3 6 5 8 10 4 2
Neighs:        16838.0 ave       19858 max       14535 min
Histogram: 4 2 11 7 9 4 4 1 3 3
FullNghs:      33675.2 ave       36870 max       30157 min
Histogram: 1 1 3 9 10 7 5 7 3 2

Total # of neighbors = 1616409
Ave neighs/atom = 404.10225
Neighbor list builds = 106535
Dangerous builds = 0

#clear
#
#next RN
#
#jump SELF
Total wall time: 1:27:44
