
units lj                  # Use reduced LJ style units
atom_style atomic         # Uncharged point particles
atom_modify map hash      # Needed for indexing of clusters etc
                          # Used to be able to find where atoms are in relation to each other.

# Define a lattice with which to populate the simulation cell. With units
# set to 'lj' the second argument to the lattice command is the reduced
# density rho* and the spacings are multiples of that required to acheive
# that density. Also define a simulation cell called 'box' in lattice units
# and fill it with atoms. Here we're creating a box which is ten lattice
# constants in each direction.
lattice fcc 1.0 spacing 1 1 1                 # All equal sizes - gives the right reduced density.
Lattice spacing in x,y,z = 1.5874011 1.5874011 1.5874011

region box block 0 10 0 10 0 10 units lattice # Defines a region, "box", in lattice units
create_box 1 box                              # Creates a simulation box as specified above,
Created orthogonal box = (0.0000000 0.0000000 0.0000000) to (15.874011 15.874011 15.874011)
  3 by 4 by 4 MPI processor grid
                                              # with one type of atom
create_atoms 1 box                            # Creates particles on lattice points
Created 4000 atoms
  using lattice units in orthogonal box = (0.0000000 0.0000000 0.0000000) to (15.874011 15.874011 15.874011)
  create_atoms CPU = 0.003 seconds


# Set the mass of the first (and only) atom type.
mass 1 1.0

# Lennard-Jones interactions between particles, 3.5 sigma cut-off. Apply
# long range tail corrections to energy and pressure and set all coefficients
# to unity since we work in reduced units here. Note that this doesn't shift
# the potential such that it goes to zero at the cutoff. That would require
# pair_modify('shift', 'yes').
pair_style lj/cut  3.5      # non-GPU version
pair_modify tail  yes
pair_coeff 1  1  1.0  1.0   # Intearaction between 1 and 1 set with epsilon = 1 and sigma = 1

write_data data.*
System init for write_data ...
Neighbor list info ...
  update every 1 steps, delay 10 steps, check yes
  max neighbors/atom: 2000, page size: 100000
  master list distance cutoff = 3.8
  ghost atom cutoff = 3.8
  binsize = 1.9, bins = 9 9 9
  1 neighbor lists, perpetual/occasional/extra = 1 0 0
  (1) pair lj/cut, perpetual
      attributes: half, newton on
      pair build: half/bin/atomonly/newton
      stencil: half/bin/3d
      bin: standard

#############################
#   M E L T   S Y S T E M   #
#############################

velocity all create 2.4 3143649 mom yes dist gaussian # Assign velocities
                                                    # Temperature 2.4, random number seed, zero linear momentum
						                                                        # Gaussian distribution

timestep 0.002   # simulation timestep
thermo 1000       # output thermodynamic data every 1000 steps

# Define a fix  in this case with index 1 applied to all
# particles in the simulation. This fix is for simulations
# in the anisotropic NPT ensemble. Note that we use the MTK
# correction.
fix 1 all npt temp 2.4 2.4 0.1 iso 5.68 5.68 0.5 mtk yes tchain 5 pchain 5 # Use NPT ensemble
                                                                         # Set temperature and pressure and damping
                                                                         # Numbers of thermostats in chain and in barostat
run 1000         # run for 10000 steps
Per MPI rank memory allocation (min/avg/max) = 3.642 | 3.644 | 3.648 Mbytes
Step Temp E_pair E_mol TotEng Press Volume 
       0          2.4   -8.3859253            0   -4.7868253   -2.2405722         4000 
    1000    2.3556826   -4.4218277            0  -0.88918722    5.9178648    5149.9434 
Loop time of 0.216634 on 48 procs for 1000 steps with 4000 atoms

Performance: 797657.193 tau/day, 4616.072 timesteps/s
99.3% CPU use with 48 MPI tasks x no OpenMP threads

MPI task timing breakdown:
Section |  min time  |  avg time  |  max time  |%varavg| %total
---------------------------------------------------------------
Pair    | 0.092607   | 0.099635   | 0.10994    |   1.2 | 45.99
Neigh   | 0.017415   | 0.018628   | 0.020256   |   0.4 |  8.60
Comm    | 0.060788   | 0.07396    | 0.082751   |   1.6 | 34.14
Output  | 2.4656e-05 | 2.5434e-05 | 3.2826e-05 |   0.0 |  0.01
Modify  | 0.021062   | 0.02282    | 0.024565   |   0.8 | 10.53
Other   |            | 0.001566   |            |       |  0.72

Nlocal:        83.3333 ave          91 max          77 min
Histogram: 5 1 7 7 6 11 2 6 0 3
Nghost:        1399.19 ave        1422 max        1377 min
Histogram: 1 1 6 6 12 10 4 2 3 3
Neighs:        7397.58 ave        8529 max        6755 min
Histogram: 5 7 9 9 9 3 3 1 0 2

Total # of neighbors = 355084
Ave neighs/atom = 88.771000
Neighbor list builds = 86
Dangerous builds = 18

# Equilibrate just above the melting temperature to avoid step fn in T

fix 1 all npt temp 1.25 1.25 0.1 iso 5.68 5.68 0.5 mtk yes tchain 5 pchain 5
run 1000
Per MPI rank memory allocation (min/avg/max) = 3.642 | 3.644 | 3.648 Mbytes
Step Temp E_pair E_mol TotEng Press Volume 
    1000    2.3556826   -4.4218277            0  -0.88918722    5.9178648    5149.9434 
    2000    1.2718396   -5.8179173            0   -3.9106348    5.8388957    4340.7158 
Loop time of 0.217045 on 48 procs for 1000 steps with 4000 atoms

Performance: 796147.867 tau/day, 4607.337 timesteps/s
99.6% CPU use with 48 MPI tasks x no OpenMP threads

MPI task timing breakdown:
Section |  min time  |  avg time  |  max time  |%varavg| %total
---------------------------------------------------------------
Pair    | 0.092224   | 0.09961    | 0.10704    |   1.0 | 45.89
Neigh   | 0.015565   | 0.016138   | 0.017413   |   0.3 |  7.44
Comm    | 0.068625   | 0.075173   | 0.083387   |   1.4 | 34.63
Output  | 2.4097e-05 | 2.4713e-05 | 3.0283e-05 |   0.0 |  0.01
Modify  | 0.020647   | 0.024119   | 0.0268     |   1.0 | 11.11
Other   |            | 0.001981   |            |       |  0.91

Nlocal:        83.3333 ave          89 max          77 min
Histogram: 4 4 1 5 6 7 7 6 3 5
Nghost:        1554.81 ave        1572 max        1531 min
Histogram: 1 1 2 6 7 10 4 10 2 5
Neighs:        8780.42 ave        9530 max        7727 min
Histogram: 1 0 5 5 4 10 6 8 6 3

Total # of neighbors = 421460
Ave neighs/atom = 105.36500
Neighbor list builds = 74
Dangerous builds = 4


# Small amount of linear quench

fix 1 all npt temp 1.25 ${temp} 0.1 iso 5.68 5.68 0.5 mtk yes tchain 5 pchain 5
fix 1 all npt temp 1.25 1.97 0.1 iso 5.68 5.68 0.5 mtk yes tchain 5 pchain 5
run 2000
Per MPI rank memory allocation (min/avg/max) = 3.643 | 3.645 | 3.648 Mbytes
Step Temp E_pair E_mol TotEng Press Volume 
    2000    1.2718396   -5.8179173            0   -3.9106348    5.8388957    4340.7158 
    3000    1.5646835   -5.3809988            0   -3.0345604    5.7731968    4565.6588 
    4000    1.9462827   -4.9059161            0   -1.9872219    5.6362474    4860.6005 
Loop time of 0.431677 on 48 procs for 2000 steps with 4000 atoms

Performance: 800598.238 tau/day, 4633.092 timesteps/s
99.6% CPU use with 48 MPI tasks x no OpenMP threads

MPI task timing breakdown:
Section |  min time  |  avg time  |  max time  |%varavg| %total
---------------------------------------------------------------
Pair    | 0.1865     | 0.19876    | 0.22217    |   1.4 | 46.04
Neigh   | 0.031637   | 0.032878   | 0.036856   |   0.5 |  7.62
Comm    | 0.13218    | 0.14849    | 0.16764    |   2.2 | 34.40
Output  | 4.7329e-05 | 4.8519e-05 | 6.0002e-05 |   0.0 |  0.01
Modify  | 0.036286   | 0.047552   | 0.056833   |   2.8 | 11.02
Other   |            | 0.003946   |            |       |  0.91

Nlocal:        83.3333 ave          90 max          77 min
Histogram: 2 2 5 7 12 7 6 2 3 2
Nghost:        1445.67 ave        1465 max        1414 min
Histogram: 1 1 3 3 6 6 9 8 4 7
Neighs:        7819.06 ave        8644 max        7234 min
Histogram: 3 4 6 12 7 8 2 5 0 1

Total # of neighbors = 375315
Ave neighs/atom = 93.828750
Neighbor list builds = 149
Dangerous builds = 1

#############################
# F R E E Z E  S Y S T E M  #
#############################

# Define solid atoms. This closely follows ten Wolde  Ruiz-Montero and Frenkel  Faraday Discuss  1996  104  93-110
# Compute components of the per-atom q6 vector
compute q6 all orientorder/atom degrees 1 6 components 6 nnn NULL cutoff 1.3 # compute the Q6 parameter.
                                                                             # Use all neighbours within 1.3 unit cell.

# get number of connections
compute coord_number all coord/atom orientorder q6 0.5

# An atom is solid if it has 8 or more connections (of a possible 14)
variable is_solid atom c_coord_number>=8
group solid dynamic all var is_solid    # Must be dynamic to update
dynamic group solid defined

# do clustering
compute cluster solid cluster/atom 1.3 # Create a cluster where all atoms within are solid and max 1.3 units from another member

# define chunks one chunk per cluster
compute clus_chunks solid chunk/atom c_cluster nchunk every compress yes  # Says which atoms are in which chunk

# count the size of each chunk
compute size_chunks solid property/chunk clus_chunks count


# Find the maximum entry in the vector of chunk sizes
variable max_n equal max(c_size_chunks)


# Thermo style which includes this variable
thermo_style custom step temp pe vol v_max_n

thermo ${N}  # Print the thermo information every 100 steps
thermo 1000  

# Reset the npt fix at a lower temperature (below freezing)
fix 1  all npt temp  ${temp} ${temp}  0.1  iso  5.68  5.68  0.5  mtk yes tchain  5  pchain  5
fix 1  all npt temp  1.97 ${temp}  0.1  iso  5.68  5.68  0.5  mtk yes tchain  5  pchain  5
fix 1  all npt temp  1.97 1.97  0.1  iso  5.68  5.68  0.5  mtk yes tchain  5  pchain  5

dump dmp2 all dcd ${N} traj_${rand}.dcd
dump dmp2 all dcd 1000 traj_${rand}.dcd
dump dmp2 all dcd 1000 traj_462431.dcd


# fix rnuntil all halt ${N} v_max_n >= 3980 error soft message no   # Stop when solidified


run 1000000 # 5000000  # Run for this many steps
Neighbor list info ...
  update every 1 steps, delay 10 steps, check yes
  max neighbors/atom: 2000, page size: 100000
  master list distance cutoff = 3.8
  ghost atom cutoff = 3.8
  binsize = 1.9, bins = 9 9 9
  4 neighbor lists, perpetual/occasional/extra = 1 3 0
  (1) pair lj/cut, perpetual
      attributes: half, newton on
      pair build: half/bin/atomonly/newton
      stencil: half/bin/3d
      bin: standard
  (2) compute orientorder/atom, occasional
      attributes: full, newton on
      pair build: full/bin/atomonly
      stencil: full/bin/3d
      bin: standard
  (3) compute coord/atom, occasional
      attributes: full, newton on
      pair build: full/bin/atomonly
      stencil: full/bin/3d
      bin: standard
  (4) compute cluster/atom, occasional
      attributes: full, newton on
      pair build: full/bin/atomonly
      stencil: full/bin/3d
      bin: standard
Per MPI rank memory allocation (min/avg/max) = 9.326 | 9.332 | 9.337 Mbytes
Step Temp PotEng Volume v_max_n 
    4000    1.9462827   -4.9059161    4860.6005            1 
    5000    1.9781336   -4.8172684    4881.8234            1 
    6000    2.0248757   -4.8407361    4911.8598            1 
    7000     2.018812   -4.8651354    4896.8262            1 
    8000    1.9639939   -4.8418369    4910.9098            1 
    9000    1.9521308   -4.7750197    4883.8419            1 
   10000    1.9682331   -4.8349165    4923.8412            1 
   11000    1.9839205   -4.8660185    4870.2889            1 
   12000    1.9841969   -4.8686659     4902.723            1 
   13000     1.973825   -4.8233209    4878.0093            1 
   14000    1.9492593    -4.787235    4910.8302            2 
   15000    1.9471488   -4.8390645    4927.0696            1 
   16000    1.9679551   -4.7999349    4865.2071            2 
   17000    1.9664687   -4.8540433    4907.2239            2 
   18000    1.9335407   -4.8925434    4845.2084            3 
   19000    1.9967718   -4.8627106      4900.21       -1e+20 
   20000    2.0042841   -4.8280945    4922.2744            1 
   21000      1.95399   -4.8593706    4880.5006            3 
   22000    1.9919567   -4.8586381    4883.8707            1 
   23000    2.0081405   -4.9076457    4887.7979            1 
   24000    1.9319592   -4.8650052    4903.0172            1 
   25000    1.9895218   -4.8488001     4914.325            1 
   26000     2.005112   -4.8240943    4873.9149            2 
   27000    1.9461176   -4.8076182    4923.4494            1 
   28000    1.9480997   -4.8365388    4875.1409            1 
   29000    1.9786822   -4.8761034    4912.3468            2 
   30000    1.9509022   -4.8816198    4854.1055            2 
   31000     1.951501   -4.8670179    4885.6945            2 
   32000    2.0041315    -4.833529      4918.53            2 
   33000    1.9396343   -4.8402285    4900.3844            2 
   34000     1.992186    -4.860717    4858.7479            1 
   35000    1.9761406    -4.813656    4869.4057            1 
   36000    1.9775576   -4.8555789    4881.2672            1 
   37000    2.0164589   -4.8266217    4898.0205            1 
   38000    1.9721152   -4.8568451    4925.1767            1 
   39000    1.9484618   -4.8714283    4914.6286            1 
   40000    1.9623079    -4.838183    4905.8015            1 
   41000    1.9760083   -4.8576563    4900.3072       -1e+20 
   42000    2.0150376   -4.7984854    4915.5615            3 
   43000     1.964304   -4.8489608    4907.1657            2 
   44000    2.0427643   -4.8525356    4915.2658            1 
   45000    1.9305117   -4.8711159    4867.3442            1 
   46000    1.9688226   -4.8297087    4899.9239            2 
   47000    1.9888037   -4.8857532    4914.8365            1 
   48000    1.9729933   -4.8341191    4872.8836            1 
   49000     1.959662   -4.7853525    4914.6812            1 
   50000    2.0033386    -4.789668    4885.8846            2 
   51000    1.9595347   -4.7983951    4916.2557            1 
   52000    1.9959479   -4.8215414    4937.4854            1 
   53000    1.9741127      -4.8539    4889.7757            1 
   54000    1.9376187   -4.8094052    4889.5699            1 
   55000    1.9879251   -4.8724001    4867.9866            2 
   56000    1.9863271   -4.8516952    4862.4607            1 
   57000    1.8999022    -4.814902    4918.6381            1 
   58000    1.9388426   -4.8795585    4861.3725            1 
   59000    1.9533037   -4.8373647    4923.5021            2 
   60000    1.9652049   -4.8231648    4871.7818            1 
   61000    2.0070837   -4.8328263    4927.4576            1 
   62000    1.9678558   -4.8480874    4895.2121            2 
   63000    1.9718644   -4.8274696    4919.1997            1 
   64000    1.9795616   -4.8160214    4899.0059            1 
   65000    1.9951679   -4.8174606    4877.2975            1 
   66000    1.9127983   -4.8164802    4907.9048            2 
   67000    1.9965844   -4.8310193    4896.4035            1 
   68000    1.9673493   -4.7883058    4903.8979            1 
   69000    1.9937559   -4.7858244    4903.7657            1 
   70000    1.9561991   -4.8250269    4889.6608            2 
   71000    1.9895015   -4.8108234    4889.8192            1 
   72000    1.9365214   -4.8274852    4895.8587            1 
   73000    1.9791078   -4.8292236    4870.7548            1 
   74000    1.9221423   -4.8288813    4863.5049            1 
   75000    1.9781153    -4.846539    4894.1695            1 
   76000    2.0078433   -4.8324278    4885.1372            1 
   77000    1.9753908   -4.8151749    4943.8859            1 
   78000    1.9431404   -4.8451585    4880.9194            1 
   79000    1.9850202   -4.8254861    4907.2675            1 
   80000    1.9564396   -4.8454512    4915.4576            1 
   81000    2.0038273   -4.7841155    4933.8225            1 
   82000    1.9547043   -4.8460698    4901.6756            1 
   83000    1.9515612   -4.8173937    4874.0067            2 
   84000    1.9229054   -4.8302566    4901.7147            1 
   85000    2.0080677   -4.8575094    4871.6865            1 
   86000    1.9525718    -4.853422    4901.6391            1 
   87000    2.0340141   -4.8496165    4906.8907            1 
   88000    1.9755841   -4.8062056    4919.0698            1 
   89000    1.9070598   -4.7839628    4929.0315            2 
   90000    1.9722532   -4.8408877    4917.7788            1 
   91000    1.9525049   -4.8632627     4891.667            2 
   92000    1.9890005   -4.8386414    4898.5602            1 
   93000    1.9377039   -4.8216742    4894.9368            1 
   94000    1.9765933   -4.8615468    4900.1395            1 
   95000    1.9983334   -4.9266491    4884.8929       -1e+20 
   96000    1.9849331   -4.8466577    4891.6588            1 
   97000    1.9418069   -4.8458376    4906.9628            1 
   98000    1.9814803   -4.8475256    4925.0265            1 
   99000    1.9654522   -4.8056598    4908.4827            1 
  100000    1.9488034   -4.8012588    4873.1344            1 
  101000    1.9570708   -4.8516972     4895.585            1 
  102000    2.0161291   -4.8012772    4875.7853       -1e+20 
  103000    1.9600782   -4.8683658     4885.129            1 
  104000    2.0248904   -4.8620989    4894.5231            1 
  105000    1.9264296   -4.7892558    4906.7174            1 
  106000     1.925967   -4.7924178    4894.6208            1 
  107000    1.9930834   -4.8386829    4881.0682            1 
  108000    1.9790198   -4.8763887    4908.6895            2 
  109000    2.0257823   -4.8749005    4887.1585            1 
  110000    2.0087992   -4.8228047    4915.1941            1 
  111000    1.9424552   -4.8670797    4904.6696            1 
  112000    1.9639979   -4.8551238     4912.601            3 
  113000    1.9270977   -4.8741152    4898.2478            1 
  114000    1.9709158   -4.8515704    4894.7408            1 
  115000    2.0365811    -4.846172    4868.8606            2 
  116000    1.9286472   -4.8096304     4923.578       -1e+20 
  117000    1.9478587   -4.8363446    4914.4193            1 
  118000    1.9503898   -4.8267175    4931.3679            1 
  119000    1.9934775   -4.8362205    4910.4019            2 
  120000    1.9853446   -4.8412565    4871.5633            1 
  121000    1.9918213   -4.8018931    4928.2413       -1e+20 
  122000    1.9506759   -4.8402169    4920.4914            1 
  123000    1.9776743    -4.804107    4880.9773            1 
  124000    1.9439887   -4.8728344    4902.0333            1 
  125000    1.9624922   -4.8176573    4881.5471            1 
  126000    1.9973891   -4.8546911    4894.7517            2 
  127000     1.985512   -4.8049365    4905.7026            1 
  128000    1.9951739   -4.8415199    4918.8622       -1e+20 
  129000    1.8859883   -4.8183357    4900.2179            1 
  130000    1.9671494   -4.8237863    4912.2716            2 
  131000    1.9874127   -4.8896366    4867.6023       -1e+20 
  132000    1.9477103   -4.8568098    4866.0403            1 
  133000    2.0032975   -4.8413319    4888.4233            1 
  134000    2.0026592   -4.8863082    4906.2228            2 
  135000    1.9786477   -4.7925798    4897.9754            2 
  136000    1.9641937   -4.8720662    4881.9429       -1e+20 
  137000    2.0003392   -4.7889358    4916.1058            1 
  138000    1.9777931   -4.8305296     4902.253            1 
  139000     2.017915   -4.8266105    4870.2498            1 
  140000     1.979228   -4.8098566    4931.8588            1 
  141000    1.9355455   -4.8220205    4876.4036            1 
  142000    1.9973625   -4.8187659    4908.2484            1 
  143000    1.9560375   -4.8696349    4874.6344            1 
  144000    1.9523742   -4.8028515    4894.5997            1 
  145000    1.9839096    -4.835818     4897.294            1 
  146000    1.9389566   -4.8379921    4886.1849            1 
  147000    1.9543482    -4.826519     4907.109       -1e+20 
  148000    1.9331663   -4.8147513    4928.5114            1 
  149000    2.0054005    -4.913719    4883.4745            3 
  150000    1.9798156   -4.8904146    4876.8155       -1e+20 
  151000    1.9722175   -4.8605786    4914.5718            1 
  152000    2.0008622   -4.7957989    4902.9146            1 
  153000    1.9591407   -4.8451107    4917.5243            2 
  154000    1.9700124   -4.8655894    4878.9208            1 
  155000    1.9859382   -4.8305967    4891.8144            1 
  156000    2.0203852   -4.8375444     4919.595            1 
  157000     1.937743   -4.7984425    4928.7422       -1e+20 
  158000    1.9433191   -4.8246598    4932.8357       -1e+20 
  159000    1.9683385   -4.7994876     4926.992            1 
  160000    1.9824195   -4.8447276    4909.2938            1 
  161000      1.95979   -4.8885814    4880.5257            1 
  162000     1.939725   -4.8475836    4899.8569       -1e+20 
  163000    1.9405471   -4.8341892    4895.6506            1 
  164000      1.94746   -4.8579438    4900.1588       -1e+20 
  165000    1.9469479   -4.8437736    4900.3822            1 
  166000    1.9691798   -4.8074146    4924.7495            1 
  167000    1.9644861   -4.8833452     4906.286            1 
  168000    1.9508271   -4.8313753    4850.5665            1 
  169000    1.9197087   -4.8795553    4898.0154       -1e+20 
  170000    1.9573821   -4.7942683    4912.0632            1 
  171000    1.9960703   -4.8361478    4894.7932       -1e+20 
  172000    1.9527836    -4.788544     4884.197            1 
  173000    2.0116651   -4.8234985    4914.4522            1 
  174000    1.9986724    -4.833459    4902.4742            2 
  175000    1.9753445   -4.7856652    4895.7219            1 
  176000    2.0287728   -4.8575116    4916.2097            1 
  177000    1.9582072    -4.875333    4886.9569            1 
  178000    1.9271505   -4.8564739    4872.9898            2 
  179000    1.9873396   -4.7798274    4908.3512            1 
  180000    2.0115744    -4.876365    4912.5934            1 
  181000    2.0053751   -4.8129652    4866.5199       -1e+20 
  182000    1.9629746   -4.8165095    4873.5013       -1e+20 
  183000    1.9505928   -4.8966379    4868.3305            1 
  184000    1.9223657   -4.7908655    4888.1157            1 
  185000    2.0072009   -4.8683835    4876.3193            1 
  186000    1.9949265    -4.823981    4911.9387            1 
  187000    1.9475512   -4.8299854    4857.2305       -1e+20 
  188000    1.9224468    -4.822306    4899.4076            1 
  189000    1.9521175   -4.8219262    4890.1867            1 
  190000    1.9481374   -4.8683524    4879.2308            2 
  191000    1.9665095   -4.8640878    4882.8106            3 
  192000    1.9512425   -4.8421521    4871.8212            1 
  193000    1.9788495   -4.8284435     4891.792       -1e+20 
  194000     1.925398   -4.8321451    4904.4531            2 
  195000    1.9860833   -4.8565368     4887.705            1 
  196000    1.9218646   -4.7994931    4888.3751            1 
  197000    1.9873024   -4.8233352    4896.1423            1 
  198000    1.9781996   -4.8120125    4924.2876            1 
  199000    1.9676959   -4.8263734     4926.501            1 
  200000    1.9818155   -4.7897483    4897.7005            1 
  201000    1.9513378    -4.886204    4896.8352            1 
  202000    1.9987443    -4.854938    4899.9451            1 
  203000    1.9778061   -4.8092108     4915.475            1 
  204000    1.9457588    -4.831667     4925.541       -1e+20 
  205000    1.9367516   -4.8655892    4877.4584            1 
  206000    1.9655152   -4.8116568    4905.8605            1 
  207000     1.972388   -4.8138415    4894.5762       -1e+20 
  208000    2.0062894   -4.8424185    4900.4084            1 
  209000    1.9568769   -4.8247507    4900.2039            3 
  210000    1.9534783   -4.8292154     4907.153            2 
  211000    1.9519576   -4.8509562    4849.5004            1 
  212000    1.9021522   -4.8684484    4892.5856            1 
  213000    1.9353364   -4.9055085    4850.9642            1 
  214000     1.945354    -4.856962     4927.127            1 
  215000    1.9895701   -4.8149299    4907.0142            1 
  216000    1.9833262   -4.8287777    4895.8724       -1e+20 
  217000    1.9353128   -4.8201048    4894.1887            2 
  218000     1.994349   -4.8498774     4919.552            1 
  219000    1.9808838   -4.8505991    4901.2847            1 
  220000    1.9730481   -4.8327884    4887.5981            1 
  221000    1.9612678   -4.7787989    4911.2104            1 
  222000    1.9275722   -4.8136682    4910.3274            1 
  223000    1.9613802   -4.8659457    4867.1319            1 
  224000    1.9510236   -4.8385324    4878.0834            2 
  225000    1.9044936   -4.8748427    4880.9396            1 
  226000    1.9958639   -4.7832485    4894.8904            1 
  227000     1.961989   -4.8501499    4912.2416            1 
  228000    1.9637347    -4.854959    4882.2364            1 
  229000    1.9888231   -4.7834438    4890.4558            1 
  230000    1.9387163   -4.7949664    4914.7017            1 
  231000    1.9982729   -4.8627671    4887.4258            1 
  232000    1.9624533   -4.8154504    4896.3492       -1e+20 
  233000     1.993292   -4.8099059     4877.556            1 
  234000     1.938769   -4.8370272     4898.532            1 
  235000    1.9763044   -4.8569521    4916.6223       -1e+20 
  236000    1.9529291   -4.8089108    4879.1938            1 
  237000    1.9850927   -4.8330784    4887.9554            1 
  238000    1.9764406   -4.8238656    4931.8005            1 
  239000    1.9627307   -4.8311811    4886.5045            1 
  240000    1.9686691   -4.8495295    4899.0527            2 
  241000    1.9570202   -4.8851963    4848.6647            2 
  242000    1.9500294   -4.8207966    4902.9799            1 
  243000    1.9795719    -4.815203     4909.969            2 
  244000    1.9810174   -4.9046057    4894.5875            1 
  245000    1.9670419   -4.7745861    4903.6247            1 
  246000    1.9774175   -4.8598505    4906.9333            1 
  247000    1.9916072    -4.830531    4895.6358            2 
  248000    1.9942365   -4.8465463    4889.9969       -1e+20 
  249000    1.9632898   -4.8045451    4869.1287            1 
  250000    1.9901317   -4.8027395    4879.4463            1 
  251000    1.9694393   -4.8619291    4878.8224            1 
  252000    1.9519236   -4.8354786    4902.0649            1 
  253000    1.9214396   -4.8311472    4891.0813       -1e+20 
  254000    1.9553834   -4.8608713    4898.8038            1 
  255000    2.0080729   -4.8484333    4869.4413            1 
  256000     2.027872   -4.8827288    4879.6163            1 
  257000    2.0025122   -4.8416906     4923.006            3 
  258000    1.9461151   -4.8228378    4906.0688            1 
  259000    1.9445502   -4.8212017    4921.1908            1 
  260000    1.9811584   -4.8925587    4854.6632       -1e+20 
  261000    2.0103301   -4.7819447    4901.0817            1 
  262000    1.9683725   -4.8278843    4915.7849       -1e+20 
  263000    2.0093666   -4.8461796    4891.8707            1 
  264000    1.9879427   -4.8703921    4902.4203            1 
  265000    1.9615831   -4.8488363    4881.7585            1 
  266000    1.9546855   -4.8739241    4899.0222            2 
  267000    1.9441567   -4.8726608    4874.2969            1 
  268000    1.9501617   -4.8367587    4904.4213            1 
  269000    1.9797439    -4.834357    4917.0575            1 
  270000    1.9892444   -4.8274028    4899.6933            1 
  271000    1.9754464   -4.8065249    4927.0176            1 
  272000    1.9924983   -4.8523906    4906.5049            1 
  273000    1.9397603   -4.8410239    4874.6049            1 
  274000    1.9585044   -4.8697979    4875.6547            1 
  275000    1.9533211   -4.8401313    4908.7494            1 
  276000     1.987829   -4.7857088    4899.3905            1 
  277000    1.9925336   -4.8069377    4874.5365            1 
  278000    1.9698668   -4.8428303    4907.8936            1 
  279000    1.9411311   -4.8079216     4928.299            2 
  280000    1.9518998   -4.8316924     4909.811            1 
  281000    1.9784476   -4.8686025    4890.6569       -1e+20 
  282000    1.9777496    -4.805321    4900.9379            1 
  283000    1.9689728   -4.8407604    4891.6702            1 
  284000    1.9988654   -4.8323314    4883.3606       -1e+20 
  285000    1.9606734   -4.8699512    4896.8335            1 
  286000    1.9669877   -4.8284352    4894.5196            1 
  287000    1.9407548   -4.8539795    4899.6722            1 
  288000    1.9623057    -4.816189    4889.8072            1 
  289000    1.9425937   -4.8459513    4875.4661            1 
  290000    1.9683415   -4.8527698    4898.5944            1 
  291000    1.9778709   -4.8501568    4911.3621            1 
  292000    1.9808921   -4.8064226    4914.0024            1 
  293000    1.9971066   -4.8135189    4903.6706            1 
  294000     1.974416   -4.7753338    4887.6239            1 
  295000    1.9537988   -4.8200384    4883.8679            2 
  296000     1.968554   -4.8473301    4905.1007            2 
  297000    1.9730066   -4.7854949    4892.9539            3 
  298000    1.9775856   -4.8285171    4905.6038       -1e+20 
  299000    2.0080371   -4.8289923    4899.1397            1 
  300000    1.9483725    -4.833051       4915.4       -1e+20 
  301000    1.9881321     -4.83228    4895.7757            1 
  302000    1.9444302   -4.8285389    4908.0071            1 
  303000    1.9641246   -4.8468392      4933.79            1 
  304000    1.9817675   -4.8822694    4898.5045       -1e+20 
  305000    1.9664721   -4.8429117    4861.4399            1 
  306000    1.9642739   -4.8317015    4875.3117            1 
  307000    1.9550535   -4.8200002    4902.7032       -1e+20 
  308000    1.9780347   -4.8134124    4905.8704            1 
  309000    1.9862942   -4.8864281    4881.7919       -1e+20 
  310000    1.9699215   -4.8509766    4884.7163            2 
  311000    2.0127218   -4.8795822    4877.2055            1 
  312000    1.9781603   -4.7917794    4879.6951            1 
  313000    1.9837078   -4.8775839    4867.4372            2 
  314000    1.9766886   -4.8647963    4892.3869            1 
  315000    1.9181151   -4.8676292    4896.3028            1 
  316000     1.983288   -4.8057548    4893.1371       -1e+20 
  317000    1.9528298   -4.8539759     4885.296            1 
  318000     1.984206   -4.7764682    4905.0658            1 
  319000    1.9705847   -4.8248278    4910.8271            1 
  320000    1.9559437   -4.8471354    4919.9869            1 
  321000    2.0028431   -4.8437502    4899.6853            1 
  322000    1.9516382    -4.812274    4924.1503            2 
  323000    1.9866847   -4.8828251    4893.0817            1 
  324000    1.9819902   -4.8082266    4917.4559            1 
  325000    1.9515985    -4.820586    4909.1849            1 
  326000      1.93242   -4.8233276    4904.6163            1 
  327000    1.9729218   -4.8648621    4904.4201            2 
  328000    1.9329655   -4.8744884    4902.1109       -1e+20 
  329000    2.0138701   -4.8346747    4864.7656            5 
  330000    1.9874121   -4.7983067    4884.5009            1 
  331000    1.9728634   -4.8150292    4920.9903            1 
  332000    1.9660978   -4.8355586    4878.8104            3 
  333000    2.0109986    -4.817578    4902.7091            1 
  334000     1.979879    -4.838205    4904.4735            1 
  335000    1.9876177   -4.8197956    4902.3777            1 
  336000    1.9954879    -4.883385    4879.1548            1 
  337000    1.9698409   -4.8442031    4911.3014            2 
  338000    1.9973357   -4.8773461    4883.3551       -1e+20 
  339000    1.9950413   -4.7943466    4924.5775            2 
  340000    2.0194458   -4.7997852    4927.1417            1 
  341000    1.9854363   -4.8468891    4891.7887            1 
  342000    1.9649484   -4.7938322    4921.7371            1 
  343000    1.9112502   -4.8673334    4892.0938            1 
  344000    1.9828777   -4.9033954    4925.8522            2 
  345000    1.9780658     -4.82495    4923.8057            1 
  346000    1.9651427   -4.8294523    4881.4498            1 
  347000    1.9865097   -4.8037334    4885.4711            1 
  348000    1.9892128   -4.8344929    4883.6296            1 
  349000    1.9707147   -4.8070258    4911.5409            1 
  350000    1.9402679   -4.8415196     4900.199            1 
  351000    1.9907917   -4.8714887    4911.9807            2 
  352000    1.9999674   -4.7823555     4891.269            1 
  353000    1.9699583   -4.8010705    4879.3847            1 
  354000    1.9899636   -4.8037613    4893.7165            1 
  355000    1.9471806   -4.8053173    4921.4254            2 
  356000    1.9609553    -4.829356    4905.8101       -1e+20 
  357000    1.9895241    -4.807871    4907.2726            1 
  358000    1.9717458   -4.8628065    4907.7481            3 
  359000    1.9468489   -4.8743109    4889.7641            1 
  360000    1.9702399   -4.8278422    4920.2014            1 
  361000    1.9411105   -4.7639549    4966.1073            1 
  362000    1.9160946   -4.8051428    4876.1467            3 
  363000    1.9787865    -4.855135    4910.8763       -1e+20 
  364000    1.9395469   -4.8925923    4932.6038            3 
  365000    1.9926583   -4.8474111    4903.7625            1 
  366000    1.9794146   -4.8342784    4900.5167            1 
  367000     1.925506   -4.8181235    4921.3428       -1e+20 
  368000    1.9667868   -4.8372269    4899.9563            1 
  369000    1.9840176   -4.8325711     4923.423       -1e+20 
  370000    1.9791765    -4.842168    4873.7278            1 
  371000     1.979221   -4.8510341    4897.0624            2 
  372000    1.9701105   -4.8248001    4924.7421            2 
  373000     1.974218    -4.865125     4890.627            1 
  374000    2.0149582   -4.8282549    4912.7372            2 
  375000    1.9439749   -4.8103906    4902.6159            1 
  376000    1.9673485   -4.8220834    4906.4008            1 
  377000    1.9662348   -4.8440789    4911.4563            1 
  378000    1.9632588   -4.8726333    4841.1533            1 
  379000    1.9494872    -4.810613    4885.8633            2 
  380000    1.9872198    -4.785847    4930.6822            1 
  381000    1.9955228   -4.8579406    4900.0735            1 
  382000    1.9700705   -4.8216215    4895.2364            1 
  383000    1.9539224   -4.8640965    4860.9385            1 
  384000    1.9585779   -4.8388788    4915.7063            1 
  385000    1.9680105   -4.8363636    4898.6795            1 
  386000    1.9612005   -4.7864261    4905.7219            1 
  387000    1.9238256   -4.8181502    4878.7122            1 
  388000    1.9941253   -4.8341702    4900.5246            1 
  389000      1.94111   -4.8612191    4907.6702            1 
  390000     1.983434   -4.8161376    4896.5821            1 
  391000    1.9856833   -4.7907828    4890.4512            1 
  392000    1.9849189    -4.867659    4906.5907            1 
  393000     1.966028   -4.8387492    4860.3428       -1e+20 
  394000    1.9680414   -4.8591248    4907.2126            1 
  395000    1.9551649   -4.8308429    4910.0339            1 
  396000    1.9438126   -4.8316339    4904.7429            1 
  397000    1.9428296   -4.8832735    4886.1672            1 
  398000    1.9605593   -4.7873174    4906.9705            1 
  399000    1.9118222   -4.8656782    4869.3693            1 
  400000     1.933638   -4.8230319    4883.7415       -1e+20 
  401000     1.937733   -4.8244144     4900.427            1 
  402000    2.0074368   -4.8472192    4895.5531            1 
  403000    1.9751013   -4.7811098    4909.6975            1 
  404000    1.9831457   -4.7738891    4935.2772            1 
  405000    2.0020811   -4.8078084    4901.4865       -1e+20 
  406000    2.0206704   -4.7970896    4943.5015            1 
  407000    1.9731797   -4.8274064     4893.381            1 
  408000    1.9822296   -4.8309203    4907.4697            1 
  409000    1.9869491   -4.8126865    4906.2986       -1e+20 
  410000    1.9802123   -4.8654952    4912.6841            2 
  411000    1.9738549   -4.8447796    4899.8994            2 
  412000    1.9306079   -4.8293216    4893.4443            1 
  413000    1.9688884   -4.8441551    4897.9012            1 
  414000    1.9750056   -4.8016854    4930.0826            1 
  415000    1.9715766   -4.8854286    4904.4312       -1e+20 
  416000    1.9485697   -4.8536853    4902.9821            1 
  417000       1.9722   -4.8257979    4903.4758       -1e+20 
  418000    1.9130681   -4.8471688    4873.6295            3 
  419000    1.9548606   -4.8502557    4878.0046            1 
  420000    1.9707376   -4.8404188    4892.4646            1 
  421000    1.9483231   -4.8524902    4937.0114            1 
  422000    1.9860035   -4.8146327    4926.2483            1 
  423000    1.9053728   -4.7956077    4896.4418            1 
  424000     2.030358   -4.8202769    4884.2987       -1e+20 
  425000    1.9790547   -4.8289733    4879.7328       -1e+20 
  426000    1.9202787   -4.8179336    4908.7202            1 
  427000    1.9869765   -4.8221419    4920.9646            1 
  428000    1.9520799   -4.8103896    4924.7646            1 
  429000    1.9342388   -4.8085184    4904.3896            2 
  430000     1.944979   -4.8694576    4884.7314            1 
  431000    1.9775753   -4.8295667    4890.7549            1 
  432000    1.9827666   -4.8606703    4905.5965       -1e+20 
  433000    1.8876702     -4.84163    4910.9105            1 
  434000    1.9606774   -4.8129871    4911.3731            1 
  435000    1.9656333   -4.8935919    4891.7845       -1e+20 
  436000    1.9650524   -4.7928047     4898.064            2 
  437000     1.991665   -4.8646196    4911.4734            1 
  438000    1.9866748   -4.7975643    4926.8483            1 
  439000    1.9949233   -4.8455144     4899.992            1 
  440000    1.9667934   -4.8718922    4889.9377            1 
  441000    1.9868811   -4.8124509    4919.8592            2 
  442000    1.9462153   -4.8081059    4878.4385       -1e+20 
  443000    1.9651273   -4.8042408    4852.8254            1 
  444000    1.9813278   -4.8512223    4887.9099            2 
  445000    1.9570602   -4.8730411    4904.7893            1 
  446000    1.9551555   -4.8391145    4873.3988            1 
  447000    2.0051545   -4.7873274    4899.8915            1 
  448000    1.9387394   -4.8025403    4916.2207            1 
  449000    1.9745954    -4.856189      4896.63            1 
  450000    1.9925295   -4.8231197    4912.7134            1 
  451000    1.9557039   -4.8490598    4915.6565            1 
  452000     1.966596   -4.8351167    4908.4141            1 
  453000    1.9361273   -4.8342932    4880.2126            1 
  454000    2.0103087   -4.8358856     4929.954            1 
  455000    1.9616367   -4.8530056    4904.9443            1 
  456000    1.9853941   -4.8382112    4872.3268       -1e+20 
  457000     1.957151   -4.8543769    4897.9417            1 
  458000    1.9882518   -4.8771487    4879.6811            1 
  459000    1.9947471   -4.8453843    4895.1519            1 
  460000    1.9876066   -4.7902553    4886.6654            1 
  461000    1.9632469   -4.8087187    4904.1647            1 
  462000    1.9561073   -4.8504934     4877.147            2 
  463000    1.9644299   -4.8452044    4880.2129            1 
  464000    1.9715175   -4.8633685    4891.6517            2 
  465000    1.9841703   -4.8425138    4921.5179            1 
  466000     1.963909   -4.8092495    4908.1691            1 
  467000    1.9539455   -4.8680962    4859.4066            1 
  468000    1.9792755   -4.8881064    4868.4882            1 
  469000    1.9716486   -4.8276268    4939.7576            2 
  470000    1.9796158   -4.8140152    4914.2549            1 
  471000    1.9247147   -4.8402443    4902.7678       -1e+20 
  472000    1.9884395   -4.8100815    4925.7061            1 
  473000    1.9650015   -4.8401169    4896.7659            2 
  474000    1.9604898   -4.8576967    4904.5932            1 
  475000    1.9817855   -4.8901745      4870.93            1 
  476000    1.9794199   -4.8258697     4879.592            1 
  477000    1.9555628   -4.9058541    4898.0079       -1e+20 
  478000    1.9452483   -4.8578937    4901.7994            1 
  479000    1.9681646   -4.8702151    4911.0088            1 
  480000     1.980478   -4.8428414    4911.5365            1 
  481000    1.9474301   -4.8767786    4890.1678            2 
  482000    1.9919581   -4.8156283    4920.3139            1 
  483000    1.9835413   -4.8600956    4857.3255            1 
  484000    1.9632402   -4.8292642    4892.7047            2 
  485000    1.9656674   -4.7964823    4900.7591            2 
  486000    1.9463109   -4.7849239    4924.2704            1 
  487000    1.9505558    -4.876003    4909.0982       -1e+20 
  488000    2.0121632    -4.886426    4879.6124            1 
  489000    1.9923281   -4.8046844    4921.6283            1 
  490000    1.9409307   -4.8262987    4903.7546            2 
  491000    1.9743852   -4.8314954     4910.401            1 
  492000    1.9557926   -4.8494507    4869.4379            1 
  493000    1.9829058   -4.8191328    4909.7653            1 
  494000    1.9802737   -4.8468513    4888.9605            1 
  495000    1.9742127   -4.8303175     4880.534            1 
  496000    1.9893666    -4.815993    4928.8265       -1e+20 
  497000    1.9615871   -4.8718404    4885.0903       -1e+20 
  498000    1.9978739   -4.7996804    4915.2797            2 
  499000     1.957284   -4.8528572    4912.3657            1 
  500000    1.9863672   -4.8549825     4899.886            1 
  501000    1.9855365   -4.8529854    4896.0459            1 
  502000    1.9793782   -4.9199102    4842.6462            2 
  503000    1.9874768   -4.8517503    4893.9022            1 
  504000    1.9219529   -4.8107554    4885.8814            1 
  505000    1.9881469    -4.872494    4865.2704            1 
  506000    1.9757103    -4.753329    4905.2816            2 
  507000    1.9455572   -4.8175007    4899.1379            1 
  508000    2.0240008   -4.8647558    4884.6657            1 
  509000    2.0048953    -4.808517     4878.621            2 
  510000    1.9612014   -4.8552346    4869.9849            1 
  511000    1.9252123   -4.8105033     4961.556            1 
  512000    1.9838624   -4.7950655    4919.3455            1 
  513000    1.9542994   -4.8459572    4878.8701            1 
  514000    2.0108754   -4.8249805    4892.9682            2 
  515000    1.9447625   -4.8003092    4870.1571            2 
  516000     1.975679   -4.7984933    4886.3459            1 
  517000    1.9495549   -4.8264387      4900.43            1 
  518000    1.9861777   -4.8410656    4869.5536            1 
  519000    1.9761782   -4.8543346    4880.2509            2 
  520000    1.9426628   -4.8156509    4933.4728            1 
  521000    1.9343963   -4.8537534    4860.2992            2 
  522000    1.9597995   -4.8321178    4879.1904       -1e+20 
  523000    1.9609503   -4.8478663    4886.3373            1 
  524000    2.0172835    -4.849013    4885.9844            2 
  525000    1.9790642    -4.784793    4924.2847            2 
  526000    2.0030924   -4.8744973    4893.5974            1 
  527000    1.9572108   -4.8389613    4911.8299       -1e+20 
  528000    1.9650317   -4.8584938    4877.9726            1 
  529000    1.9929718   -4.8399737    4914.5376            1 
  530000    1.9792212   -4.8108854    4883.1853            1 
  531000    1.9663195   -4.8772767    4899.9182            2 
  532000    1.9390923   -4.8547843    4895.6969            1 
  533000     1.958953   -4.8602633    4881.8412            1 
  534000    1.9591093   -4.8374874     4901.977            1 
  535000     1.962142   -4.8256936    4887.8338            2 
  536000    1.9806516   -4.7974057    4878.3276            1 
  537000    1.9364391   -4.7966988     4899.281            1 
  538000     1.977758   -4.7995842    4906.1452            1 
  539000     2.051083   -4.7744761    4898.9805            2 
  540000    1.9290754   -4.8935139    4869.5002            1 
  541000    1.9671527   -4.8265445    4888.5209            1 
  542000    1.9542001   -4.8204062    4912.1886            1 
  543000     1.970642   -4.8763804    4879.4887            1 
  544000    2.0172616   -4.8218389    4897.1041            2 
  545000    1.9773577   -4.8461789    4899.8049            1 
  546000    1.9979312   -4.8302095    4897.7961            1 
  547000    1.9948443    -4.786476    4903.8941            2 
  548000    1.9917973    -4.866038    4901.9879            1 
  549000    1.9720564   -4.8655739    4867.2987            1 
  550000    1.9565563   -4.8370802    4879.6284            1 
  551000    1.9853166   -4.8727545      4870.03       -1e+20 
  552000    1.9557103   -4.8182896     4888.977            2 
  553000    1.9993156   -4.8204062    4886.8222            1 
  554000     1.960101   -4.8722138    4905.5678            1 
  555000    1.9813496   -4.8559193    4895.9677            2 
  556000    2.0237095   -4.7907985    4946.7965            1 
  557000    1.9527398   -4.8217923    4923.9446            1 
  558000    1.9618565   -4.8566878    4870.4463            1 
  559000    1.9521254   -4.8058545    4858.4224            1 
  560000    1.9771147   -4.8831362    4882.8758       -1e+20 
  561000    1.9754602   -4.8614185    4914.6916            1 
  562000    1.9497895    -4.865857    4903.0384            1 
  563000     1.969713   -4.8069831    4915.6543            1 
  564000    1.9651799   -4.8250003    4881.8592            1 
  565000    1.9573428   -4.8212993    4914.9525            1 
  566000      1.99029   -4.8247733    4869.0739            1 
  567000     1.934017   -4.8614711    4892.4733            1 
  568000    1.9354087   -4.8740736    4920.1906            1 
  569000    1.9997415    -4.822718    4910.1618            1 
  570000    1.9748131   -4.8003321    4906.9448            1 
  571000    1.9922236   -4.8436698    4882.9661            1 
  572000    2.0181011   -4.8337742    4894.5096            3 
  573000    1.9667814   -4.8368981    4901.1157            1 
  574000     1.974204   -4.8593206    4872.8844            1 
  575000    1.9643402    -4.842702    4914.5088            1 
  576000    1.9610487   -4.8492275    4897.4471            2 
  577000    1.9502573   -4.8510683    4884.5141            1 
  578000    1.9918288   -4.8302875    4891.8096            1 
  579000    1.9737171   -4.8130893    4913.9502            1 
  580000    1.9772286   -4.8122736    4900.0997            1 
  581000    2.0067363   -4.8945152    4869.4053            1 
  582000    1.9840015   -4.8317482    4902.7453            1 
  583000    1.9852908   -4.7809334    4913.0792            1 
  584000    1.9775809    -4.841804    4898.5504            1 
  585000    1.9770732   -4.8572677    4919.0824       -1e+20 
  586000     2.021539   -4.8533523    4909.4879            1 
  587000    1.9690381   -4.8605158    4939.5843            1 
  588000    1.9886643   -4.7984424    4946.8223            1 
  589000    1.9558734   -4.8518523    4924.6634            1 
  590000       1.9788   -4.8074415    4899.3313            1 
  591000    2.0010487    -4.835882    4918.4251            1 
  592000    1.9561835   -4.8272031    4900.1712            1 
  593000    1.9761974   -4.8575143    4900.6284       -1e+20 
  594000    1.9860771   -4.8341462    4879.2513       -1e+20 
  595000    1.9313495   -4.8532244    4892.9485       -1e+20 
  596000    1.9236706     -4.80205    4928.5917            1 
  597000    1.9380046   -4.8394394    4867.8705            1 
  598000    1.9796798   -4.8004698    4893.1519            1 
  599000    1.9999669   -4.8818315    4898.2716            1 
  600000    1.9693275   -4.8191331    4895.4628            2 
  601000    2.0013039   -4.8661543    4884.8479            1 
  602000    1.9801712   -4.8128003    4933.5497       -1e+20 
  603000    1.9500238   -4.7913868    4918.7942            2 
  604000    1.9685258   -4.8177587    4902.0037            1 
  605000    1.9872766   -4.8262234     4908.749            1 
  606000    1.9651725   -4.8544682    4895.7262            1 
  607000    1.9452595   -4.8494473    4888.4127       -1e+20 
  608000    1.9734032    -4.849031    4910.7283            1 
  609000    1.9678291   -4.8081669    4903.2337            1 
  610000    1.9879783   -4.8417761    4899.8861            1 
  611000    1.9422585   -4.8028791    4908.8545            1 
  612000      1.98202   -4.8471096    4862.9277       -1e+20 
  613000    1.9827075   -4.8422345    4932.0825            1 
  614000    1.9418823   -4.8622287    4894.4987            1 
  615000    1.9910295   -4.8597715    4889.2122            1 
  616000    1.9533349    -4.804843    4926.8233            2 
  617000    1.9771043   -4.8225837    4887.0216            1 
  618000    1.9630103    -4.849762    4890.2519            1 
  619000      2.01861   -4.8286274    4886.8972            1 
  620000    2.0025823   -4.8629323    4904.7653       -1e+20 
  621000    1.9326875   -4.8240064    4935.9488       -1e+20 
  622000    1.9697806   -4.8156428    4890.6047       -1e+20 
  623000    1.9873947   -4.8145299    4883.0494            1 
  624000    1.9547268   -4.8669223     4899.272            1 
  625000    2.0089715   -4.8012516    4902.7607            1 
  626000    1.9644079   -4.8805529    4888.3154            1 
  627000    1.9828111   -4.7904058    4879.7107            1 
  628000    1.9569641   -4.8802846    4902.8383            1 
  629000    1.9885169   -4.8254677    4889.4335            1 
  630000    1.9861026   -4.8798596    4909.8574            1 
  631000     1.961481   -4.8669722    4875.2037       -1e+20 
  632000    1.9326141   -4.8751545    4892.7664            1 
  633000    1.9669638   -4.8013716    4894.8952            1 
  634000    1.9695935   -4.8440261    4854.8671            3 
  635000    1.9665704   -4.8167844    4905.8506            2 
  636000    1.9733557   -4.8435631    4910.5772            1 
  637000    1.9300308   -4.8545901    4893.3056            1 
  638000    2.0224299   -4.8409721    4896.5107            1 
  639000     1.989549   -4.8088277    4897.1155            1 
  640000    1.9535757   -4.8406658    4904.6544            1 
  641000     1.954329   -4.8238347    4913.5334            1 
  642000    1.9601282   -4.8015314     4905.377            1 
  643000    1.9565872   -4.8496934    4905.5227            1 
  644000    1.9489098   -4.8475533    4905.2131       -1e+20 
  645000    1.9037413   -4.7927452    4886.7316            1 
  646000    1.9399513   -4.8331645    4893.3717            1 
  647000    1.9333992    -4.857837    4886.4971            1 
  648000    1.9926523   -4.7913505    4895.2499            1 
  649000    1.9798426   -4.8277583    4894.7312            1 
  650000    2.0223711   -4.8024928     4909.012            1 
  651000    1.9652601   -4.8384139    4902.2989            1 
  652000    1.9480052   -4.8130679    4881.0435            1 
  653000     1.931431   -4.8333496    4926.0998            1 
  654000    1.9694061   -4.8750173    4906.5259            1 
  655000    1.9662229   -4.8407651    4925.4873            1 
  656000    2.0004932   -4.8061296    4882.0929            1 
  657000    1.9127819   -4.8322353    4918.1582            2 
  658000    1.9551784   -4.8957592    4869.4369       -1e+20 
  659000    1.9803597   -4.8795277    4862.8084            1 
  660000    1.9593858   -4.8238502    4903.9518            1 
  661000     1.951237    -4.839913    4914.0473            1 
  662000    1.9739215   -4.8450623    4864.9531            1 
  663000    1.9293914   -4.8228981    4885.9496            1 
  664000    1.9466848   -4.8808231     4884.151            2 
  665000    1.9706787   -4.8027515    4894.9614       -1e+20 
  666000    1.9388449   -4.8466525    4924.8164            1 
  667000     2.018485   -4.8454546    4876.4079            1 
  668000    1.9941347   -4.7635522    4936.5296       -1e+20 
  669000    1.9945515   -4.8212454    4897.0014            1 
  670000    1.9599849   -4.8307033    4888.6317            1 
  671000    1.9957332   -4.8414775    4879.6967            2 
  672000    1.9419667   -4.8569133     4894.186            1 
  673000    1.9471657   -4.7982534    4927.8201            1 
  674000    1.9650215   -4.8366069    4892.8755            1 
  675000    1.9921173   -4.8629038    4867.9707            1 
  676000    1.9798462   -4.8193894    4936.7598            1 
  677000    1.9680578   -4.8007454     4914.307            2 
  678000    1.9682412   -4.8637425    4872.0298            1 
  679000    1.9725346   -4.8588965     4886.225            1 
  680000    1.9729882   -4.8382617     4923.088            1 
  681000    1.9500947   -4.8595613    4877.3511       -1e+20 
  682000    1.9967817    -4.829628    4909.7499            2 
  683000    1.9626336   -4.7810453    4925.7796            1 
  684000     1.996895    -4.874345    4864.4195       -1e+20 
  685000    2.0024932   -4.8902596    4892.9213            2 
  686000    1.9687945   -4.8130973    4921.4567            1 
  687000    1.9816129   -4.8363109    4891.0091            3 
  688000    1.9539501   -4.8430657     4914.076            1 
  689000    1.9653823   -4.8632858    4862.5063       -1e+20 
  690000    1.9750081   -4.8555258    4931.0015            1 
  691000    1.9674757   -4.8371987    4883.9229            1 
  692000    1.9315056   -4.8380195    4886.9974       -1e+20 
  693000    1.9655779   -4.7450504    4959.9684            1 
  694000    1.9715424   -4.8545771    4881.5659            1 
  695000    1.9798477   -4.8461389    4902.0784            1 
  696000    1.9584568   -4.9009208    4876.6626            1 
  697000    1.9598105   -4.8113286    4880.1651            1 
  698000    1.9859141   -4.8329033     4899.518            1 
  699000    1.9331792   -4.8198769     4918.918            1 
  700000    1.9692036   -4.8281351     4897.905            1 
  701000    1.9787797   -4.8444687    4875.1738            1 
  702000    1.9861932   -4.8203406    4892.0089            1 
  703000    1.9834039   -4.8232566    4902.8319            1 
  704000    1.9669702   -4.8566998    4899.9107            1 
  705000    1.9996675    -4.852325    4898.9949            1 
  706000    1.9602745   -4.7855488     4924.289            1 
  707000    1.9834053     -4.85125    4862.2049            1 
  708000    1.9361645   -4.8210983    4906.7244            1 
  709000    1.9325091   -4.8422812    4890.6735            1 
  710000     1.928706    -4.823088    4889.1272            2 
  711000    1.9526154   -4.8560866     4867.112            1 
  712000    1.9577536   -4.8329689    4924.3478       -1e+20 
  713000    1.9691724   -4.8390501      4888.24       -1e+20 
  714000    1.9371661   -4.8368816    4894.6235            1 
  715000    1.9746667   -4.8861208    4865.1131            2 
  716000    1.9681001   -4.8432453    4901.6252            1 
  717000    1.9738523   -4.8025006    4893.6002            1 
  718000    1.9611367   -4.8258043    4851.9699            1 
  719000    1.9762738   -4.8804602    4853.4295            1 
  720000    1.9468983    -4.850856    4885.5522            1 
  721000    1.9872977   -4.8347489    4930.2707            1 
  722000    1.9907687   -4.8047076    4908.6991            1 
  723000    2.0107441   -4.8937524    4884.2818            1 
  724000     1.960291   -4.7781731    4878.9397       -1e+20 
  725000    1.9017047   -4.8285292    4954.0032            1 
  726000    1.9729679   -4.8308566    4891.7325       -1e+20 
  727000    1.9423126   -4.8517556    4896.5885            3 
  728000    2.0083864   -4.8594128    4891.5747            2 
  729000    1.9430184   -4.7675664    4950.0513            1 
  730000     1.983351   -4.8151072    4928.9348            2 
  731000    1.9824571   -4.8305152    4877.4906            2 
  732000    1.9928945   -4.7929095    4922.6058            1 
  733000    1.9898955   -4.8344505    4908.1308            1 
  734000    1.9732265   -4.8196301    4896.4003            1 
  735000    1.9787649   -4.8381124    4894.2308            1 
  736000    1.9478641   -4.8181031     4893.665            1 
  737000    1.9654916   -4.7712115    4892.5087            1 
  738000    1.9523984   -4.8724275    4913.5147            1 
  739000    1.9660573   -4.8040428    4890.4749            1 
  740000    1.9481414   -4.8147061    4895.9499       -1e+20 
  741000    1.9559264   -4.8497659    4899.2643            1 
  742000    1.9654629   -4.8534623    4910.1505            1 
  743000    1.9532215   -4.8792278    4876.2152            2 
  744000    1.9706036   -4.8206213    4863.6122            1 
  745000    1.9624328   -4.8600627    4890.3366            1 
  746000    1.9552953    -4.852647     4921.037            1 
  747000    1.9768222   -4.8061854    4891.4807            1 
  748000    1.9632877   -4.8732732    4893.0534            1 
  749000    1.9472161   -4.8232359    4880.6254            1 
  750000    1.9943707   -4.7625521    4909.1885            1 
  751000     1.959719   -4.8153828    4914.5025       -1e+20 
  752000    1.9900324   -4.8678647    4889.5966            1 
  753000    1.9878752   -4.7929999    4900.8587            1 
  754000     1.975069   -4.8297717    4923.2404            1 
  755000    1.9837183   -4.7967366     4900.136            1 
  756000    1.9936226   -4.8685558    4892.1896            2 
  757000    1.9551684   -4.8895513    4896.4612            1 
  758000      1.97909   -4.8770391     4893.304            1 
  759000    1.9852224    -4.840654    4877.1971            1 
  760000     1.991772   -4.8511667    4873.1286            1 
  761000    1.9740481    -4.837356    4892.1609            1 
  762000    1.9957732   -4.8487314    4871.0621            1 
  763000    1.9782317   -4.8014241    4923.8597            1 
  764000    1.9793893   -4.8483216    4858.1521            1 
  765000    1.9812392   -4.7910173    4881.8528            1 
  766000     1.985563   -4.8706468    4873.4582            1 
  767000    1.9668216   -4.8185817    4896.4241            1 
  768000    2.0113246   -4.8193622    4896.4741            1 
  769000    1.9452345   -4.8301659    4930.9059            1 
  770000    1.9994979   -4.8286132    4917.1747            1 
  771000    1.9620546   -4.8069492    4899.6693            1 
  772000    1.9503384   -4.8362184    4878.1801            2 
  773000    1.9593504   -4.8206846    4905.0712       -1e+20 
  774000    1.9577923   -4.8304335    4926.1882            1 
  775000    1.9614451   -4.8805598    4919.2778            3 
  776000    1.9562552   -4.8266062    4894.2077            1 
  777000    1.9809726   -4.8991447    4900.2992            1 
  778000    1.9867803   -4.8483038    4883.9534            1 
  779000    1.9894584   -4.8379485    4890.3642            1 
  780000    1.9849159   -4.8701396    4862.8107       -1e+20 
  781000    1.9718318   -4.8390653    4894.2836            1 
  782000    1.9431369   -4.8293997    4939.0588            1 
  783000    1.9708446   -4.8471983    4901.6151            2 
  784000     1.961465   -4.8430052    4905.2321            1 
  785000     1.973328   -4.8536185    4872.2823            1 
  786000    1.9356397   -4.8864998    4899.8344            2 
  787000     1.988507   -4.8235408    4905.6186            1 
  788000    1.9967878    -4.826203    4922.6556       -1e+20 
  789000    1.9668197   -4.8150787    4929.8542            1 
  790000    1.9852975   -4.8586473    4916.4528            1 
  791000    1.9610311   -4.8049506    4890.4174            1 
  792000    1.9791199   -4.8328947    4923.5589            1 
  793000    2.0298367   -4.8273893    4870.3239            2 
  794000    1.9690081   -4.8422759    4886.4413            1 
  795000    1.9718546   -4.8744308     4888.523            4 
  796000    1.9343319   -4.8625461    4885.1171       -1e+20 
  797000    1.9859381   -4.8159974    4925.1123            1 
  798000    1.9752286   -4.8503637    4862.4524            4 
  799000    2.0073017   -4.8366203    4915.8616            1 
  800000    1.9495228   -4.8230302    4905.0424            1 
  801000     1.955417   -4.8749084    4863.9777            1 
  802000    1.9639403   -4.8242927    4900.6009            1 
  803000    1.9375338    -4.865319    4895.1587            1 
  804000    1.9471556    -4.840449    4919.4452            1 
  805000    1.9628653   -4.8122172    4902.4773            1 
  806000    1.9850588   -4.8706301      4864.34            1 
  807000    1.9844889   -4.9080657    4846.9097            1 
  808000    1.9619629   -4.8512739    4877.3002            1 
  809000     1.962292   -4.8348644    4937.6902            1 
  810000    1.9724618    -4.817054    4886.4573            1 
  811000    2.0213657   -4.8044604    4947.3392            1 
  812000    2.0061369    -4.819398    4919.8786            1 
  813000    1.9744343   -4.8444095    4905.1272            1 
  814000    1.9610053   -4.8330269    4893.1813            1 
  815000    2.0030991   -4.8341379    4847.6605            2 
  816000    1.9484795   -4.7971069    4925.3225            1 
  817000    1.9352041   -4.8061485    4918.8731            1 
  818000    1.9971707   -4.8500593    4884.7517            1 
  819000    1.9813208   -4.8363686     4926.409            2 
  820000    2.0012104    -4.883951    4899.6857            1 
  821000    1.9503146   -4.7790039    4892.0801       -1e+20 
  822000    1.9490365   -4.8042539    4886.9966            2 
  823000    1.9458346   -4.8475798    4896.2104            1 
  824000    1.9733179   -4.8478105    4895.2442            1 
  825000    1.9898837   -4.8715707    4896.7625            1 
  826000    2.0057384   -4.7830445     4931.939            1 
  827000    2.0146393   -4.8546317    4880.1103            1 
  828000     1.911697   -4.8453014    4897.3121            1 
  829000    1.9816187   -4.8399966    4868.0348            1 
  830000    1.9674536   -4.7863572     4902.711            1 
  831000    1.9658492   -4.8034965    4884.8196            1 
  832000     1.992663   -4.9062095    4890.2569       -1e+20 
  833000    1.9242215   -4.8392804    4880.7261            1 
  834000    2.0012242   -4.8505026    4914.6287            3 
  835000    1.9908301   -4.8522604    4873.4654            1 
  836000    1.9834475   -4.8817629     4918.126            1 
  837000    1.9506293   -4.8531218    4920.2045       -1e+20 
  838000    1.9784522   -4.8278996    4895.4602            1 
  839000    1.9806246    -4.877551    4906.2923            1 
  840000     1.978349   -4.8210474    4909.3511            1 
  841000    1.9513614   -4.8459023    4898.2189       -1e+20 
  842000    2.0218095   -4.8848776    4875.1896       -1e+20 
  843000    2.0017386   -4.8474843    4906.6121            1 
  844000    1.9665261   -4.8048038    4888.1067            2 
  845000    1.9426375   -4.8547139    4876.8088            2 
  846000    1.9631287   -4.8177825    4880.1869       -1e+20 
  847000    1.9612563   -4.8118098    4909.8502            2 
  848000     1.906711   -4.8081706    4874.9349            1 
  849000    1.9729702   -4.8233058    4868.2805            1 
  850000    1.9532728   -4.8520031    4897.3405            1 
  851000    1.9943819   -4.8514201    4918.6788       -1e+20 
  852000    1.9985184   -4.8246736    4904.2868       -1e+20 
  853000    1.9887541   -4.8395497    4857.1752            1 
  854000    1.9790703   -4.8249347    4905.2035            1 
  855000    1.9707184   -4.8446369    4874.3772            1 
  856000    1.9023891    -4.835058    4891.9443            1 
  857000    1.9765136   -4.8029254    4880.9444            3 
  858000    1.9593102   -4.8328234    4885.4853            1 
  859000    1.9690018   -4.9099588    4885.6412            1 
  860000    1.9632371   -4.8352029    4926.0924            1 
  861000    2.0129489   -4.7841089     4919.554            1 
  862000    2.0332884   -4.8139577    4876.2177            1 
  863000    2.0199879   -4.7943868    4916.7007            1 
  864000    1.9465659   -4.8771954    4866.3783            1 
  865000    1.9440488   -4.8345738    4889.4708            1 
  866000    1.9474464   -4.8426213    4892.2544            1 
  867000    1.9932788   -4.8389902    4901.5287            1 
  868000    1.9907773    -4.844099    4904.2909            1 
  869000    1.9641757   -4.8204805     4854.584            1 
  870000    1.9280192   -4.8271174    4900.5533            1 
  871000    1.9686881   -4.8129867    4913.0361            1 
  872000    1.9832692   -4.8055832    4872.2203       -1e+20 
  873000    1.9739043   -4.8087065    4908.9198            1 
  874000    1.9422925   -4.8422891    4891.6826       -1e+20 
  875000    1.9734394   -4.8061548    4911.8991            1 
  876000    2.0133905   -4.8102345    4879.7094            1 
  877000    1.9903607   -4.8415867     4890.717            1 
  878000    1.9132279   -4.8825321    4890.4626            1 
  879000    1.9631596   -4.8611118    4890.5438            2 
  880000    1.9515402   -4.8122405    4920.5367            1 
  881000    1.9896958   -4.8810863    4847.3096            1 
  882000    1.9386579   -4.8261019    4924.9821            1 
  883000    1.9970678   -4.8289816    4899.0519            1 
  884000    2.0187992   -4.8946691    4893.1238            1 
  885000    1.9718455   -4.7988067    4878.9794            1 
  886000    1.9271792   -4.8382768    4890.3847            2 
  887000    1.9637321   -4.8466691    4910.0156            2 
  888000    1.9545334   -4.8291554    4880.6096       -1e+20 
  889000    1.9979331   -4.7979649     4894.151            1 
  890000    1.9380756    -4.834518    4894.9642            2 
  891000    1.9744635   -4.8656821    4879.5762            1 
  892000    1.9610579   -4.8872352    4895.8363       -1e+20 
  893000    1.9379931   -4.8132639    4904.0744            2 
  894000    2.0104088   -4.7788451    4949.1841            1 
  895000     1.987924   -4.8229979    4899.7058            1 
  896000    1.9544499    -4.815423    4902.8659       -1e+20 
  897000    1.9727925   -4.8462683    4887.5599            1 
  898000    1.9782656    -4.838247    4909.8223            1 
  899000    1.9463896   -4.8602075    4908.2049            1 
  900000    1.9650967   -4.8439153    4901.7826            1 
  901000    1.9753343   -4.8400857    4906.1746       -1e+20 
  902000    1.9633124   -4.8238142    4909.6788            1 
  903000     1.976325   -4.8272379    4917.3629            1 
  904000    1.9903923   -4.8421542    4910.1791            1 
  905000    1.9233192   -4.8173339    4916.4312            1 
  906000    1.9632993   -4.8347377    4899.2529            1 
  907000    1.9511435   -4.8155643    4924.8059            1 
  908000    1.9564563   -4.8106859    4915.7318            1 
  909000    1.9922394   -4.7385131    4979.7048            1 
  910000    2.0120462   -4.8603605    4921.3456            1 
  911000     1.983849   -4.8203104    4874.2306            1 
  912000    1.9341658   -4.8492891    4903.8781       -1e+20 
  913000    1.9730538   -4.7993519     4878.478            3 
  914000    1.9611359   -4.8667618     4881.345            1 
  915000    1.9351975   -4.7820727    4904.9637            1 
  916000    1.9819166   -4.8308225    4927.3566            1 
  917000    1.9244079   -4.8615103    4879.3926            1 
  918000    1.9706593   -4.8706859    4897.9658            1 
  919000     1.987753   -4.7971586    4896.6509            1 
  920000    1.9745965   -4.8602634    4896.8456            1 
  921000    1.9583495   -4.7974384    4910.1055            1 
  922000    1.9380067   -4.8681102    4896.9347            1 
  923000     1.987103   -4.8140769    4884.0541            1 
  924000    1.9715982   -4.8492028    4906.6682            1 
  925000    1.9886565   -4.8877203    4908.3556            1 
  926000      1.99512   -4.8812081    4882.0763            1 
  927000    1.9376495   -4.8309201    4880.7873            1 
  928000    1.9884004   -4.8972599    4889.2393            1 
  929000    1.9530932   -4.8671668    4831.4602            2 
  930000    1.9731947   -4.8801185    4880.4763            1 
  931000    1.9365662   -4.8540659    4863.7349            1 
  932000    1.9794693   -4.8399281    4912.5445            1 
  933000    1.9472097   -4.8074736    4931.3871            1 
  934000    1.9779429   -4.8902301    4880.5223       -1e+20 
  935000    1.9436341    -4.865247    4903.2893            1 
  936000    1.9863348   -4.8083079    4898.2578       -1e+20 
  937000    1.9907748   -4.8702171    4873.0569            1 
  938000    1.9248595   -4.8320781     4865.958            1 
  939000    1.9631641   -4.8597817    4862.1075            2 
  940000    1.9491694   -4.8909727     4878.502            1 
  941000    2.0039435    -4.828608    4911.2052       -1e+20 
  942000    1.9805916   -4.7888754     4914.226            1 
  943000    1.9938059   -4.8343905     4918.748            1 
  944000    2.0303688   -4.8582867    4897.0684            1 
  945000    1.9616189   -4.8787881    4896.8042            1 
  946000    1.9440665   -4.8271841    4896.5958            1 
  947000    1.9650043   -4.8457431     4910.913       -1e+20 
  948000    1.9475588   -4.7888781    4931.7855            1 
  949000    1.9638908   -4.8304642    4910.0656            1 
  950000     1.984539   -4.8788369    4885.3487            1 
  951000    1.9844163   -4.8422471    4917.1733            1 
  952000     1.930084   -4.8389765    4909.8259            1 
  953000    2.0054967   -4.8485829    4877.4287       -1e+20 
  954000    1.9935782   -4.8281234    4931.3233            1 
  955000    1.9620228   -4.8198167    4886.5427            1 
  956000    1.9485174   -4.8738563    4872.0454            1 
  957000    1.9436528   -4.8441282    4901.3956            2 
  958000    1.9766629   -4.8481257    4900.6387            1 
  959000    1.9814886   -4.8304534    4896.3771            1 
  960000    1.9651271   -4.8233284    4909.7529            1 
  961000    1.9642852   -4.8425288    4936.3277            1 
  962000    1.9207377   -4.8044375     4882.421            1 
  963000    1.9291194   -4.8496381    4867.1859            1 
  964000    1.9616159   -4.8119934    4906.7793            1 
  965000    1.9590664   -4.8593667    4927.9772            2 
  966000    1.9894998   -4.8865605    4874.2949            2 
  967000    2.0072875   -4.8101115    4874.7628            1 
  968000    1.9742324   -4.7971478    4919.9473            1 
  969000    1.9994953   -4.8335553    4902.4715            3 
  970000    1.9947877   -4.8215798    4916.6081       -1e+20 
  971000    1.9286741   -4.8687189    4888.2333            2 
  972000    1.9499824    -4.835244    4890.1734            1 
  973000    1.9769919   -4.8336131    4898.7549            2 
  974000    1.9575313   -4.8254953    4886.3855            1 
  975000    1.9901911   -4.8247491    4917.1549            1 
  976000    2.0031341   -4.8365421    4912.9729       -1e+20 
  977000    1.9646296   -4.7997027    4907.7112            1 
  978000    1.9577031   -4.8171685    4919.9712            2 
  979000    2.0079137   -4.8489227    4893.1583            1 
  980000    1.9643708    -4.883054    4869.0803            1 
  981000    1.9276539   -4.8314812    4918.6169       -1e+20 
  982000    1.9793708   -4.8135232    4925.5924            1 
  983000    1.9611538   -4.8623539    4882.3932            1 
  984000    1.9344347   -4.8362796    4919.5404            1 
  985000    2.0084906   -4.8332874    4901.9036            1 
  986000    1.9943233   -4.8049589    4900.3971            1 
  987000    1.9898577   -4.8106516    4910.3281       -1e+20 
  988000    2.0016222   -4.8247091    4902.8518            1 
  989000    1.9571413   -4.7999627    4928.7075       -1e+20 
  990000    1.9673646   -4.8468222    4892.2585            1 
  991000    1.9573899   -4.8473225    4874.5261            1 
  992000    1.9053343   -4.8375381    4886.0894            1 
  993000    1.9671778   -4.8291257     4918.786            1 
  994000    2.0014919   -4.8071367    4907.0633            1 
  995000    1.9269489   -4.8184291    4903.7978            1 
  996000    1.9111561   -4.8341061     4882.569            1 
  997000    1.9890675   -4.8118054    4903.7759            2 
  998000    1.9716262   -4.8549662    4923.5233            1 
  999000    1.9437752   -4.8321014    4910.4979       -1e+20 
 1000000    1.9405681   -4.8446218    4894.7962            1 
 1001000    1.9825905   -4.8656514     4908.813            1 
 1002000    1.9940201   -4.8763049    4871.1697       -1e+20 
 1003000    1.9674024   -4.8121295    4879.2215            1 
 1004000    1.9516985    -4.821483    4880.3034       -1e+20 
Loop time of 2007.07 on 48 procs for 1000000 steps with 4000 atoms

Performance: 86095.510 tau/day, 498.238 timesteps/s
99.4% CPU use with 48 MPI tasks x no OpenMP threads

MPI task timing breakdown:
Section |  min time  |  avg time  |  max time  |%varavg| %total
---------------------------------------------------------------
Pair    | 102.39     | 110.87     | 117.32     |  34.5 |  5.52
Neigh   | 19.922     | 20.348     | 21.741     |   7.1 |  1.01
Comm    | 111.94     | 117.78     | 132.15     |  38.1 |  5.87
Output  | 1.2085     | 1.2092     | 1.2256     |   0.2 |  0.06
Modify  | 1734.8     | 1745       | 1753.3     |  10.1 | 86.94
Other   |            | 11.87      |            |       |  0.59

Nlocal:        83.3333 ave          91 max          75 min
Histogram: 2 3 3 7 3 11 9 4 5 1
Nghost:        1441.42 ave        1461 max        1424 min
Histogram: 1 5 8 5 9 6 7 4 1 2
Neighs:        7795.88 ave        8568 max        6906 min
Histogram: 3 1 2 6 9 4 13 6 1 3
FullNghs:      15591.8 ave       16955 max       13887 min
Histogram: 2 3 3 5 5 9 7 6 5 3

Total # of neighbors = 748408
Ave neighs/atom = 187.10200
Neighbor list builds = 82871
Dangerous builds = 2432

#clear
#
#next RN
#
#jump SELF
Total wall time: 0:33:28
