
units lj                  # Use reduced LJ style units
atom_style atomic         # Uncharged point particles
atom_modify map hash      # Needed for indexing of clusters etc
                          # Used to be able to find where atoms are in relation to each other.

# Define a lattice with which to populate the simulation cell. With units
# set to 'lj' the second argument to the lattice command is the reduced
# density rho* and the spacings are multiples of that required to acheive
# that density. Also define a simulation cell called 'box' in lattice units
# and fill it with atoms. Here we're creating a box which is ten lattice
# constants in each direction.
lattice fcc 1.0 spacing 1 1 1                 # All equal sizes - gives the right reduced density.
Lattice spacing in x,y,z = 1.5874011 1.5874011 1.5874011

region box block 0 10 0 10 0 10 units lattice # Defines a region, "box", in lattice units
create_box 1 box                              # Creates a simulation box as specified above,
Created orthogonal box = (0.0000000 0.0000000 0.0000000) to (15.874011 15.874011 15.874011)
  2 by 4 by 4 MPI processor grid
                                              # with one type of atom
create_atoms 1 box                            # Creates particles on lattice points
Created 4000 atoms
  using lattice units in orthogonal box = (0.0000000 0.0000000 0.0000000) to (15.874011 15.874011 15.874011)
  create_atoms CPU = 0.002 seconds


# Set the mass of the first (and only) atom type.
mass 1 1.0

# Lennard-Jones interactions between particles, 3.5 sigma cut-off. Apply
# long range tail corrections to energy and pressure and set all coefficients
# to unity since we work in reduced units here. Note that this doesn't shift
# the potential such that it goes to zero at the cutoff. That would require
# pair_modify('shift', 'yes').
pair_style lj/cut  3.5      # non-GPU version
pair_modify tail  yes
pair_coeff 1  1  1.0  1.0   # Intearaction between 1 and 1 set with epsilon = 1 and sigma = 1

write_data data.*
System init for write_data ...
Neighbor list info ...
  update every 1 steps, delay 10 steps, check yes
  max neighbors/atom: 2000, page size: 100000
  master list distance cutoff = 3.8
  ghost atom cutoff = 3.8
  binsize = 1.9, bins = 9 9 9
  1 neighbor lists, perpetual/occasional/extra = 1 0 0
  (1) pair lj/cut, perpetual
      attributes: half, newton on
      pair build: half/bin/atomonly/newton
      stencil: half/bin/3d
      bin: standard

#############################
#   M E L T   S Y S T E M   #
#############################

velocity all create 2.4 2750902 mom yes dist gaussian # Assign velocities
                                                    # Temperature 2.4, random number seed, zero linear momentum
						                                                        # Gaussian distribution

timestep 0.002   # simulation timestep
thermo 100       # output thermodynamic data every 100 steps

# Define a fix  in this case with index 1 applied to all
# particles in the simulation. This fix is for simulations
# in the anisotropic NPT ensemble. Note that we use the MTK
# correction.
fix 1 all npt temp 2.4 2.4 0.1 iso 5.68 5.68 0.5 mtk yes tchain 5 pchain 5 # Use NPT ensemble
                                                                         # Set temperature and pressure and damping
                                                                         # Numbers of thermostats in chain and in barostat
run 1000         # run for 10000 steps
Per MPI rank memory allocation (min/avg/max) = 3.660 | 3.660 | 3.660 Mbytes
Step Temp E_pair E_mol TotEng Press Volume 
       0          2.4   -8.3859253            0   -4.7868253   -2.2405722         4000 
     100    1.2608475   -6.5235855            0   -4.6327871    5.4038563    4091.0951 
     200    1.4674745   -6.2960149            0   -4.0953535    6.0843453    4138.9956 
     300    1.5811347   -6.0195196            0   -3.6484105    5.8230308      4272.98 
     400    1.6903552   -5.7119813            0   -3.1770823    5.9377022    4398.4635 
     500    1.7989246   -5.4338299            0   -2.7361176    5.7946904    4546.9323 
     600    1.9022797   -5.1497661            0   -2.2970598    5.8333119    4691.4311 
     700    2.0414959   -4.9561197            0   -1.8946415    5.6184351    4842.6632 
     800    2.1308362   -4.7068196            0   -1.5113644    5.7371792    4975.4569 
     900    2.2803533   -4.5781415            0   -1.1584666    5.7093427    5072.7544 
    1000    2.3672823   -4.4702836            0  -0.92024792    5.6050301    5163.6463 
Loop time of 0.262004 on 32 procs for 1000 steps with 4000 atoms

Performance: 659532.977 tau/day, 3816.742 timesteps/s
99.4% CPU use with 32 MPI tasks x no OpenMP threads

MPI task timing breakdown:
Section |  min time  |  avg time  |  max time  |%varavg| %total
---------------------------------------------------------------
Pair    | 0.13307    | 0.13984    | 0.15108    |   1.1 | 53.37
Neigh   | 0.026385   | 0.027442   | 0.029051   |   0.4 | 10.47
Comm    | 0.060346   | 0.071668   | 0.079198   |   1.7 | 27.35
Output  | 0.00020921 | 0.00021311 | 0.00026919 |   0.0 |  0.08
Modify  | 0.017437   | 0.020967   | 0.024612   |   1.5 |  8.00
Other   |            | 0.001874   |            |       |  0.72

Nlocal:        125.000 ave         135 max         113 min
Histogram: 1 0 2 4 3 13 2 2 3 2
Nghost:        1662.72 ave        1680 max        1643 min
Histogram: 2 1 2 2 6 6 7 2 3 1
Neighs:        11066.0 ave       11928 max       10173 min
Histogram: 2 2 2 5 6 5 4 0 1 5

Total # of neighbors = 354112
Ave neighs/atom = 88.528000
Neighbor list builds = 89
Dangerous builds = 32

# Equilibrate just above the melting temperature to avoid step fn in T

fix 1 all npt temp 1.25 1.25 0.1 iso 5.68 5.68 0.5 mtk yes tchain 5 pchain 5
run 1000
Per MPI rank memory allocation (min/avg/max) = 3.661 | 3.661 | 3.661 Mbytes
Step Temp E_pair E_mol TotEng Press Volume 
    1000    2.3672823   -4.4702836            0  -0.92024792    5.6050301    5163.6463 
    1100    1.9569734    -4.706111            0   -1.7713848    5.4657034    5011.4174 
    1200    1.7262382   -4.9667701            0   -2.3780602    5.5966981    4817.3008 
    1300     1.587552    -5.220701            0   -2.8399684    5.6758355    4663.7229 
    1400    1.4738799   -5.4342144            0   -3.2239472    5.4755949    4569.2977 
    1500    1.3534378   -5.5295528            0   -3.4999037    5.6215529    4496.5144 
    1600    1.2908728   -5.6315259            0   -3.6957007    5.7257345     4433.469 
    1700    1.2788408   -5.7494795            0   -3.8316978    5.6735232     4386.563 
    1800     1.254965   -5.8228809            0   -3.9409041    5.4759615    4370.1173 
    1900     1.226926   -5.8280252            0   -3.9880963    5.6657418    4349.5824 
    2000    1.2829323   -5.8566878            0   -3.9327705    5.6371083    4341.9677 
Loop time of 0.25042 on 32 procs for 1000 steps with 4000 atoms

Performance: 690041.458 tau/day, 3993.295 timesteps/s
99.7% CPU use with 32 MPI tasks x no OpenMP threads

MPI task timing breakdown:
Section |  min time  |  avg time  |  max time  |%varavg| %total
---------------------------------------------------------------
Pair    | 0.1319     | 0.13794    | 0.14829    |   0.8 | 55.08
Neigh   | 0.022323   | 0.023168   | 0.024282   |   0.3 |  9.25
Comm    | 0.055894   | 0.067161   | 0.073611   |   1.3 | 26.82
Output  | 0.00020311 | 0.00020615 | 0.00025749 |   0.0 |  0.08
Modify  | 0.01763    | 0.019711   | 0.02304    |   1.0 |  7.87
Other   |            | 0.002231   |            |       |  0.89

Nlocal:        125.000 ave         131 max         119 min
Histogram: 2 3 5 2 4 4 3 2 3 4
Nghost:        1848.94 ave        1863 max        1828 min
Histogram: 1 0 1 1 3 11 7 3 2 3
Neighs:        13168.5 ave       13949 max       12671 min
Histogram: 5 6 5 1 3 2 3 4 1 2

Total # of neighbors = 421393
Ave neighs/atom = 105.34825
Neighbor list builds = 75
Dangerous builds = 6


# Small amount of linear quench

fix 1 all npt temp 1.25 ${temp} 0.1 iso 5.68 5.68 0.5 mtk yes tchain 5 pchain 5
fix 1 all npt temp 1.25 2 0.1 iso 5.68 5.68 0.5 mtk yes tchain 5 pchain 5
run 2000
Per MPI rank memory allocation (min/avg/max) = 3.661 | 3.662 | 3.662 Mbytes
Step Temp E_pair E_mol TotEng Press Volume 
    2000    1.2829323   -5.8566878            0   -3.9327705    5.6371083    4341.9677 
    2100    1.2479516   -5.8440715            0    -3.972612    5.6929665    4341.7172 
    2200    1.2936781   -5.8251584            0   -3.8851264    5.4742205    4371.9534 
    2300    1.3437108   -5.7790223            0     -3.76396    5.7126559    4373.6508 
    2400    1.3541843   -5.7099651            0   -3.6791965    5.7092055    4403.6888 
    2500    1.4112852   -5.6476738            0   -3.5312753    5.9440102    4413.7979 
    2600    1.4180213   -5.5815119            0   -3.4550118    5.6559882    4473.2878 
    2700    1.4654649   -5.5538184            0   -3.3561706    5.3565636    4515.1816 
    2800    1.4911656   -5.4826012            0   -3.2464119    5.4328671    4544.5473 
    2900     1.528668   -5.4013874            0   -3.1089587    5.6975138     4560.592 
    3000    1.5966737   -5.3516134            0   -2.9572016    5.8372847    4575.9476 
    3100    1.6211634     -5.29653            0   -2.8653929    5.6799848    4620.1718 
    3200    1.6665397   -5.2682384            0   -2.7690538    5.4585653    4665.2859 
    3300    1.6969862   -5.2117797            0   -2.6669367    5.5967544    4683.1242 
    3400    1.7548428   -5.1535234            0   -2.5219173    5.7859515    4692.2598 
    3500    1.7726745   -5.0947022            0   -2.4363552    5.5508215    4748.4769 
    3600    1.8098346   -5.0459854            0   -2.3319121    5.5955299    4779.6301 
    3700     1.884378    -5.028692            0   -2.2028317    5.6585556    4781.7934 
    3800    1.8795923   -4.9451665            0   -2.1264829     5.732918    4820.5891 
    3900    1.9259742   -4.8871876            0   -1.9989486    5.7397973     4859.594 
    4000    1.9886693   -4.8531189            0   -1.8708607    5.8072981     4870.288 
Loop time of 0.502094 on 32 procs for 2000 steps with 4000 atoms

Performance: 688318.007 tau/day, 3983.322 timesteps/s
99.7% CPU use with 32 MPI tasks x no OpenMP threads

MPI task timing breakdown:
Section |  min time  |  avg time  |  max time  |%varavg| %total
---------------------------------------------------------------
Pair    | 0.26753    | 0.27469    | 0.28889    |   0.9 | 54.71
Neigh   | 0.045561   | 0.04658    | 0.048134   |   0.3 |  9.28
Comm    | 0.11829    | 0.13558    | 0.1443     |   1.6 | 27.00
Output  | 0.00039446 | 0.00040134 | 0.00050805 |   0.0 |  0.08
Modify  | 0.037127   | 0.04022    | 0.044576   |   1.2 |  8.01
Other   |            | 0.00462    |            |       |  0.92

Nlocal:        125.000 ave         131 max         119 min
Histogram: 4 1 1 3 6 6 3 3 2 3
Nghost:        1726.59 ave        1741 max        1714 min
Histogram: 3 2 6 2 5 3 2 4 4 1
Neighs:        11726.0 ave       12405 max       10934 min
Histogram: 1 0 4 5 5 5 5 2 2 3

Total # of neighbors = 375233
Ave neighs/atom = 93.808250
Neighbor list builds = 149
Dangerous builds = 0

#############################
# F R E E Z E  S Y S T E M  #
#############################

# Define solid atoms. This closely follows ten Wolde  Ruiz-Montero and Frenkel  Faraday Discuss  1996  104  93-110
# Compute components of the per-atom q6 vector
compute q6 all orientorder/atom degrees 1 6 components 6 nnn NULL cutoff 1.3 # compute the Q6 parameter.
                                                                             # Use all neighbours within 1.3 unit cell.

# get number of connections
compute coord_number all coord/atom orientorder q6 0.5

# An atom is solid if it has 8 or more connections (of a possible 14)
variable is_solid atom c_coord_number>=8
group solid dynamic all var is_solid    # Must be dynamic to update
dynamic group solid defined

# do clustering
compute cluster solid cluster/atom 1.3 # Create a cluster where all atoms within are solid and max 1.3 units from another member

# define chunks one chunk per cluster
compute clus_chunks solid chunk/atom c_cluster nchunk every compress yes  # Says which atoms are in which chunk

# count the size of each chunk
compute size_chunks solid property/chunk clus_chunks count


# Find the maximum entry in the vector of chunk sizes
variable max_n equal max(c_size_chunks)


# Thermo style which includes this variable
thermo_style custom step temp pe vol v_max_n

thermo ${N}  # Print the thermo information every 100 steps
thermo 100  

# Reset the npt fix at a lower temperature (below freezing)
fix 1  all npt temp  ${temp} ${temp}  0.1  iso  5.68  5.68  0.5  mtk yes tchain  5  pchain  5
fix 1  all npt temp  2 ${temp}  0.1  iso  5.68  5.68  0.5  mtk yes tchain  5  pchain  5
fix 1  all npt temp  2 2  0.1  iso  5.68  5.68  0.5  mtk yes tchain  5  pchain  5

dump dmp2 all dcd ${N} traj_${rand}.dcd
dump dmp2 all dcd 100 traj_${rand}.dcd
dump dmp2 all dcd 100 traj_462431.dcd


# fix rnuntil all halt ${N} v_max_n >= 3980 error soft message no   # Stop when solidified


run 100000 # 5000000  # Run for this many steps
Neighbor list info ...
  update every 1 steps, delay 10 steps, check yes
  max neighbors/atom: 2000, page size: 100000
  master list distance cutoff = 3.8
  ghost atom cutoff = 3.8
  binsize = 1.9, bins = 9 9 9
  4 neighbor lists, perpetual/occasional/extra = 1 3 0
  (1) pair lj/cut, perpetual
      attributes: half, newton on
      pair build: half/bin/atomonly/newton
      stencil: half/bin/3d
      bin: standard
  (2) compute orientorder/atom, occasional
      attributes: full, newton on
      pair build: full/bin/atomonly
      stencil: full/bin/3d
      bin: standard
  (3) compute coord/atom, occasional
      attributes: full, newton on
      pair build: full/bin/atomonly
      stencil: full/bin/3d
      bin: standard
  (4) compute cluster/atom, occasional
      attributes: full, newton on
      pair build: full/bin/atomonly
      stencil: full/bin/3d
      bin: standard
Per MPI rank memory allocation (min/avg/max) = 9.393 | 9.398 | 9.402 Mbytes
Step Temp PotEng Volume v_max_n 
    4000    1.9886693   -4.8531189     4870.288            1 
    4100    2.0413415   -4.8634251    4910.3047            1 
    4200    1.9832357   -4.8116935    4924.0059            1 
    4300    1.9965202    -4.816359    4890.8142            1 
    4400    2.0078999   -4.7928877    4912.0711            1 
    4500    1.9830443   -4.7881369    4956.8594            1 
    4600    1.9861586   -4.8045015    4875.7659            2 
    4700    2.0300563   -4.8332387    4902.5179            1 
    4800    1.9765498   -4.8182263    4950.6055            1 
    4900    2.0458563   -4.8126985    4909.7946       -1e+20 
    5000    1.9935176   -4.7995126    4913.8389            1 
    5100    1.9993698   -4.8124006    4921.0817       -1e+20 
    5200    2.0288347   -4.8148937    4928.1617            2 
    5300    1.9665689   -4.7666307    4938.2052            1 
    5400    2.0203179   -4.7800433    4899.7627            1 
    5500     1.982755   -4.8158212    4900.1641            1 
    5600    2.0084922    -4.832714     4933.011            1 
    5700    2.0274471   -4.8064297    4919.1582       -1e+20 
    5800    1.9667572    -4.783909    4920.9921       -1e+20 
    5900    2.0127268   -4.7945171    4911.8661            1 
    6000    1.9824439   -4.8286075    4924.8069            1 
    6100    2.0173541   -4.8007426    4914.0626            1 
    6200    2.0056729   -4.7876831     4926.888            1 
    6300    1.9772933   -4.7976835    4933.1614            1 
    6400    2.0323994   -4.8096766    4928.6542            1 
    6500    2.0156467    -4.833757    4933.7208            3 
    6600    1.9802148   -4.8497008    4901.4559       -1e+20 
    6700     1.984179   -4.7967605    4878.8981            2 
    6800    2.0011935   -4.7871775    4922.2747            1 
    6900    1.9713189   -4.7855004    4954.0428            2 
    7000    2.0463366   -4.7820572    4912.2188            2 
    7100    1.9822721   -4.8118731     4944.907            1 
    7200    1.9603889   -4.7978588    4921.9256       -1e+20 
    7300    2.0377864    -4.783579     4911.944            2 
    7400     2.000432   -4.8195401    4921.8594            1 
    7500    1.9689157   -4.8048504    4921.6338       -1e+20 
    7600    2.0524395   -4.7923004    4922.4284            1 
    7700    2.0025092   -4.7994032    4929.5961            1 
    7800    1.9731579   -4.8214009    4930.8658            1 
    7900    2.0303943   -4.8012308    4902.6799            2 
    8000    1.9588638   -4.7948135    4922.2059       -1e+20 
    8100     2.006199    -4.811659    4894.7083       -1e+20 
    8200    2.0198047   -4.7916127    4939.7143            1 
    8300    1.9936924   -4.7739075    4937.6804            1 
    8400     1.973869      -4.7706    4906.4911            1 
    8500    2.0361747   -4.7990328    4924.4403            1 
    8600    2.0132374   -4.7906971    4959.6654       -1e+20 
    8700    2.0276505    -4.822202     4912.275            1 
    8800    1.9700787   -4.8580639    4917.6331            1 
    8900    2.0240558   -4.8281403    4894.8898            1 
    9000    2.0269796   -4.7675516    4924.4936            1 
    9100    1.9767755   -4.8364037    4947.3195            2 
    9200    2.0253892   -4.8439368    4884.3303            1 
    9300    1.9863619   -4.8286338    4913.6207            1 
    9400    2.0013407   -4.8166845    4926.4143            1 
    9500    1.9693716   -4.7739062     4916.155            1 
    9600    2.0339314   -4.7890126    4938.1155            1 
    9700    2.0035312   -4.7995269    4939.7801       -1e+20 
    9800    1.9765735   -4.7893108    4923.2816       -1e+20 
    9900    2.0419325    -4.791521    4927.8243            1 
   10000    1.9640627   -4.7534664    4942.4429            1 
   10100    1.9766228   -4.7776365    4911.8149            1 
   10200    2.0375822    -4.777863    4925.0224       -1e+20 
   10300    1.9667616   -4.7640252    4948.0835            1 
   10400    1.9866249   -4.8365361    4883.0318            1 
   10500    1.9855732   -4.8029219    4912.3636            1 
   10600    2.0134498   -4.8260579    4915.8935            1 
   10700    1.9924306   -4.8530749     4896.565            1 
   10800    2.0029479   -4.7993628    4940.0475            1 
   10900    2.0001339    -4.769638    4913.8622            1 
   11000    1.9852623   -4.8196225    4900.0362            1 
   11100    1.9798552   -4.8123694    4910.4602            1 
   11200    2.0212366   -4.8375462    4901.6339       -1e+20 
   11300    2.0207616   -4.7977554    4934.9187            1 
   11400    1.9616165   -4.7681259    4923.3245            1 
   11500    2.0128587   -4.7865835    4896.0836            1 
   11600    1.9535338   -4.8293788     4940.412            1 
   11700    2.0296329   -4.8202484    4928.0199            1 
   11800    1.9964427   -4.8066111    4907.1762       -1e+20 
   11900    1.9870267   -4.8252942     4923.167       -1e+20 
   12000    2.0319914   -4.8171918     4937.282       -1e+20 
   12100    2.0045219   -4.7790862    4912.5679            1 
   12200    1.9727772   -4.8337331    4897.6958       -1e+20 
   12300    1.9985384   -4.7852161    4927.2024            2 
   12400    2.0187764   -4.7610658    4935.5091            1 
   12500    1.9633572   -4.7623418    4927.8034            1 
   12600    2.0193781   -4.8495913    4920.4973            1 
   12700    2.0198852   -4.7812938    4924.9217            1 
   12800    1.9756602   -4.7932877    4892.0856            1 
   12900     1.999436   -4.7791511    4940.2125            1 
   13000    2.0022879   -4.7683706    4935.6576       -1e+20 
   13100    1.9637669   -4.7950597    4902.1054       -1e+20 
   13200    2.0086632   -4.7943092    4935.5986            2 
   13300    1.9965759   -4.7682791    4919.7248            1 
   13400     1.971117   -4.7840558    4916.1229       -1e+20 
   13500    2.0110918   -4.7798019    4949.4628            1 
   13600     1.992463   -4.7942539    4936.5194            2 
   13700     2.047634   -4.7528796    4926.0901            1 
   13800    1.9826151   -4.7343463    4947.6482            1 
   13900    1.9888136   -4.7796979     4930.623            1 
   14000     2.023705   -4.7754473    4929.1517            2 
   14100    2.0030017    -4.789228    4957.5636       -1e+20 
   14200    2.0043463   -4.8025382    4923.7799            2 
   14300    1.9778237   -4.7865336    4886.0322            2 
   14400    1.9813153   -4.7793539    4950.6635            1 
   14500    1.9955934     -4.78619     4925.486            1 
   14600    2.0247999   -4.7962985    4923.0715            1 
   14700    1.9622495   -4.7768025    4920.4102            1 
   14800     2.028134   -4.8087801     4912.334            1 
   14900    1.9605773   -4.8270685    4922.3621            1 
   15000    2.0597764    -4.828417    4903.1109       -1e+20 
   15100    1.9866058   -4.7787268    4930.7789            1 
   15200    1.9906375    -4.772665    4933.0814            1 
   15300     2.024792   -4.7596803    4918.2656            1 
   15400    1.9669586   -4.7927437    4922.3413            2 
   15500    1.9829541   -4.7676464    4915.8131            1 
   15600    2.0003874    -4.806688    4919.1453            1 
   15700    2.0293285   -4.8204678    4953.5018            1 
   15800     1.983136   -4.8226142    4915.5283            2 
   15900    2.0011942   -4.8076541    4904.2062            1 
   16000    1.9925962   -4.7878966    4931.8394       -1e+20 
   16100    1.9952449   -4.8463953    4925.3929            1 
   16200    1.9870463   -4.8792365    4879.1435            1 
   16300    2.0040633    -4.869942    4881.7104            1 
   16400    1.9826424     -4.84923    4907.0553            1 
   16500    1.9961726   -4.7714273    4908.7484            1 
   16600    2.0168661    -4.837283    4910.8928            1 
   16700    1.9597322   -4.8229911    4910.7342            2 
   16800    2.0218235   -4.8217644    4916.5454       -1e+20 
   16900    1.9970505   -4.8089923    4916.4555            1 
   17000    2.0142047   -4.7812179    4934.7834            1 
   17100    1.9993619     -4.76708    4920.1127            1 
   17200    2.0020506   -4.8421576     4913.068            1 
   17300    2.0290261   -4.7760605    4943.7104            1 
   17400    1.9893719   -4.7145661    4937.5422            1 
   17500    2.0018128   -4.7789037    4956.5171            1 
   17600    2.0141709   -4.8146296     4923.318            1 
   17700    2.0056291    -4.851792     4887.428            1 
   17800    1.9860495   -4.8051822     4923.778       -1e+20 
   17900     1.998423   -4.8003013    4928.1416            1 
   18000    2.0293465   -4.7462597    4938.9436       -1e+20 
   18100     2.006532   -4.8003465    4933.2295            1 
   18200    2.0282896   -4.8539793    4918.6376            2 
   18300    1.9771998   -4.8511259    4907.3456            1 
   18400    2.0263362   -4.8081021    4918.4508       -1e+20 
   18500    2.0201094   -4.8459685     4935.946            1 
   18600    1.9777358   -4.8407709    4913.6947            1 
   18700    2.0219901   -4.7960213    4915.2105            3 
   18800    2.0008296   -4.7665224    4912.2458            1 
   18900    1.9669745   -4.8202996     4894.826            2 
   19000    1.9986851   -4.8354695    4892.3974       -1e+20 
   19100    2.0164013   -4.7814927    4945.7464            1 
   19200    2.0007214    -4.762786    4939.0326            1 
   19300    2.0071404   -4.8455853    4894.2693            1 
   19400    1.9794037   -4.8214602    4909.1583       -1e+20 
   19500     2.032936   -4.8077882    4929.9324            2 
   19600      2.00777    -4.801253    4908.1014            1 
   19700    2.0010914   -4.8460772    4905.9988            1 
   19800    1.9546364   -4.8033469    4894.7765       -1e+20 
   19900     2.024341   -4.7770629    4876.3864            1 
   20000    1.9467104   -4.7919489    4939.7192            1 
   20100    2.0282134   -4.7927442    4925.4075            2 
   20200    2.0114428   -4.7636028    4909.4916            2 
   20300    1.9592686   -4.7843355    4947.6911            1 
   20400     2.023237   -4.7807115    4924.5041            1 
   20500    1.9806152   -4.7837214    4917.5189            1 
   20600    2.0440692   -4.8303118    4948.7674       -1e+20 
   20700    2.0046534   -4.8363611    4917.3234            1 
   20800    1.9775959   -4.7897066    4902.2416            1 
   20900    1.9942806   -4.7370192    4953.0975            1 
   21000     2.021337   -4.7960841    4919.9258            1 
   21100    2.0161404   -4.8580105    4886.2127            1 
   21200    1.9576635   -4.7946966    4916.2532            1 
   21300    2.0254278   -4.8265096    4923.8714            3 
   21400    1.9610642   -4.7986396    4910.1012            1 
   21500    2.0027721   -4.7468363    4910.9819            1 
   21600    1.9924238   -4.7656267    4938.0715            2 
   21700    1.9854619   -4.8569046    4925.6849       -1e+20 
   21800    2.0228935   -4.8252746    4881.6265            1 
   21900    1.9866629   -4.8327428    4901.2503            1 
   22000    2.0067065   -4.8382561    4952.6321            1 
   22100    2.0371332   -4.7563871    4922.1516            1 
   22200    1.9984909   -4.7593835    4936.9154            1 
   22300    1.9706317    -4.775828    4940.6282       -1e+20 
   22400    1.9947685   -4.8057852    4879.7351       -1e+20 
   22500    1.9997024   -4.8114325    4919.0404            1 
   22600    1.9779255   -4.7816808      4954.91       -1e+20 
   22700    2.0521203   -4.7814447    4919.7192       -1e+20 
   22800    1.9841103   -4.7969297    4928.8261            1 
   22900    2.0007926   -4.8507991     4900.605            1 
   23000    2.0171851   -4.8037685    4917.5235            1 
   23100    1.9854378   -4.8339352    4930.6848       -1e+20 
   23200    2.0631884   -4.8113527    4914.3325            1 
   23300    1.9645601   -4.7917912    4920.2056            1 
   23400    1.9973839   -4.8091287    4929.3743            2 
   23500    2.0376626   -4.7414272    4933.0234            1 
   23600    1.9607781   -4.7268985    4949.5452       -1e+20 
   23700    1.9854999   -4.7628234    4924.2091            2 
   23800    1.9832514   -4.8254421    4900.5373            1 
   23900    1.9825939   -4.8489908    4924.7385            1 
   24000    2.0116124    -4.762234    4941.0782            1 
   24100     2.021695   -4.7574035    4944.2379       -1e+20 
   24200    1.9804198   -4.8049418    4931.0906            1 
   24300    2.0122577   -4.8199441    4919.9607            1 
   24400    2.0493759   -4.7862274     4929.516            2 
   24500    1.9816236    -4.789002    4916.5991            1 
   24600    2.0121895    -4.819053     4932.681            1 
   24700    2.0105174   -4.7428661    4967.5186       -1e+20 
   24800    2.0217764   -4.7990778    4922.8644       -1e+20 
   24900    2.0034735   -4.8140548    4917.9005       -1e+20 
   25000    2.0249838   -4.8011434    4947.1581            2 
   25100    1.9981091    -4.760846    4938.8893            1 
   25200    2.0127104   -4.8173282    4917.3396            1 
   25300    1.9786232   -4.8704886    4899.6183            1 
   25400    1.9610348   -4.7842563    4943.1892            1 
   25500    2.0356813   -4.7641884    4902.9331            1 
   25600    1.9653465   -4.7876071    4934.3986            1 
   25700    2.0065546   -4.8016145     4935.398            1 
   25800    1.9965517   -4.7376517    4922.0079            1 
   25900     2.030694   -4.8084559    4940.3893            2 
   26000    1.9938043   -4.8226299    4890.4391       -1e+20 
   26100    1.9920022   -4.7948784    4892.7596            2 
   26200    2.0104403   -4.7761006    4962.9885            1 
   26300    2.0164429   -4.7339475    4942.3571       -1e+20 
   26400    1.9797731   -4.7524128    4914.6681       -1e+20 
   26500    1.9583537   -4.8569605    4927.2558            1 
   26600    2.0163335   -4.7864228    4899.6392            1 
   26700    2.0417182   -4.8319443    4926.4614            1 
   26800    1.9558872   -4.8412222    4941.6707            1 
   26900    1.9932884   -4.8037276    4901.8084            1 
   27000    2.0014885   -4.7722168    4910.5761            1 
   27100    1.9849986   -4.7724595    4932.9658            1 
   27200    2.0457993   -4.8529317    4916.6615            1 
   27300    1.9500583   -4.8303054    4929.3405            1 
   27400    2.0330914   -4.8020636    4886.5671       -1e+20 
   27500    1.9471462   -4.7892618    4910.9241            2 
   27600    2.0330266   -4.8273101    4944.2653            2 
   27700     2.022875   -4.8601972    4884.8651            1 
   27800    2.0061785   -4.8506068    4896.5558            1 
   27900    1.9974418   -4.8277554    4915.8412            1 
   28000    1.9954744   -4.8451645    4886.5378            1 
   28100    2.0025235   -4.8160667    4922.1132            1 
   28200    2.0044037   -4.8097174    4923.3132            1 
   28300    2.0316004   -4.7657759    4929.0212            1 
   28400     1.968487   -4.7896713    4932.3584            1 
   28500    1.9887694   -4.7856154    4931.5188       -1e+20 
   28600    2.0223624   -4.7282033    4940.3898            1 
   28700    1.9498752   -4.7349194    4955.4978       -1e+20 
   28800    1.9888317   -4.7680656    4934.1697            2 
   28900     2.048056   -4.7458192    4947.7513            1 
   29000    2.0091496   -4.7874977    4932.0905            1 
   29100    1.9897841   -4.8410789    4929.5928            1 
   29200    2.0365844   -4.7732959    4921.2217            2 
   29300    2.0046519   -4.7738457    4949.4578            1 
   29400    1.9746064   -4.8064012    4921.1113            1 
   29500    2.0065639   -4.8131444    4899.5892            1 
   29600    2.0084927   -4.7483958    4952.4909            1 
   29700    2.0160258   -4.7973913    4944.1068            1 
   29800     2.005677   -4.7733628     4932.903            1 
   29900    1.9872682   -4.7864119    4948.4745            1 
   30000    1.9714229   -4.7720309    4890.2023            1 
   30100    2.0012617   -4.8187566    4884.5521       -1e+20 
   30200    1.9810454   -4.7766418    4959.8167            1 
   30300    2.0453798   -4.7914963    4934.6628            1 
   30400    2.0102969   -4.8059334    4935.8428            1 
   30500    1.9870342   -4.8312922    4924.1318            1 
   30600    2.0165308   -4.7982376    4907.6515            1 
   30700    1.9870527   -4.7679939     4927.992            1 
   30800    1.9910019   -4.8516916    4883.3043            1 
   30900    2.0226776   -4.8426832    4900.1671            1 
   31000    1.9737207   -4.8630875    4924.8923            1 
   31100    2.0105744    -4.890649    4862.2342            1 
   31200    1.9873433   -4.8102106    4875.1851       -1e+20 
   31300    2.0013585   -4.8349263    4940.0114            1 
   31400    2.0036385   -4.7941388    4929.6916            1 
   31500     1.975973    -4.761298    4901.8516            1 
   31600    1.9998627   -4.7847529    4956.5535            1 
   31700    2.0095663    -4.823879    4912.4419            2 
   31800    2.0059541   -4.8357024    4879.8209       -1e+20 
   31900    1.9928882   -4.8138606    4918.4732            2 
   32000    1.9795995   -4.7721509    4942.8357            1 
   32100    2.0734777   -4.8303671    4923.1898            1 
   32200    1.9803514   -4.8208375    4944.1482            1 
   32300    2.0221804    -4.822242    4896.1788            1 
   32400    1.9697007   -4.7920868     4889.255            1 
   32500    1.9946338   -4.8150326    4940.6449            1 
   32600    2.0157677   -4.7961698    4906.5837            1 
   32700    1.9734551   -4.7772843    4944.5584            1 
   32800    2.0160626   -4.7988015    4920.4007            1 
   32900    2.0056727   -4.7830829    4919.8698            1 
   33000    2.0334704   -4.7802989    4960.2139            1 
   33100    2.0288039   -4.7920254    4914.6178            1 
   33200     1.990573   -4.8165823    4917.9496       -1e+20 
   33300    2.0180728   -4.7780123    4923.6703            2 
   33400    2.0121032   -4.7469857    4932.5122            1 
   33500    1.9882437   -4.8245691    4920.1643            2 
   33600    2.0045587   -4.8026729    4903.8427            3 
   33700    2.0316631   -4.8635876    4919.6527            1 
   33800    1.9602458   -4.8287282    4945.3903            1 
   33900    2.0409717   -4.7703301    4925.3883            1 
   34000    1.9874811     -4.78699    4939.0156            1 
   34100    1.9850345   -4.8595592    4895.4765       -1e+20 
   34200    2.0043372   -4.8118599    4884.6681       -1e+20 
   34300    2.0381203   -4.7838425    4937.1003            1 
   34400    2.0024711   -4.7780823    4947.2019            1 
   34500     1.970724   -4.7696548    4924.4283            1 
   34600    2.0108632   -4.7489708    4944.7015            1 
   34700     2.023539   -4.7894636    4933.4038            1 
   34800    1.9760816   -4.7968721    4921.4078            1 
   34900    2.0109142   -4.7830322    4921.4027       -1e+20 
   35000    2.0097197   -4.7891376    4931.3251            1 
   35100    1.9594704    -4.810506    4915.3775            2 
   35200    1.9684957   -4.7537219    4912.5977            1 
   35300    2.0303364   -4.7878643     4932.944            1 
   35400    1.9476821   -4.7754242    4946.7469            1 
   35500    2.0277399    -4.790666    4907.1211            1 
   35600    1.9863408   -4.8020562    4942.1744            1 
   35700    1.9897105   -4.7741082      4937.28            2 
   35800    2.0305087   -4.8155979    4900.0212            2 
   35900    1.9936533   -4.8392681    4917.2675       -1e+20 
   36000    2.0036526   -4.8214301    4904.0567            1 
   36100    2.0384276   -4.8396746    4917.0216            1 
   36200    1.9937033   -4.8119821    4926.6656       -1e+20 
   36300    2.0061612   -4.8117182    4898.4734            1 
   36400    1.9393795   -4.7811543    4925.1971            1 
   36500    2.0140199   -4.7848997    4931.7388            1 
   36600    2.0060148   -4.7930406     4921.909            1 
   36700    1.9727762   -4.8187065    4911.9014            1 
   36800    2.0185458   -4.8238219    4907.8208            1 
   36900    1.9993581   -4.8147817    4927.2729            1 
   37000     2.022119     -4.79485    4920.7652            1 
   37100    1.9706169   -4.8013864    4908.8946            1 
   37200    1.9838326   -4.8053201    4954.6559            1 
   37300    2.0707929   -4.8334063    4914.8654            1 
   37400    1.9911284   -4.8100551    4919.9564            3 
   37500    2.0316749   -4.8208033    4927.9878            1 
   37600    2.0047535   -4.7803438    4933.0055            4 
   37700     1.979145    -4.815483    4915.2086            1 
   37800    1.9879272   -4.7713819    4894.4521            1 
   37900    2.0491238   -4.7962247    4931.0568            1 
   38000      1.96078   -4.7695725    4971.9933            2 
   38100    2.0417894   -4.7651626    4928.0156            1 
   38200    1.9706609   -4.7776999    4916.2134            1 
   38300    2.0271253   -4.8473757    4936.3028            1 
   38400    1.9956082   -4.7521165     4940.792            1 
   38500    2.0520048   -4.8141407    4924.3843            1 
   38600    1.9918176   -4.8126822    4958.5416            3 
   38700    2.0337571   -4.8156662    4899.5101            2 
   38800    1.9842279   -4.8408888    4906.9266            1 
   38900    2.0117896   -4.8157329    4925.7338            1 
   39000    2.0195677   -4.7405333      4928.61       -1e+20 
   39100    2.0007957   -4.8201558    4925.9342            1 
   39200    1.9772111   -4.7928479    4933.6111            1 
   39300    2.0586206   -4.8139654    4904.5541            1 
   39400    1.9649789    -4.805055    4950.3427            1 
   39500    1.9809439   -4.8355151     4885.662            2 
   39600    2.0100996   -4.8075512    4896.8569            1 
   39700    2.0042166   -4.8190993    4938.6308            1 
   39800     2.019828   -4.8091305    4924.9296            1 
   39900    2.0215388   -4.8552116    4891.8294            2 
   40000    1.9565955    -4.870244    4914.4337            2 
   40100    2.0148664   -4.8047722    4913.5048       -1e+20 
   40200    1.9843464   -4.8228746    4893.5391            1 
   40300    1.9438787   -4.8352781    4881.0681            3 
   40400    2.0044828   -4.8456778    4905.0053            1 
   40500     2.038508   -4.8061289    4908.2293            1 
   40600    1.9733583   -4.8013251    4933.6342            1 
   40700    2.0229527   -4.7801666    4884.9718            2 
   40800    1.9559362   -4.8063059    4924.0183            1 
   40900    2.0491719   -4.8426911    4909.1685            1 
   41000    1.9935561   -4.8105774    4920.6092            1 
   41100    1.9754745   -4.8027389    4891.2827            1 
   41200     1.986797    -4.820331    4889.9701            1 
   41300    1.9901156   -4.8529159    4933.7334            1 
   41400    2.0428401   -4.8009021    4909.7908            1 
   41500    1.9663199    -4.732348    4929.5134       -1e+20 
   41600    2.0171801   -4.8295291    4946.6091            2 
   41700    2.0044417   -4.8124484    4884.5782            1 
   41800    1.9978434   -4.8450746    4919.6463            1 
   41900    2.0025114   -4.8215884    4935.1817            2 
   42000    1.9982888    -4.826029    4902.5257            1 
   42100    2.0193604    -4.776855    4923.4929            1 
   42200    2.0063985   -4.8122357    4934.8898       -1e+20 
   42300    1.9668129   -4.8155708    4895.4884            1 
   42400    2.0180351   -4.7939154    4913.7835            1 
   42500    1.9890759   -4.7635566     4932.012       -1e+20 
   42600    1.9903115   -4.8480187    4917.7228       -1e+20 
   42700    1.9843554   -4.7949767    4920.9181            1 
   42800     2.027319   -4.7961364    4913.9893       -1e+20 
   42900    2.0102409   -4.8227117    4928.8904            1 
   43000    1.9747353   -4.7809279     4946.817            1 
   43100    2.0554348   -4.8094549     4899.072            1 
   43200    1.9275876    -4.789591    4930.8556            2 
   43300    2.0250321   -4.8274165     4913.582            1 
   43400    2.0077099   -4.8108622    4891.1503            1 
   43500     1.987655   -4.8481964    4917.3489            1 
   43600    1.9864447    -4.780439      4934.42            1 
   43700    2.0655246   -4.7875621    4922.7376            1 
   43800    1.9694184   -4.7689028    4919.0513            1 
   43900    2.0243494   -4.8096374    4932.7898            1 
   44000    1.9856153   -4.8382593    4934.0342            1 
   44100    2.0295339    -4.793264    4909.1053       -1e+20 
   44200    1.9792147   -4.7574685    4949.8252       -1e+20 
   44300    2.0318992   -4.8190609     4932.099            1 
   44400     2.006307   -4.7600328    4910.5507            1 
   44500    1.9779024   -4.8044157    4948.4918            1 
   44600     1.958065   -4.8067867    4893.4864            1 
   44700    2.0058666    -4.775258      4925.42       -1e+20 
   44800    1.9730512   -4.7598065    4922.0747            2 
   44900    2.0448361   -4.8470195     4921.857            1 
   45000    1.9521842   -4.8177379     4947.856            1 
   45100    2.0544131   -4.8059133     4899.769            1 
   45200     2.001653   -4.8020241    4946.5921            1 
   45300    2.0191625   -4.8357471    4923.4128            1 
   45400    2.0154244   -4.7860339    4907.7425            1 
   45500    1.9957129   -4.8235135    4931.2745            1 
   45600    1.9981316   -4.8432256    4883.9248       -1e+20 
   45700    1.9858815   -4.7775353    4936.2789       -1e+20 
   45800    2.0029847   -4.7893299    4939.0027            3 
   45900    1.9753464    -4.798153    4922.5816            1 
   46000     2.002866   -4.7797248    4940.7116            1 
   46100    2.0027607   -4.7602267    4923.6639            1 
   46200    1.9811186   -4.8289716    4913.0227            2 
   46300    2.0213654   -4.8124512    4920.6471            1 
   46400    1.9929302   -4.7403693     4945.934            1 
   46500    1.9676147   -4.8034818    4950.5709            1 
   46600    2.0288995   -4.7992707    4904.9347            1 
   46700    1.9384192   -4.7999172    4893.6782            1 
   46800    1.9733254   -4.8671008    4893.7697            1 
   46900    2.0163441   -4.8163096    4888.7927            1 
   47000    1.9439557   -4.7976973    4909.2689            1 
   47100    1.9968501   -4.7720553    4923.2692            1 
   47200    2.0395265   -4.8138993    4936.8128            1 
   47300    1.9862134   -4.8344586    4937.5507            1 
   47400    2.0008797    -4.797384    4904.5814            1 
   47500    2.0258538   -4.7630575    4950.5157            1 
   47600    1.9978553   -4.8152452    4934.6259            1 
   47700    1.9961126   -4.8002368    4902.1112       -1e+20 
   47800    2.0211884   -4.8056292    4925.2874            3 
   47900    1.9541238   -4.8052735    4945.1024            1 
   48000    1.9966675   -4.7681022    4911.4351            1 
   48100    2.0070671   -4.7813073     4929.964            1 
   48200    1.9602597   -4.7686944    4930.6844            1 
   48300    2.0342485   -4.7672748    4915.2652            2 
   48400    1.9793318    -4.795746    4965.2399            1 
   48500    2.0491877   -4.7931529    4914.8943            1 
   48600    2.0016707   -4.8078938     4919.475       -1e+20 
   48700    1.9553602   -4.8051577    4931.8279            1 
   48800    2.0154036   -4.7810239    4887.1608            1 
   48900     2.022302   -4.8068646    4939.9909            1 
   49000    2.0115646   -4.8533258    4944.0456            1 
   49100     2.008718   -4.8209868    4887.8251            1 
   49200    1.9270022   -4.8465938    4902.0882            1 
   49300    1.9900814    -4.819393    4898.2607            1 
   49400    2.0184213   -4.7853522    4926.6759       -1e+20 
   49500    2.0041059   -4.7593259    4931.5869            2 
   49600    1.9901938   -4.7688717    4917.8936            1 
   49700    1.9856406   -4.7711663    4919.9073            1 
   49800    2.0570975   -4.8200189    4926.6006            1 
   49900    1.9648413   -4.8120456    4951.0221            1 
   50000    2.0289956   -4.8053191    4914.7771            3 
   50100    2.0048113   -4.7774205    4911.8134            1 
   50200    1.9551095   -4.7898848    4952.5421            1 
   50300    2.0492966   -4.8071107    4923.8539            1 
   50400    1.9694334   -4.7781512    4919.8615            1 
   50500    1.9625457   -4.8407868    4901.3789            3 
   50600    2.0190196   -4.8126578     4908.468            1 
   50700    1.9836815   -4.8096529    4912.4329       -1e+20 
   50800    2.0250521   -4.7704099    4941.6109            1 
   50900    2.0261471   -4.8271821    4917.3001            1 
   51000    1.9987716   -4.8357022    4936.1314       -1e+20 
   51100    1.9782891   -4.7456015    4912.9039            1 
   51200    2.0061232   -4.7636523    4915.4999            1 
   51300    1.9783496   -4.7686159    4956.5984            1 
   51400    1.9950936    -4.828897    4872.1136       -1e+20 
   51500    1.9899805   -4.8094488    4926.4178            1 
   51600    2.0106558   -4.8289869    4918.1125       -1e+20 
   51700    2.0083278   -4.8539699    4887.1623            1 
   51800    1.9550498   -4.8034418    4900.6447            2 
   51900    1.9891195   -4.7883365    4934.5248       -1e+20 
   52000    2.0548299   -4.7739478    4945.0216            1 
   52100    2.0072403   -4.7693464    4933.3982            1 
   52200    1.9921288   -4.8058567    4935.2304       -1e+20 
   52300      1.97771    -4.777206    4913.8069            2 
   52400     2.006877   -4.7515262    4921.2911            1 
   52500    1.9566005   -4.7833063    4942.2952            1 
   52600    1.9942324   -4.7726552     4917.916            1 
   52700    2.0027566   -4.7632353    4930.5284            1 
   52800     1.988819   -4.8483963    4903.5239            1 
   52900    1.9759509   -4.8234782    4910.0884            1 
   53000    2.0188746   -4.8041785     4924.877            1 
   53100    1.9977974   -4.8304254     4921.111            2 
   53200     2.002301    -4.897465    4869.0772            1 
   53300    1.9994429   -4.8496513    4928.0456            1 
   53400    2.0045244   -4.7932636       4910.1            1 
   53500    2.0490377   -4.8128469    4934.6459            1 
   53600    1.9976057   -4.7912902    4924.4846            1 
   53700    1.9706516    -4.778552    4941.8303            1 
   53800    2.0266381   -4.7355864    4907.3227            2 
   53900    1.9634187   -4.7819129    4930.7214            2 
   54000    2.0091732    -4.771612    4932.6446            1 
   54100    2.0650944   -4.7429281    4955.5824            1 
   54200    2.0022132    -4.771734     4925.143            1 
   54300     2.005496   -4.8197755    4905.1003            1 
   54400    1.9316931   -4.8507735    4900.3224            1 
   54500    1.9774596   -4.8184113    4878.2795            2 
   54600    1.9802348   -4.7561981    4905.4159            1 
   54700    1.9636225   -4.7788114     4954.176            2 
   54800    2.0518256    -4.764276    4915.6097            1 
   54900    1.9987586   -4.7809323     4923.342            1 
   55000    1.9701899   -4.7876733    4931.5037            1 
   55100    2.0310654   -4.8085792     4924.172            1 
   55200    1.9869841   -4.7950257    4921.7403            2 
   55300    2.0125237   -4.8532419    4903.4316            1 
   55400    1.9876664   -4.7858849    4917.9726            1 
   55500    2.0317939   -4.7729083     4941.246            1 
   55600    2.0023921   -4.7572784    4951.4301            1 
   55700     2.012756   -4.8256332    4891.1152            1 
   55800    1.9828752   -4.8124806    4924.9453            2 
   55900    2.0079314   -4.7930842    4912.7313            1 
   56000    2.0076298   -4.7825434    4904.1886            1 
   56100    1.9790259    -4.823829     4941.992            1 
   56200    1.9567981   -4.7821894    4903.5163            1 
   56300    2.0411797   -4.7850934    4931.5244            1 
   56400    1.9830592     -4.79718    4935.2455            1 
   56500    2.0066704   -4.7899933    4911.9894            1 
   56600     1.999093   -4.8190581    4905.9122            1 
   56700    1.9777282   -4.8457571    4895.4652            1 
   56800    2.0053238   -4.8132147    4899.2123            2 
   56900    1.9824751   -4.8063726     4929.248            1 
   57000    2.0608376   -4.8142685    4893.8264            1 
   57100    1.9858557   -4.8068239    4924.7821            1 
   57200    1.9654628   -4.8043916    4920.7442            1 
   57300    2.0421188   -4.8319074    4877.0345            1 
   57400    1.9755463   -4.8263222    4950.6633            1 
   57500    2.0074195   -4.7801044    4920.7984            1 
   57600    1.9609152   -4.7854803    4902.6072            1 
   57700    1.9827764      -4.8133     4899.966            2 
   57800    1.9982522   -4.7926949    4929.9386            1 
   57900    1.9345522   -4.7678633    4908.0198            1 
   58000    2.0196037    -4.794875    4913.4561            1 
   58100    2.0012106   -4.7971994    4916.7498            2 
   58200     2.003045    -4.873245    4890.5667            1 
   58300    2.0253367   -4.8367312    4900.2712            1 
   58400    1.9884722   -4.7959607    4920.5911            1 
   58500    2.0078198   -4.8160628    4909.7978            1 
   58600    1.9802557   -4.8615435    4907.8333            1 
   58700    1.9766938   -4.8445946    4871.9937       -1e+20 
   58800    1.9895265   -4.7783269    4918.0229            1 
   58900    1.9830286   -4.7950972    4935.1294       -1e+20 
   59000    2.0135327   -4.7989022    4903.5495            2 
   59100    2.0319367   -4.7708418    4951.7009            1 
   59200    1.9448806    -4.768665    4944.5258       -1e+20 
   59300    2.0123701   -4.8118124    4892.3608            1 
   59400    2.0126292    -4.797882    4905.7429            1 
   59500    1.9815842   -4.8014063    4953.6174            1 
   59600    2.0818166   -4.8075348    4931.1609       -1e+20 
   59700    2.0007997   -4.7970976    4942.3144            1 
   59800    1.9774222   -4.7855526    4937.7892            1 
   59900    2.0343012   -4.7547915    4942.1963            1 
   60000    2.0115838   -4.8055204    4929.7728            1 
   60100    1.9948851   -4.8322387    4927.3373            1 
   60200    2.0388789   -4.7929358    4906.8988            1 
   60300    1.9358075   -4.8099578    4951.1543            1 
   60400    2.0256822      -4.7991    4889.1904            1 
   60500    2.0110562   -4.8204022    4915.0675       -1e+20 
   60600    1.9696756   -4.8293481    4933.2324       -1e+20 
   60700     1.999702   -4.8137269    4877.9664            1 
   60800    2.0085736    -4.803869    4953.6966       -1e+20 
   60900    2.0266328    -4.786178    4936.0617       -1e+20 
   61000    2.0106662   -4.8116056    4903.4205       -1e+20 
   61100    2.0013295   -4.8382104    4915.3094            1 
   61200    2.0238681   -4.8224698     4927.003            1 
   61300    2.0375904   -4.7938306    4951.6337            1 
   61400    1.9851243   -4.7835129    4922.8071            1 
   61500    2.0020541   -4.8130839    4909.1872            1 
   61600    2.0279621   -4.7846791    4950.1894            1 
   61700    2.0057995   -4.7606202    4935.1474       -1e+20 
   61800    2.0056564    -4.788358    4939.6487       -1e+20 
   61900    2.0692836   -4.8132774    4949.7013            1 
   62000    1.9649107   -4.7500058    4970.5862            2 
   62100    2.0382297   -4.7403881    4917.2909       -1e+20 
   62200    1.9769196   -4.7864256    4937.0365            1 
   62300    1.9813228    -4.796441    4932.9943       -1e+20 
   62400    2.0485765   -4.7717553    4921.0719       -1e+20 
   62500    1.9697513   -4.7628128    4941.2555       -1e+20 
   62600    2.0217582   -4.7864044    4929.6086       -1e+20 
   62700     2.004639   -4.7744225    4929.4423            1 
   62800    1.9595456    -4.793036    4914.0386            1 
   62900    2.0139975   -4.7535164    4933.6263       -1e+20 
   63000     1.985545   -4.7536617    4921.5078            1 
   63100    2.0198362   -4.7657066    4946.3731            1 
   63200    2.0088809   -4.7829107    4964.8883            1 
   63300    2.0366811   -4.8078489    4925.3558            1 
   63400    1.9944265   -4.7921514    4919.1021            1 
   63500    2.0196933    -4.821899    4946.1566            1 
   63600    1.9970172   -4.7459403    4958.4683            1 
   63700    2.0170908   -4.7545845    4892.4393            1 
   63800    1.9957043    -4.808013    4928.6261            1 
   63900    2.0189322   -4.7732506    4944.2583            1 
   64000    2.0028545   -4.8435633    4915.3013            1 
   64100    1.9727767   -4.8125628    4899.2893            2 
   64200     2.026731   -4.8042075    4911.9903            2 
   64300    1.9808941   -4.8206373    4926.5536            1 
   64400     1.955889    -4.832365     4877.607            1 
   64500    1.9877923   -4.8173597     4883.026            1 
   64600    1.9984032   -4.8190182    4902.6661            2 
   64700    2.0416915   -4.8289362    4925.9005            1 
   64800    2.0215749   -4.7942953    4954.8999            1 
   64900     2.020735   -4.8465426    4888.5903            1 
   65000    1.9870715    -4.808599    4913.6807       -1e+20 
   65100    1.9682953   -4.7425137    4946.2115            1 
   65200     2.049817   -4.7889594    4918.8358            1 
   65300    1.9803774   -4.8037774    4929.4606       -1e+20 
   65400    1.9941414   -4.7420531    4954.0614            1 
   65500    2.0006608   -4.7536538    4921.2489            1 
   65600    1.9950575    -4.795868    4920.1177            2 
   65700    1.9617882   -4.7885582    4942.5977            1 
   65800    2.0557666   -4.7749483    4915.0744            1 
   65900    2.0141004   -4.8041128     4902.491            1 
   66000    1.9536112   -4.8387544    4919.1001            2 
   66100    2.0268439   -4.8354654    4918.7923            1 
   66200    1.9685429    -4.751172    4932.8019            1 
   66300    2.0306775   -4.7569993    4937.6353            1 
   66400    1.9838033   -4.7947095    4932.5652            1 
   66500    1.9981248    -4.819017     4876.124            1 
   66600    1.9639365   -4.8208261    4880.8664            1 
   66700    1.9789627   -4.8167708    4916.4855       -1e+20 
   66800    2.0033129   -4.8228657    4907.1799            1 
   66900    1.9524249   -4.7752393    4891.8402       -1e+20 
   67000    2.0153952   -4.8150288      4935.14            1 
   67100    1.9515308   -4.7917147    4929.2037            1 
   67200    2.0317904   -4.8036408    4889.1204            1 
   67300    1.9622398   -4.8418813    4955.4198            1 
   67400    2.0413942   -4.8170488     4894.514            1 
   67500    1.9970977    -4.831736    4919.5513            1 
   67600    2.0078811     -4.83183     4901.864            2 
   67700    2.0025615   -4.8530217    4894.1214            1 
   67800     1.992241   -4.8099805    4916.1789       -1e+20 
   67900    2.0220425   -4.7549631    4930.4086            1 
   68000    2.0259383    -4.801766    4935.2135            1 
   68100    1.9829169   -4.8119208    4891.3382            2 
   68200      2.00289   -4.7944699    4931.9407            2 
   68300    2.0207585   -4.8169033    4924.0648            1 
   68400    2.0057265   -4.8714221    4896.8701            1 
   68500    1.9673447   -4.8637255    4900.7342            2 
   68600    2.0170253   -4.8325495    4922.2517            1 
   68700      1.97602   -4.7540003    4922.1262       -1e+20 
   68800    2.0296673   -4.7735574    4928.3888            2 
   68900    1.9725591   -4.8037989    4930.5615       -1e+20 
   69000     2.044748   -4.7988568    4925.5792            2 
   69100    1.9966272   -4.8150206    4931.5749            1 
   69200    1.9709512   -4.8306051    4896.6072            2 
   69300    2.0312895   -4.8222831    4902.0318            1 
   69400    1.9722611   -4.7929329    4940.9227            1 
   69500    2.0270184   -4.7823315    4932.6127            1 
   69600    2.0217221   -4.8442144    4907.8525            1 
   69700     1.977912   -4.8528052    4889.6652            1 
   69800    2.0039306   -4.8482519    4892.1653            1 
   69900    1.9689044   -4.7828709    4905.4625            1 
   70000    2.0127612   -4.7938291    4922.7988            1 
   70100    1.9754648   -4.8234442    4926.9582            2 
   70200    1.9939175   -4.7817749    4910.9534       -1e+20 
   70300    2.0210024   -4.7603232    4931.2662            1 
   70400    1.9783347   -4.7668871    4981.3847            1 
   70500    2.0530972   -4.8187165    4892.4411            1 
   70600    1.9816312    -4.837218    4922.6574       -1e+20 
   70700    1.9728307   -4.7435493    4922.9839            1 
   70800    2.0030599   -4.7812098    4918.9199       -1e+20 
   70900    2.0110375    -4.768929    4951.2144            1 
   71000    1.9989526   -4.7415289    4953.5174            1 
   71100    2.0143052    -4.789498    4915.9608            1 
   71200    1.9889203   -4.7824141    4908.5236            1 
   71300    2.0145585    -4.808602    4953.0268            1 
   71400    2.0115227   -4.7692262    4908.3316            1 
   71500    1.9765525   -4.7454276    4972.6629            1 
   71600    2.0253082   -4.7757193    4923.6676            2 
   71700    1.9810086   -4.7698853    4910.1203            1 
   71800    2.0532531   -4.7977903    4962.6808            1 
   71900    2.0031029   -4.7687606    4925.0033            1 
   72000    2.0120018   -4.8107036    4894.7693       -1e+20 
   72100    1.9878874   -4.8538945    4906.8766       -1e+20 
   72200    1.9833377   -4.7989174    4924.1531            1 
   72300    2.0111952    -4.772169    4931.9746            2 
   72400     1.974159   -4.7895424    4937.6513       -1e+20 
   72500    2.0726101   -4.8036617    4918.1675            1 
   72600     1.977657   -4.7777619    4937.3573            2 
   72700    2.0362297   -4.8538508    4919.8677            2 
   72800    2.0121727   -4.8613586    4879.3781            1 
   72900    1.9872892   -4.7821751    4918.0217            1 
   73000    1.9921765   -4.7749174    4922.9134       -1e+20 
   73100    2.0275181   -4.8210874    4922.7817            2 
   73200    1.9816253   -4.8412434    4912.5833            1 
   73300    1.9637432   -4.8064231    4881.6865            1 
   73400    2.0091033   -4.7730178    4920.2348            2 
   73500    1.9651715   -4.7777774    4946.8268            1 
   73600    2.0142166   -4.7598753    4937.9402            1 
   73700    1.9747815   -4.7588609    4928.6436            1 
   73800    1.9715186   -4.7720988    4909.1498            1 
   73900    2.0220532   -4.8475447    4931.4376            1 
   74000    2.0155052   -4.8318259    4918.5832            1 
   74100      2.00239   -4.8125708    4869.1886            1 
   74200    1.9734359   -4.7987522    4912.3435            1 
   74300    2.0002227   -4.7681236    4943.1426            1 
   74400    1.9929924   -4.8423069    4916.3829       -1e+20 
   74500    2.0023875   -4.8175905    4901.9711       -1e+20 
   74600     2.013728     -4.79521     4928.309            1 
   74700    2.0279787   -4.7876902     4964.415            1 
   74800    2.0274816   -4.8100055    4889.3739            2 
   74900    1.9727437   -4.8087641    4922.7641            1 
   75000    2.0452296   -4.8333266    4932.8431            1 
   75100    2.0535627   -4.7838641    4945.7628       -1e+20 
   75200    1.9809434   -4.7728167    4937.1908            1 
   75300    1.9950524   -4.8191128    4920.9697            2 
   75400    2.0431388   -4.8864706    4883.8696            2 
   75500     1.938967   -4.8532176    4907.7062            1 
   75600    2.0225096   -4.8320523    4908.1216            1 
   75700    2.0283887   -4.7773358    4919.6139            1 
   75800    1.9644365   -4.8111632    4923.8552            1 
   75900    2.0006188   -4.7834583    4938.3649            2 
   76000    2.0025434   -4.7337061    4940.1798            1 
   76100    1.9686647   -4.7708619    4932.0637       -1e+20 
   76200    1.9879861   -4.8024482    4908.9597            1 
   76300    2.0007151   -4.7747504    4942.7912            1 
   76400    1.9998569    -4.750618    4928.7026       -1e+20 
   76500    1.9551595   -4.7879087    4915.3812            1 
   76600    1.9862792   -4.8636821    4877.1321            5 
   76700    1.9856181    -4.801001    4928.5906            1 
   76800    2.0278443   -4.8177808    4902.8371            1 
   76900    1.9883336   -4.8238428    4909.0872            2 
   77000    1.9574714   -4.7609177     4939.774            1 
   77100    2.0724097   -4.8376867    4900.8492            1 
   77200    1.9603571   -4.8100004    4930.5393            1 
   77300    2.0142659    -4.776682     4932.893            1 
   77400    1.9925748   -4.7964001    4913.9955            1 
   77500    1.9522313   -4.8274477     4897.036            1 
   77600    1.9927146    -4.803041     4934.078            1 
   77700    2.0321837   -4.7681005    4929.5137            1 
   77800    1.9684314   -4.7809355     4925.809       -1e+20 
   77900    1.9831828   -4.7749895    4925.7166       -1e+20 
   78000    2.0582631   -4.8230081    4905.3555            1 
   78100    1.9580568   -4.7977696    4938.1107            1 
   78200    2.0227833   -4.7813768    4926.5698       -1e+20 
   78300    1.9973048   -4.7633066    4938.8445            1 
   78400    1.9852379   -4.7485609     4931.495            2 
   78500    2.0220508   -4.7723847    4912.9947            1 
   78600    1.9631168   -4.8079349    4940.9506            1 
   78700    2.0599299   -4.8257007    4934.2168            1 
   78800    2.0192465   -4.7740206    4917.0801            1 
   78900     1.978235   -4.8319014    4932.8182            1 
   79000    1.9840958   -4.7701238    4919.8958       -1e+20 
   79100    2.0320171   -4.7138069    4920.3935            1 
   79200    1.9986591    -4.813383    4937.9201       -1e+20 
   79300    1.9785116   -4.8169605    4904.7026       -1e+20 
   79400    2.0053861   -4.7823303    4902.9766       -1e+20 
   79500    2.0349765    -4.871443    4931.8417            1 
   79600    1.9329995   -4.8177046    4900.9738            1 
   79700    2.0371186   -4.8606807    4883.3642            1 
   79800    1.9739567   -4.8164794    4923.1955            1 
   79900    2.0218217    -4.804205    4928.2715            1 
   80000    2.0056588   -4.7628817    4915.5983            1 
   80100    1.9913446    -4.800553    4963.1742       -1e+20 
   80200    1.9959295    -4.802156    4897.5185            1 
   80300    2.0009053   -4.8242544    4894.6759            1 
   80400    1.9833155   -4.8108526    4932.8711            1 
   80500     2.031092   -4.7837948     4913.069            1 
   80600     1.965306    -4.798355    4916.0874            1 
   80700    1.9899819    -4.821697    4891.5112            2 
   80800    2.0362538   -4.7932335    4904.6517            1 
   80900    1.9820145   -4.8010848    4932.6007            1 
   81000     1.996612   -4.7697724    4919.0817            1 
   81100    2.0205103   -4.7429672    4944.4137            1 
   81200    1.9502897   -4.7502438    4940.8447            1 
   81300    2.0088886   -4.7484977    4935.6607       -1e+20 
   81400    1.9927971   -4.7255739    4966.7923            1 
   81500    2.0334678   -4.7697213    4944.4043            1 
   81600    2.0153348   -4.8066273     4927.457            1 
   81700    1.9684115   -4.8068949    4927.3204            1 
   81800    2.0443525   -4.7945637    4908.7153            1 
   81900     1.969448   -4.7504837    4917.0125            1 
   82000    1.9847465   -4.7754936    4944.5506            1 
   82100    2.0140573   -4.7955436    4899.7997            1 
   82200    1.9786668   -4.7593393     4937.022       -1e+20 
   82300    1.9939456   -4.7413464    4945.9475            1 
   82400    1.9969432   -4.7209805    4946.4206       -1e+20 
   82500    2.0512765   -4.8207277    4941.5818            1 
   82600    1.9946205   -4.7883341    4935.0992            1 
   82700    2.0548035   -4.7598437    4911.3635            1 
   82800    1.9809318   -4.7962668    4923.5639            1 
   82900    1.9676985   -4.8496112     4914.553            1 
   83000    2.0225598   -4.7893925    4890.4445            2 
   83100     1.990919   -4.8157171    4903.9784       -1e+20 
   83200    1.9979915   -4.8276674    4913.2116            1 
   83300    2.0119969   -4.7932981    4918.7822            1 
   83400    1.9780453   -4.7774741    4911.0656            1 
   83500    2.0005061   -4.7670912    4944.5991       -1e+20 
   83600    1.9821043   -4.7548648    4930.4332            2 
   83700     2.007954   -4.7937132    4918.8725            1 
   83800     1.931133   -4.7430924     4919.124            1 
   83900    2.0108781   -4.7586762    4925.0887            1 
   84000    2.0058237    -4.769432    4939.0891            3 
   84100    1.9878401   -4.8195977    4925.9219       -1e+20 
   84200    1.9796117   -4.7929625    4895.0909            1 
   84300    2.0304906   -4.7791622    4938.2798            1 
   84400    2.0100615   -4.8282983     4920.519            1 
   84500    1.9803846   -4.8014137    4919.2447            1 
   84600    2.0016499   -4.7552428    4942.1573            1 
   84700     2.014266   -4.7974904    4936.7698       -1e+20 
   84800    1.9650892   -4.7837824    4881.0597            1 
   84900    1.9799009   -4.7967927     4922.066       -1e+20 
   85000    2.0141939    -4.824789    4923.4855            1 
   85100    2.0059766   -4.8149426    4865.5316            1 
   85200    1.9592695   -4.8026037     4936.093            1 
   85300    1.9909194   -4.7757771    4922.9743            2 
   85400    2.0090439   -4.8066216    4885.9155            1 
   85500    1.9522141   -4.8445831    4912.3442            2 
   85600    2.0092874   -4.8171511     4929.587            1 
   85700    2.0289232   -4.8124094    4892.9944            1 
   85800    1.9643297   -4.8150589    4933.6056            1 
   85900    2.0072276   -4.8088153    4914.8027            1 
   86000    2.0265936   -4.7667818     4922.156            1 
   86100    1.9785258   -4.7517879    4926.6221            1 
   86200    2.0173118   -4.8210513    4932.9735            1 
   86300    2.0433829   -4.8051984     4927.493            1 
   86400    1.9741844   -4.8033157    4908.5412            1 
   86500    2.0220048   -4.7980667     4913.942       -1e+20 
   86600    1.9579463   -4.8422178    4943.4243            1 
   86700     2.013221   -4.7624421    4878.8947            1 
   86800    1.9688602   -4.7691413     4924.669            1 
   86900    2.0004599   -4.7922751    4931.9776            1 
   87000    2.0093205    -4.852664    4907.2971            1 
   87100    1.9673869   -4.8610364    4883.8817            1 
   87200    1.9890418   -4.8143226    4925.2504            1 
   87300    2.0076869    -4.768545    4907.3485            2 
   87400    1.9509946   -4.8181539    4913.5903            2 
   87500    1.9877049   -4.8153762    4908.2369            2 
   87600     1.988753   -4.8484657    4895.2851            2 
   87700    2.0445786   -4.8385891    4882.7697            1 
   87800      1.94996   -4.8251027    4928.7896            1 
   87900    1.9966259   -4.7888668    4930.3195       -1e+20 
   88000     2.017797   -4.7853825    4903.6952            1 
   88100    1.9619713   -4.8037035    4916.0024            1 
   88200    2.0235901   -4.8248516    4936.4968            2 
   88300    2.0303116   -4.8191988    4926.7327            3 
   88400    1.9807534   -4.8301318    4892.2221       -1e+20 
   88500    1.9513423   -4.7911338    4869.4872            1 
   88600    1.9726437   -4.7433803    4902.2887            2 
   88700    1.9783109   -4.7883112    4938.4683       -1e+20 
   88800    2.0233605   -4.7644939    4913.6954            1 
   88900    2.0068979   -4.8204348     4912.979            1 
   89000    1.9868955   -4.8060228    4952.4585            2 
   89100    2.0571185   -4.7837105    4950.1281       -1e+20 
   89200    2.0296832   -4.8135978    4905.1065            3 
   89300    1.9907698   -4.8533602    4930.7569            1 
   89400    2.0087256   -4.7685535    4925.0085            1 
   89500    2.0237184   -4.7856681     4943.439            1 
   89600    2.0007003   -4.8442971    4925.3025            3 
   89700    1.9854548   -4.7915472    4906.6763            1 
   89800    2.0668111   -4.8111123    4952.5362            1 
   89900    1.9748009    -4.752404    4920.3922            1 
   90000    1.9820514   -4.7833989    4900.7301            1 
   90100    1.9626165   -4.8668243    4898.5666            1 
   90200    2.0178393   -4.8594679    4889.8195            1 
   90300    2.0344161   -4.7700406    4915.1157            1 
   90400    2.0026808   -4.7390064    4970.9116            1 
   90500    2.0161088   -4.7632692    4962.0613            1 
   90600    2.0125074   -4.8000227    4906.8135            1 
   90700    2.0049521   -4.8353512    4913.2452            1 
   90800    2.0384312   -4.7743449    4950.3374            1 
   90900    1.9903188   -4.7170383    4931.5347            1 
   91000    1.9893525   -4.7753911    4927.2676            1 
   91100    1.9863545   -4.8149833    4911.3938            1 
   91200    1.9952632   -4.8303556      4913.92       -1e+20 
   91300    2.0148492   -4.8040978    4966.9681            1 
   91400    2.0547916   -4.7882238    4938.7424            3 
   91500    2.0330035   -4.8334955    4925.2038            1 
   91600     1.997535   -4.8614648    4917.5081            1 
   91700    1.9627014   -4.8351015    4869.9746            1 
   91800    1.9848425   -4.7995537    4907.2117            1 
   91900     2.000462   -4.7937684    4934.3603            1 
   92000    2.0247416   -4.7950349    4951.0558            1 
   92100    2.0315526   -4.7635426    4939.1196            4 
   92200    1.9989415   -4.7977335    4889.7955            1 
   92300    1.9364895   -4.7957619    4913.1132            1 
   92400    2.0127057    -4.803574    4894.4771            1 
   92500    2.0005144   -4.8038671    4875.4474            1 
   92600    1.9460551   -4.8681255    4919.9953            1 
   92700     2.038504   -4.8546203    4903.8336            1 
   92800    1.9795085   -4.7894469    4915.2283            1 
   92900    1.9994322   -4.7930682    4904.4541            1 
   93000    1.9942129   -4.8232847    4900.7483            1 
   93100    1.9914571   -4.7990415    4940.4131            1 
   93200    2.0182856   -4.7705225    4911.2671            1 
   93300    1.9859066   -4.7840581    4892.1996            1 
   93400    1.9962066   -4.8236405    4943.7701            1 
   93500    2.0187606   -4.8013088    4907.5991            1 
   93600    1.9754579   -4.7709026    4892.8793            1 
   93700    1.9621895   -4.7326558    4966.5441            1 
   93800    2.0179591   -4.7520326    4923.2701            1 
   93900    2.0073852   -4.8050103    4923.2035            1 
   94000    2.0195667   -4.8384831    4939.3764            1 
   94100    2.0072915   -4.7642988    4929.3122            2 
   94200    1.9979527   -4.7784134    4900.5268       -1e+20 
   94300    2.0103781    -4.851527    4917.0686            1 
   94400    1.9709874   -4.8037955    4915.1538            1 
   94500    2.0412383   -4.7835895    4906.1686            1 
   94600    1.9894602   -4.7948743    4923.7707            2 
   94700    1.9610759   -4.8660285    4919.4672            1 
   94800    2.0432632   -4.8075482    4864.6077            1 
   94900    1.9752892   -4.8132454    4907.9895            1 
   95000    2.0142011   -4.8521604    4921.2176            1 
   95100     2.021884   -4.7615359    4925.4499       -1e+20 
   95200    2.0308424    -4.704546    4978.5623            2 
   95300    2.0440681   -4.8048769    4930.5703            3 
   95400    1.9922525   -4.8260211    4910.2712            2 
   95500    1.9878923   -4.8312671     4904.505            2 
   95600    2.0384475   -4.8130514    4929.9452            1 
   95700    2.0264165   -4.8433447    4898.4715            1 
   95800    1.9522496   -4.7749572     4938.962       -1e+20 
   95900    2.0321812   -4.7690834    4916.7388            4 
   96000    1.9890748   -4.8064803    4945.7979            1 
   96100    2.0072657   -4.8209102    4910.9505            1 
   96200    2.0238147   -4.8260342    4895.4932            1 
   96300    1.9822549   -4.7824704    4944.6093       -1e+20 
   96400    2.0191595   -4.7587142    4956.5124            1 
   96500    2.0081571   -4.7737441     4904.775            1 
   96600    1.9807573    -4.798866    4917.2942       -1e+20 
   96700    2.0108944   -4.8252846    4919.3718            2 
   96800     1.990111   -4.7799219    4910.3995       -1e+20 
   96900    2.0011015    -4.804796     4920.525            1 
   97000    1.9839102   -4.7579894    4954.1982       -1e+20 
   97100    2.0975176   -4.8022312    4934.6158            2 
   97200    1.9863369   -4.7991789    4940.5775            1 
   97300    1.9928737   -4.7812574    4914.6895       -1e+20 
   97400    2.0367407   -4.7722177    4943.0859       -1e+20 
   97500    1.9595949   -4.7524263     4945.174       -1e+20 
   97600    2.0308908   -4.7798332    4926.2869            1 
   97700    1.9673959   -4.8093805    4903.2134            1 
   97800    1.9798281   -4.8303487    4927.4882            1 
   97900     2.036611   -4.7825285    4913.7233       -1e+20 
   98000     1.967752   -4.7847411    4934.1157            2 
   98100    1.9854369   -4.8426552    4907.5976            1 
   98200    2.0145507   -4.8094967     4871.445            1 
   98300     1.954783   -4.7530791    4942.2217            2 
   98400    1.9887916   -4.7869288    4951.0265            1 
   98500    2.0517761   -4.7574426    4930.1625            2 
   98600    1.9713456   -4.7581723    4948.0731            1 
   98700    2.0156966   -4.8264972    4896.8353            1 
   98800    1.9839743   -4.8166946    4889.4468            1 
   98900    1.9998681   -4.7863343    4944.8142            1 
   99000    1.9992696   -4.7985471    4924.1883            1 
   99100    1.9884175    -4.806631    4915.5248            1 
   99200    2.0231935    -4.795014    4926.6788            1 
   99300    1.9892061   -4.7750042    4913.2218            1 
   99400    2.0185914   -4.8054836    4919.7412            1 
   99500    2.0107704   -4.7702137    4952.3103            1 
   99600     2.036996   -4.7645752    4945.6948            1 
   99700    1.9764332   -4.7772589     4940.407            1 
   99800    2.0092264   -4.7374026    4941.2636            1 
   99900    2.0867278   -4.8129831    4953.0977            1 
  100000    1.9822227   -4.7931775     4923.314            1 
  100100    2.0172724    -4.748908     4922.398            1 
  100200    2.0137146   -4.8123488    4939.4024            1 
  100300     2.010527   -4.8145853    4924.8834            1 
  100400    1.9981596   -4.7859557    4923.1077            1 
  100500    2.0220031   -4.7910239    4951.7461            1 
  100600    1.9920858   -4.7939985    4893.7901            1 
  100700    1.9978345   -4.8109513    4949.0768            1 
  100800    2.0003527   -4.7856017    4917.7143            1 
  100900    1.9786313   -4.7650265    4942.3005            1 
  101000    2.0214305   -4.7754965    4926.3227            1 
  101100    1.9809303   -4.8231713    4936.3558            1 
  101200    2.0356061   -4.8170669    4914.0959            1 
  101300    2.0101165    -4.773879    4950.4071            1 
  101400    1.9961502   -4.7786846    4952.5413            1 
  101500    2.0305743   -4.8012691    4885.1184            1 
  101600     1.936222   -4.7735539    4922.1213            1 
  101700    1.9922962   -4.8025896    4919.8293            1 
  101800     2.043017   -4.7844255    4906.2418            1 
  101900    1.9619194   -4.8102464    4937.7639            1 
  102000    2.0091687   -4.8014556    4905.5528       -1e+20 
  102100    1.9527945   -4.8123245    4892.6363       -1e+20 
  102200     2.006277   -4.8438253    4922.0577       -1e+20 
  102300    2.0163132   -4.7964474    4905.9626            2 
  102400    2.0118593   -4.7471021    4982.2795            1 
  102500    2.0185906   -4.7699013    4921.0395            1 
  102600    1.9962297    -4.802525    4927.3027            1 
  102700    2.0182395   -4.8015862    4927.9458            2 
  102800    1.9974299    -4.774043    4939.0303            1 
  102900    1.9894389   -4.8141145     4926.876            1 
  103000    2.0215788   -4.8041127    4911.7946            1 
  103100    2.0174075   -4.7890466     4934.107            1 
  103200    2.0024071   -4.7942085    4939.0902            1 
  103300    2.0423884   -4.7784999    4965.4043            2 
  103400    1.9629981   -4.7364462    4937.0628            1 
  103500    2.0338526   -4.7958025    4929.5164            1 
  103600    1.9566644   -4.7566732    4924.3888            1 
  103700    1.9970517   -4.7717542    4917.8361       -1e+20 
  103800    2.0069406   -4.8235435    4930.3165            1 
  103900    1.9888641    -4.804128    4913.5314            1 
  104000    2.0297521   -4.7988629     4922.397            1 
Loop time of 170.559 on 32 procs for 100000 steps with 4000 atoms

Performance: 101313.625 tau/day, 586.306 timesteps/s
99.7% CPU use with 32 MPI tasks x no OpenMP threads

MPI task timing breakdown:
Section |  min time  |  avg time  |  max time  |%varavg| %total
---------------------------------------------------------------
Pair    | 13.065     | 13.213     | 13.503     |   2.4 |  7.75
Neigh   | 2.5517     | 2.57       | 2.69       |   1.5 |  1.51
Comm    | 8.8297     | 9.7283     | 10.637     |  17.1 |  5.70
Output  | 3.7373     | 3.738      | 3.7486     |   0.1 |  2.19
Modify  | 138.68     | 139.93     | 141.14     |   6.4 | 82.04
Other   |            | 1.376      |            |       |  0.81

Nlocal:        125.000 ave         134 max         118 min
Histogram: 2 5 2 7 3 4 2 4 1 2
Nghost:        1713.41 ave        1734 max        1699 min
Histogram: 5 5 4 4 2 2 5 0 1 4
Neighs:        11594.1 ave       12700 max       10681 min
Histogram: 2 2 5 5 6 2 5 3 1 1
FullNghs:      23187.3 ave       25367 max       21426 min
Histogram: 2 4 3 8 2 4 4 2 2 1

Total # of neighbors = 741995
Ave neighs/atom = 185.49875
Neighbor list builds = 8336
Dangerous builds = 284

#clear
#
#next RN
#
#jump SELF
Total wall time: 0:02:51
