
units lj                  # Use reduced LJ style units
atom_style atomic         # Uncharged point particles
atom_modify map hash      # Needed for indexing of clusters etc
                          # Used to be able to find where atoms are in relation to each other.

# Define a lattice with which to populate the simulation cell. With units
# set to 'lj' the second argument to the lattice command is the reduced
# density rho* and the spacings are multiples of that required to acheive
# that density. Also define a simulation cell called 'box' in lattice units
# and fill it with atoms. Here we're creating a box which is ten lattice
# constants in each direction.
lattice fcc 1.0 spacing 1 1 1                 # All equal sizes - gives the right reduced density.
Lattice spacing in x,y,z = 1.5874011 1.5874011 1.5874011

region box block 0 10 0 10 0 10 units lattice # Defines a region, "box", in lattice units
create_box 1 box                              # Creates a simulation box as specified above,
Created orthogonal box = (0.0000000 0.0000000 0.0000000) to (15.874011 15.874011 15.874011)
  4 by 4 by 4 MPI processor grid
                                              # with one type of atom
create_atoms 1 box                            # Creates particles on lattice points
Created 4000 atoms
  using lattice units in orthogonal box = (0.0000000 0.0000000 0.0000000) to (15.874011 15.874011 15.874011)
  create_atoms CPU = 0.002 seconds


# Set the mass of the first (and only) atom type.
mass 1 1.0

# Lennard-Jones interactions between particles, 3.5 sigma cut-off. Apply
# long range tail corrections to energy and pressure and set all coefficients
# to unity since we work in reduced units here. Note that this doesn't shift
# the potential such that it goes to zero at the cutoff. That would require
# pair_modify('shift', 'yes').
pair_style lj/cut  3.5      # non-GPU version
pair_modify tail  yes
pair_coeff 1  1  1.0  1.0   # Intearaction between 1 and 1 set with epsilon = 1 and sigma = 1

write_data data.*
System init for write_data ...
Neighbor list info ...
  update every 1 steps, delay 10 steps, check yes
  max neighbors/atom: 2000, page size: 100000
  master list distance cutoff = 3.8
  ghost atom cutoff = 3.8
  binsize = 1.9, bins = 9 9 9
  1 neighbor lists, perpetual/occasional/extra = 1 0 0
  (1) pair lj/cut, perpetual
      attributes: half, newton on
      pair build: half/bin/atomonly/newton
      stencil: half/bin/3d
      bin: standard

#############################
#   M E L T   S Y S T E M   #
#############################

velocity all create 2.4 5300450 mom yes dist gaussian # Assign velocities
                                                    # Temperature 2.4, random number seed, zero linear momentum
						                                                        # Gaussian distribution

timestep 0.002   # simulation timestep
thermo 100       # output thermodynamic data every 100 steps

# Define a fix  in this case with index 1 applied to all
# particles in the simulation. This fix is for simulations
# in the anisotropic NPT ensemble. Note that we use the MTK
# correction.
fix 1 all npt temp 2.4 2.4 0.1 iso 5.68 5.68 0.5 mtk yes tchain 5 pchain 5 # Use NPT ensemble
                                                                         # Set temperature and pressure and damping
                                                                         # Numbers of thermostats in chain and in barostat
run 1000         # run for 10000 steps
Per MPI rank memory allocation (min/avg/max) = 3.630 | 3.630 | 3.630 Mbytes
Step Temp E_pair E_mol TotEng Press Volume 
       0          2.4   -8.3859253            0   -4.7868253   -2.2405722         4000 
     100    1.2568457    -6.520638            0   -4.6358408    5.4054415    4090.5418 
     200    1.4749962   -6.3123998            0   -4.1004586    5.9706789    4139.2832 
     300    1.6124068   -6.0569481            0   -3.6389426    5.7397492    4264.5301 
     400    1.7168752   -5.7431758            0   -3.1685069    5.9205944    4390.8204 
     500    1.7900089   -5.4300953            0   -2.7457532    5.8244207    4548.9907 
     600    1.8749878   -5.1356604            0   -2.3238818    5.7834378    4705.6354 
     700    1.9882515   -4.8678934            0   -1.8862617    5.9915018     4837.506 
     800    2.1327811   -4.6988753            0   -1.5005035    5.7798366    4974.3967 
     900    2.2952123   -4.5871705            0   -1.1452128    5.7568633    5062.5276 
    1000    2.3419515   -4.4435081            0  -0.93145903    5.7034406     5160.776 
Loop time of 0.200337 on 64 procs for 1000 steps with 4000 atoms

Performance: 862547.728 tau/day, 4991.596 timesteps/s
99.6% CPU use with 64 MPI tasks x no OpenMP threads

MPI task timing breakdown:
Section |  min time  |  avg time  |  max time  |%varavg| %total
---------------------------------------------------------------
Pair    | 0.059102   | 0.062848   | 0.067027   |   0.7 | 31.37
Neigh   | 0.013914   | 0.01465    | 0.015505   |   0.3 |  7.31
Comm    | 0.087567   | 0.092671   | 0.096344   |   0.7 | 46.26
Output  | 0.00033273 | 0.00033952 | 0.00038791 |   0.0 |  0.17
Modify  | 0.025676   | 0.027979   | 0.029963   |   0.6 | 13.97
Other   |            | 0.00185    |            |       |  0.92

Nlocal:        62.5000 ave          69 max          56 min
Histogram: 7 2 3 12 7 7 13 5 2 6
Nghost:        1253.14 ave        1273 max        1234 min
Histogram: 2 7 6 8 11 5 9 8 7 1
Neighs:        5540.11 ave        6253 max        4768 min
Histogram: 2 5 5 12 10 8 5 5 7 5

Total # of neighbors = 354567
Ave neighs/atom = 88.641750
Neighbor list builds = 87
Dangerous builds = 24

# Equilibrate just above the melting temperature to avoid step fn in T

fix 1 all npt temp 1.25 1.25 0.1 iso 5.68 5.68 0.5 mtk yes tchain 5 pchain 5
run 1000
Per MPI rank memory allocation (min/avg/max) = 3.631 | 3.631 | 3.631 Mbytes
Step Temp E_pair E_mol TotEng Press Volume 
    1000    2.3419515   -4.4435081            0  -0.93145903    5.7034406     5160.776 
    1100    1.9505664   -4.6860744            0   -1.7609562    5.6875043    4990.5455 
    1200    1.7145364   -4.9478458            0   -2.3766842    5.6803952    4813.9806 
    1300    1.5789627   -5.2178493            0   -2.8499973     5.626771    4671.2595 
    1400     1.466042   -5.4083802            0    -3.209867    5.7430009    4553.7478 
    1500    1.3483489   -5.5238765            0   -3.5018588    5.7608991    4484.5069 
    1600    1.3065005   -5.6674797            0   -3.7082189    5.6719356    4427.5375 
    1700    1.2613667   -5.7293973            0   -3.8378202     5.676448    4393.2208 
    1800    1.2706154   -5.8058844            0   -3.9004378    5.6537836    4362.5534 
    1900    1.2416506   -5.8085169            0   -3.9465067    5.6540218    4357.9646 
    2000    1.2530204     -5.85012            0   -3.9710592    5.4158949    4363.6997 
Loop time of 0.19197 on 64 procs for 1000 steps with 4000 atoms

Performance: 900142.189 tau/day, 5209.156 timesteps/s
100.0% CPU use with 64 MPI tasks x no OpenMP threads

MPI task timing breakdown:
Section |  min time  |  avg time  |  max time  |%varavg| %total
---------------------------------------------------------------
Pair    | 0.058148   | 0.061855   | 0.065593   |   0.7 | 32.22
Neigh   | 0.011945   | 0.012599   | 0.013626   |   0.3 |  6.56
Comm    | 0.08545    | 0.090151   | 0.093821   |   0.7 | 46.96
Output  | 0.00027005 | 0.00027611 | 0.00032391 |   0.0 |  0.14
Modify  | 0.02303    | 0.02474    | 0.026336   |   0.5 | 12.89
Other   |            | 0.002349   |            |       |  1.22

Nlocal:        62.5000 ave          68 max          53 min
Histogram: 1 1 3 0 5 10 20 8 12 4
Nghost:        1399.92 ave        1420 max        1382 min
Histogram: 6 4 6 9 5 11 12 6 2 3
Neighs:        6535.45 ave        7153 max        5253 min
Histogram: 1 0 2 4 2 9 13 19 7 7

Total # of neighbors = 418269
Ave neighs/atom = 104.56725
Neighbor list builds = 74
Dangerous builds = 4


# Small amount of linear quench

fix 1 all npt temp 1.25 ${temp} 0.1 iso 5.68 5.68 0.5 mtk yes tchain 5 pchain 5
fix 1 all npt temp 1.25 0.07 0.1 iso 5.68 5.68 0.5 mtk yes tchain 5 pchain 5
run 2000
Per MPI rank memory allocation (min/avg/max) = 3.631 | 3.631 | 3.631 Mbytes
Step Temp E_pair E_mol TotEng Press Volume 
    2000    1.2530204     -5.85012            0   -3.9710592    5.4158949    4363.6997 
    2100    1.2134622   -5.8576147            0   -4.0378764     5.485462     4349.799 
    2200    1.1945644   -5.9143067            0    -4.122908     5.549362     4318.933 
    2300    1.1504098   -5.9789844            0   -4.2538011    5.6218903    4281.7099 
    2400    1.0960854   -6.0434675            0   -4.3997504    5.5924888    4257.2511 
    2500    1.0427333   -6.1197391            0   -4.5560302    5.5428604    4226.1132 
    2600   0.99303264   -6.2000733            0   -4.7108967    5.6258102    4185.6169 
    2700   0.93790759   -6.2727067            0    -4.866197    5.6772461    4148.2363 
    2800    0.8951637   -6.3817542            0   -5.0393444    5.6058883    4111.6386 
    2900    0.8350285     -6.47248            0   -5.2202504     5.608312     4073.942 
    3000   0.77620835   -6.5586918            0   -5.3946704    5.6720688    4035.9996 
    3100   0.72198711   -6.6439891            0   -5.5612792    5.7282767    3999.7034 
    3200   0.65524754   -6.7064176            0    -5.723792    5.9296111    3960.2578 
    3300    0.6157419   -6.8135614            0   -5.8901795    5.8479905    3928.3188 
    3400   0.55771037   -6.9075425            0   -6.0711861    5.6871714    3904.4037 
    3500   0.49784998   -6.9954992            0   -6.2489109    5.5689162    3879.4854 
    3600   0.43864615   -7.0687804            0   -6.4109757    5.6738197    3847.6024 
    3700   0.38509489   -7.1484585            0   -6.5709605    5.6877377    3819.2747 
    3800   0.32455902   -7.2215178            0    -6.734801    5.6766105    3794.6504 
    3900   0.26662812   -7.2948616            0   -6.8950194    5.7058259    3768.8997 
    4000   0.21012653   -7.3773183            0   -7.0622073    5.6434315    3745.1808 
Loop time of 0.413616 on 64 procs for 2000 steps with 4000 atoms

Performance: 835557.804 tau/day, 4835.404 timesteps/s
100.0% CPU use with 64 MPI tasks x no OpenMP threads

MPI task timing breakdown:
Section |  min time  |  avg time  |  max time  |%varavg| %total
---------------------------------------------------------------
Pair    | 0.12999    | 0.1394     | 0.15094    |   1.1 | 33.70
Neigh   | 0.01722    | 0.018461   | 0.019612   |   0.3 |  4.46
Comm    | 0.18216    | 0.19365    | 0.20545    |   1.0 | 46.82
Output  | 0.00059602 | 0.00060763 | 0.0007039  |   0.0 |  0.15
Modify  | 0.052592   | 0.054842   | 0.057702   |   0.6 | 13.26
Other   |            | 0.006647   |            |       |  1.61

Nlocal:        62.5000 ave          70 max          56 min
Histogram: 5 3 11 3 7 17 8 8 0 2
Nghost:        1557.03 ave        1576 max        1538 min
Histogram: 3 1 10 9 10 9 6 10 3 3
Neighs:        7702.78 ave        8681 max        6742 min
Histogram: 2 4 6 8 10 13 10 8 0 3

Total # of neighbors = 492978
Ave neighs/atom = 123.24450
Neighbor list builds = 101
Dangerous builds = 0

#############################
# F R E E Z E  S Y S T E M  #
#############################

# Define solid atoms. This closely follows ten Wolde  Ruiz-Montero and Frenkel  Faraday Discuss  1996  104  93-110
# Compute components of the per-atom q6 vector
compute q6 all orientorder/atom degrees 1 6 components 6 nnn NULL cutoff 1.3 # compute the Q6 parameter.
                                                                             # Use all neighbours within 1.3 unit cell.

# get number of connections
compute coord_number all coord/atom orientorder q6 0.5

# An atom is solid if it has 8 or more connections (of a possible 14)
variable is_solid atom c_coord_number>=8
group solid dynamic all var is_solid    # Must be dynamic to update
dynamic group solid defined

# do clustering
compute cluster solid cluster/atom 1.3 # Create a cluster where all atoms within are solid and max 1.3 units from another member

# define chunks one chunk per cluster
compute clus_chunks solid chunk/atom c_cluster nchunk every compress yes  # Says which atoms are in which chunk

# count the size of each chunk
compute size_chunks solid property/chunk clus_chunks count


# Find the maximum entry in the vector of chunk sizes
variable max_n equal max(c_size_chunks)


# Thermo style which includes this variable
thermo_style custom step temp pe vol v_max_n

thermo ${N}  # Print the thermo information every 100 steps
thermo 100  

# Reset the npt fix at a lower temperature (below freezing)
fix 1  all npt temp  ${temp} ${temp}  0.1  iso  5.68  5.68  0.5  mtk yes tchain  5  pchain  5
fix 1  all npt temp  0.07 ${temp}  0.1  iso  5.68  5.68  0.5  mtk yes tchain  5  pchain  5
fix 1  all npt temp  0.07 0.07  0.1  iso  5.68  5.68  0.5  mtk yes tchain  5  pchain  5

dump dmp2 all dcd ${N} traj_${rand}.dcd
dump dmp2 all dcd 100 traj_${rand}.dcd
dump dmp2 all dcd 100 traj_462431.dcd


# fix rnuntil all halt ${N} v_max_n >= 3980 error soft message no   # Stop when solidified


run 100000 # 5000000  # Run for this many steps
Neighbor list info ...
  update every 1 steps, delay 10 steps, check yes
  max neighbors/atom: 2000, page size: 100000
  master list distance cutoff = 3.8
  ghost atom cutoff = 3.8
  binsize = 1.9, bins = 9 9 9
  4 neighbor lists, perpetual/occasional/extra = 1 3 0
  (1) pair lj/cut, perpetual
      attributes: half, newton on
      pair build: half/bin/atomonly/newton
      stencil: half/bin/3d
      bin: standard
  (2) compute orientorder/atom, occasional
      attributes: full, newton on
      pair build: full/bin/atomonly
      stencil: full/bin/3d
      bin: standard
  (3) compute coord/atom, occasional
      attributes: full, newton on
      pair build: full/bin/atomonly
      stencil: full/bin/3d
      bin: standard
  (4) compute cluster/atom, occasional
      attributes: full, newton on
      pair build: full/bin/atomonly
      stencil: full/bin/3d
      bin: standard
Per MPI rank memory allocation (min/avg/max) = 9.355 | 9.358 | 9.362 Mbytes
Step Temp PotEng Volume v_max_n 
    4000   0.21012653   -7.3773183    3745.1808           59 
    4100   0.16770719   -7.4411131    3725.6715           63 
    4200   0.13713441   -7.4872972    3710.4424           44 
    4300   0.11233348   -7.5148552    3700.5613           37 
    4400  0.098351037   -7.5376306    3691.4828           54 
    4500  0.089526768    -7.554349    3683.7706           44 
    4600  0.080498309   -7.5641403    3678.5746           93 
    4700   0.07619017   -7.5771219    3676.5451          108 
    4800  0.072250384   -7.5894879    3677.3201          102 
    4900  0.072466716   -7.5994929    3677.0092          113 
    5000  0.070464009   -7.6039748    3675.5318          110 
    5100  0.069695985   -7.6063481    3673.8176           88 
    5200  0.070505039   -7.6064086    3672.4507           71 
    5300  0.070152772   -7.6086126    3670.6589           85 
    5400  0.070560636   -7.6094564    3669.3444           76 
    5500  0.070386877   -7.6128083    3668.3412          113 
    5600  0.070242333   -7.6168789    3668.4708          118 
    5700   0.06986623   -7.6205847    3669.2293          137 
    5800  0.069697472   -7.6248949    3670.2045          145 
    5900  0.070459811   -7.6311143    3669.7863          166 
    6000  0.070271125   -7.6306161    3668.0763          194 
    6100  0.070871846   -7.6257169    3665.1193          213 
    6200  0.069132222   -7.6252661    3663.1929          222 
    6300  0.069769278   -7.6287504    3663.7149          224 
    6400  0.067954185   -7.6308125    3664.6313          146 
    6500  0.070263295    -7.634118    3664.8407          265 
    6600  0.070943593    -7.638611    3664.6829          374 
    6700  0.069997791   -7.6402434    3664.7244          348 
    6800  0.070305849   -7.6397143    3664.5208          435 
    6900   0.07152391   -7.6386062    3663.4196          381 
    7000  0.069628118   -7.6391208    3661.0254          436 
    7100  0.069324185   -7.6390509    3659.2966          280 
    7200  0.070192166   -7.6373065    3660.0293          415 
    7300  0.071044394   -7.6426215    3662.2147          158 
    7400  0.071155211   -7.6480955    3663.9256          181 
    7500  0.070227481   -7.6507243    3664.0255          161 
    7600   0.06924993   -7.6489236     3662.912          441 
    7700  0.071640717   -7.6452907    3662.0531          433 
    7800   0.07062235   -7.6460973     3659.997          313 
    7900  0.069695484   -7.6469492    3659.1131          430 
    8000  0.071210853   -7.6468179    3659.2348          442 
    8100  0.070077023   -7.6473794    3660.4158          410 
    8200  0.070023266   -7.6513161     3660.404          286 
    8300  0.069601646   -7.6520023    3661.6032          248 
    8400  0.069705859   -7.6528019    3661.7866          310 
    8500  0.070435827   -7.6549685    3659.6046          484 
    8600  0.070074003   -7.6510989    3656.2836          436 
    8700  0.069544419   -7.6503297    3653.8678          287 
    8800  0.070489063   -7.6498265    3655.6738          507 
    8900  0.070688798   -7.6552577    3657.4688          481 
    9000  0.068855555   -7.6574807    3659.3205          371 
    9100  0.070639095   -7.6589671    3659.9879          306 
    9200  0.069014843   -7.6605403    3659.4251          387 
    9300  0.068678022   -7.6583981    3658.1601          549 
    9400  0.069918863   -7.6547832    3657.2359          370 
    9500  0.070290122   -7.6542679    3655.9398          538 
    9600  0.070130197   -7.6572254    3655.2574          512 
    9700  0.070199913   -7.6584367    3656.5372          521 
    9800  0.069693426   -7.6599437    3658.4324          547 
    9900  0.070654742    -7.661312    3660.1955          556 
   10000  0.069082806    -7.663194    3660.0371          523 
   10100  0.070552661   -7.6618995    3658.2873          512 
   10200  0.068400885    -7.658848    3655.4018          377 
   10300  0.070312559   -7.6565856    3654.1822          555 
   10400  0.071714301   -7.6577733    3654.8647          582 
   10500  0.070641527   -7.6615797    3655.9263          592 
   10600   0.06993245   -7.6631093    3657.0666          614 
   10700  0.071331291   -7.6624359    3658.0775          618 
   10800  0.070603626   -7.6633217    3657.6991          388 
   10900  0.069857791   -7.6634691    3656.6237          431 
   11000  0.071434769   -7.6614422    3656.2738          603 
   11100  0.069872344   -7.6612406    3655.3658          595 
   11200  0.070432354   -7.6616585    3655.3427          617 
   11300  0.068818094   -7.6632128    3655.5997          389 
   11400  0.069534392   -7.6639844    3657.0198          593 
   11500   0.07135264   -7.6645285    3658.1921          649 
   11600  0.070896342   -7.6685257    3657.7183          594 
   11700  0.069048349   -7.6676635    3656.4692          638 
   11800  0.069461576   -7.6618894    3654.9568          597 
   11900  0.071198439   -7.6621233    3652.5001          523 
   12000  0.070266295   -7.6620188    3652.3981          684 
   12100  0.069763903   -7.6649329    3654.2344          630 
   12200  0.069353261   -7.6647501    3656.6549          749 
   12300  0.069901757   -7.6661144    3657.0604          710 
   12400  0.068366718   -7.6670734    3656.3972          642 
   12500  0.068916949   -7.6669193    3655.9341          678 
   12600  0.069530864   -7.6641632    3655.7011          630 
   12700  0.069117592   -7.6667301    3654.2208          719 
   12800  0.069852407   -7.6682745    3653.6105          696 
   12900   0.06793663   -7.6698669    3653.6055          663 
   13000  0.069809236   -7.6698075    3655.1957          685 
   13100  0.070438601   -7.6717756    3657.0367          725 
   13200  0.070299432   -7.6751451    3657.0786          707 
   13300  0.070195787   -7.6719268     3656.041          682 
   13400  0.070446527   -7.6684899    3653.3144          716 
   13500  0.068742279   -7.6673595    3651.2476          749 
   13600  0.070413044   -7.6695828    3651.1917          699 
   13700  0.071032706   -7.6709848    3652.9898          755 
   13800  0.069502867   -7.6727985    3654.5094          738 
   13900  0.071042342   -7.6768397    3654.4521          739 
   14000  0.069153444   -7.6725503    3655.5775          718 
   14100  0.070143883   -7.6723279    3654.6321          756 
   14200   0.07088728   -7.6738881    3652.9568          777 
   14300  0.068595374   -7.6737616     3652.687          768 
   14400  0.070757539      -7.6719    3653.3162          752 
   14500  0.069670595   -7.6724595    3653.4053          778 
   14600  0.069589201   -7.6733197    3653.5532          731 
   14700  0.072030821   -7.6748454     3653.511          698 
   14800   0.06914204   -7.6747098    3653.4171          702 
   14900  0.071414921   -7.6735469    3653.7031          655 
   15000  0.070426588   -7.6724514    3653.5322          666 
   15100  0.069454529   -7.6724026    3652.5356          506 
   15200  0.068191915   -7.6723944    3651.5524          691 
   15300  0.071120668   -7.6733362     3652.088          513 
   15400  0.070290079   -7.6746993    3654.1046          680 
   15500  0.070625544   -7.6757657    3655.4336          692 
   15600  0.070374979   -7.6788792    3655.2568          542 
   15700  0.071299768   -7.6756847    3654.7713          749 
   15800  0.070548043   -7.6722665    3653.0934          770 
   15900  0.068505442   -7.6706393    3650.9526          717 
   16000  0.070032896   -7.6705622    3650.6785          497 
   16100  0.070386184   -7.6709479    3652.3301          716 
   16200  0.070356308   -7.6764922    3653.3349          747 
   16300  0.069102515   -7.6775269    3654.1916          803 
   16400  0.069008692   -7.6777321    3653.8092          709 
   16500  0.070911733   -7.6757001    3653.6617          712 
   16600  0.068432529   -7.6751344    3652.6167          743 
   16700  0.068448458   -7.6735413    3652.5046          733 
   16800  0.070861746   -7.6741626    3652.3652          704 
   16900  0.069358119   -7.6762444     3652.332          800 
   17000  0.071478635   -7.6779799    3652.9023          761 
   17100  0.069103285   -7.6783105    3653.6062          763 
   17200  0.071486673   -7.6805748    3653.8509          778 
   17300  0.068496732   -7.6768514     3654.169          790 
   17400  0.069276419   -7.6781051    3651.0786          832 
   17500  0.069692262   -7.6749548    3649.1775          842 
   17600  0.070094135   -7.6730573    3649.4735          852 
   17700  0.069120007   -7.6758026    3650.9953          765 
   17800  0.068062974   -7.6805202    3652.6819          850 
   17900  0.069901715   -7.6813276    3653.7081          846 
   18000  0.070519178    -7.680374    3653.5846          857 
   18100  0.071083484   -7.6813898      3652.18          816 
   18200  0.069805814   -7.6790807    3651.6132          872 
   18300  0.070386654   -7.6780099    3651.4751          923 
   18400  0.072152614   -7.6771436    3651.8253          896 
   18500  0.070709581   -7.6806284    3651.2254          903 
   18600  0.069709791   -7.6801204    3652.1163          924 
   18700  0.071736261   -7.6786759    3652.7656          890 
   18800  0.069907414   -7.6794161    3652.6768          925 
   18900  0.069674872   -7.6811282    3651.8842          919 
   19000  0.070727862   -7.6802441    3650.9128          917 
   19100  0.070326343   -7.6747039    3650.3194          902 
   19200  0.071002402   -7.6782801    3649.1766          932 
   19300  0.070710407   -7.6808385    3650.3744          933 
   19400  0.068903136   -7.6838629     3652.088          911 
   19500  0.070350729   -7.6836716    3654.2735          924 
   19600   0.06982739    -7.683389    3653.8958          860 
   19700   0.06841413   -7.6832051    3651.9582          849 
   19800  0.070214288   -7.6816177    3649.9075          930 
   19900  0.070111701    -7.680213    3649.4664          922 
   20000  0.070123853    -7.681941    3649.8412          951 
   20100   0.06899688   -7.6829374    3650.5818          937 
   20200  0.069973317   -7.6826825    3651.5881          989 
   20300  0.069411724   -7.6854709    3651.1506          965 
   20400  0.070508699   -7.6847658    3651.0997          940 
   20500  0.070050009   -7.6832494    3650.8557          905 
   20600  0.070284915   -7.6840555    3650.0194          926 
   20700   0.06895729   -7.6853282    3649.3142          921 
   20800  0.069961922   -7.6837005    3649.6017          959 
   20900  0.069828752   -7.6850159    3649.8456          974 
   21000  0.069561845   -7.6904372    3650.6121          989 
   21100  0.069526557   -7.6891102    3652.7054          980 
   21200  0.068523212   -7.6872106    3653.0253          976 
   21300  0.071667002   -7.6855451    3650.8818          974 
   21400   0.06988319   -7.6841268    3648.1183          942 
   21500  0.069527726   -7.6822576    3647.5913          981 
   21600  0.070115534   -7.6831152     3648.482          914 
   21700  0.070096118    -7.688151    3649.2543          936 
   21800  0.070108842   -7.6879137    3651.1842          972 
   21900  0.070069614   -7.6873358    3651.7661          948 
   22000  0.069687571   -7.6883147    3650.4422          971 
   22100   0.07077654   -7.6871409    3650.1105          988 
   22200  0.069420886   -7.6857558    3650.0603          969 
   22300  0.068837916    -7.687344    3649.3345          969 
   22400  0.070411263   -7.6876816    3649.3258          988 
   22500  0.070093466   -7.6863175    3650.0005          953 
   22600  0.069133893   -7.6872294    3649.9272         1012 
   22700  0.069210938   -7.6893212    3649.5806         1007 
   22800  0.071155666   -7.6874221    3649.8482          911 
   22900  0.069674054   -7.6869411    3649.7815          982 
   23000  0.069679526   -7.6881368    3649.6441          967 
   23100  0.070856489    -7.686467    3649.7268          936 
   23200   0.06956945    -7.687158    3649.2299          937 
   23300  0.071058781   -7.6892781    3649.1789         1006 
   23400  0.070000574   -7.6887187    3649.6389          950 
   23500  0.071283964   -7.6885407    3650.0247          935 
   23600  0.068932537   -7.6894554     3649.614          949 
   23700   0.06959675    -7.689606    3648.6485          963 
   23800  0.070460564   -7.6867523    3648.6235          894 
   23900  0.070725105   -7.6879205    3647.4048          944 
   24000  0.068910422   -7.6892972    3647.6326          934 
   24100  0.071632844   -7.6899566    3649.3007          971 
   24200  0.070006454   -7.6922101    3650.9327          933 
   24300  0.067464544   -7.6936982    3651.4792         1004 
   24400  0.069071826   -7.6912223    3650.4912          980 
   24500  0.070895644   -7.6885401     3648.335          993 
   24600  0.070062673     -7.68726    3646.7072          992 
   24700  0.069013672   -7.6859594     3646.614          984 
   24800  0.071281006   -7.6881059    3647.9982          971 
   24900  0.070059819   -7.6923526    3649.2055          972 
   25000  0.070258548   -7.6943952    3650.5684          970 
   25100  0.070337335   -7.6929415    3650.8717          958 
   25200   0.06913407   -7.6902792    3650.0732          981 
   25300  0.069704025   -7.6906749    3647.5229          948 
   25400  0.070544781    -7.688692    3646.8351         1004 
   25500  0.070825473   -7.6888821    3646.6651          980 
   25600  0.068016473   -7.6914613    3647.7046          973 
   25700   0.06966984   -7.6929238    3649.7416          973 
   25800   0.07049419   -7.6933128    3650.9784         1007 
   25900  0.070257164   -7.6946547    3650.5203          972 
   26000  0.070265398   -7.6936352    3648.8803          967 
   26100  0.070923183   -7.6892938     3647.346         1011 
   26200  0.068952045   -7.6874257    3645.5111          977 
   26300  0.070658209   -7.6872655    3645.9757          962 
   26400  0.069888856   -7.6898474    3648.4268          986 
   26500  0.069861016    -7.694368    3650.1596          988 
   26600  0.070633518    -7.694412    3650.7458          958 
   26700   0.06944566   -7.6929317    3649.8266          997 
   26800   0.06912437   -7.6915332    3648.8081         1029 
   26900   0.06997004   -7.6896418    3648.5012         1037 
   27000  0.069143588   -7.6893513    3648.1567          969 
   27100  0.070632951   -7.6921522    3647.5235         1022 
   27200  0.071573954   -7.6939344    3648.0063          975 
   27300  0.070765074   -7.6929304    3649.2698         1038 
   27400  0.069663175   -7.6939364    3649.5577         1022 
   27500  0.068890683   -7.6938405    3649.0444          997 
   27600  0.069821918   -7.6912356     3648.672         1025 
   27700  0.070057811   -7.6898343    3647.4579         1037 
   27800  0.067826866   -7.6891196    3646.8186         1063 
   27900  0.071557342   -7.6908232    3647.1659         1026 
   28000  0.071587383   -7.6943675    3648.3324         1041 
   28100  0.069901315   -7.6960296    3650.1401         1070 
   28200  0.069329267   -7.6942765    3651.3738         1081 
   28300  0.071589851   -7.6934052    3650.4172         1074 
   28400  0.069331872   -7.6915339    3648.0371         1059 
   28500  0.069264308   -7.6906041    3646.0593         1051 
   28600  0.068586132    -7.691152    3645.8867         1068 
   28700  0.071075285   -7.6920489    3647.0687         1046 
   28800  0.070857362   -7.6952053    3648.5862         1033 
   28900  0.068188991   -7.6969109     3649.364         1070 
   29000  0.069663097   -7.6945255    3650.1042         1065 
   29100  0.069188423   -7.6937744    3649.3362         1047 
   29200  0.068989455   -7.6943598     3647.699         1078 
   29300  0.070429508   -7.6927831    3647.4411         1058 
   29400  0.069316248   -7.6930461    3647.8156         1026 
   29500  0.068923155     -7.69233    3648.3835         1037 
   29600  0.069973879   -7.6937677    3648.3785         1072 
   29700  0.070729657    -7.694972    3648.5942         1053 
   29800  0.071129765   -7.6940928    3649.1246         1079 
   29900  0.068945053   -7.6932223     3648.506         1073 
   30000  0.070583765   -7.6933432    3647.7617         1063 
   30100  0.070675309   -7.6899831    3647.2552         1050 
   30200  0.069133659   -7.6914092    3646.2101         1089 
   30300  0.069916092   -7.6929383    3647.2104         1111 
   30400  0.071387048   -7.6949619     3649.266         1102 
   30500  0.068405767   -7.6975571    3650.7784         1101 
   30600  0.069470549   -7.6974113    3650.6825         1113 
   30700  0.069779134    -7.697048    3648.3178         1093 
   30800  0.069530099   -7.6927062    3646.8696         1098 
   30900  0.068302735   -7.6897637    3646.5369         1098 
   31000  0.069528355   -7.6928226    3646.7885         1095 
   31100  0.069618157   -7.6950197    3647.4958         1054 
   31200  0.070436892   -7.6953316    3648.3821         1084 
   31300  0.069552537   -7.6954876    3648.7124         1096 
   31400  0.069734448   -7.6967348    3647.8313         1124 
   31500  0.069281525   -7.6948807    3647.8048         1074 
   31600  0.070321569   -7.6939191    3647.3161         1110 
   31700  0.069967837    -7.694269    3646.1412         1085 
   31800  0.069708001   -7.6920252    3645.6964         1186 
   31900  0.070602273   -7.6946445    3647.3092         1135 
   32000  0.068880861   -7.6991254    3649.2837         1132 
   32100  0.070998819   -7.7011846     3650.384         1145 
   32200  0.071430963   -7.7004172    3649.3424         1122 
   32300  0.068622314   -7.6967165     3647.309         1136 
   32400  0.070612669    -7.694525    3646.0591         1147 
   32500  0.070006083   -7.6936143    3645.8006         1093 
   32600  0.069357317   -7.6972322      3645.72         1095 
   32700  0.070049135   -7.6961865    3647.6161         1110 
   32800  0.070713401   -7.6981245    3648.1301         1130 
   32900   0.06958685   -7.7000332    3647.5814         1130 
   33000  0.068924276   -7.6973067    3647.8591         1112 
   33100  0.070487411   -7.6963019    3647.2699         1135 
   33200  0.069325775   -7.6961475    3646.6513         1141 
   33300  0.069743902   -7.6965401     3646.501         1125 
   33400  0.070333671   -7.6946303    3647.1321         1125 
   33500  0.069022497   -7.6957455     3647.686         1119 
   33600  0.069693375   -7.6979108    3648.1544         1125 
   33700  0.070368769   -7.6985264    3648.7405         1142 
   33800  0.068726535   -7.6990647    3648.1711         1093 
   33900  0.070667158   -7.6958892    3646.8053         1131 
   34000  0.070249898   -7.6936821    3644.9544         1079 
   34100  0.068350851   -7.6941363    3644.0262         1100 
   34200  0.070189137   -7.6968381    3645.4986         1128 
   34300  0.070523416   -7.6983219    3648.1011         1159 
   34400  0.070121596   -7.7003096    3649.2558         1154 
   34500  0.069835255   -7.7012153     3648.659         1132 
   34600  0.069199173   -7.6966109    3648.2225         1160 
   34700  0.069630785   -7.6957652    3646.6908         1162 
   34800  0.069584372   -7.6955436    3646.0985         1140 
   34900  0.070014297   -7.6963506    3646.1867         1164 
   35000  0.068591578   -7.6984705    3646.4814         1162 
   35100  0.070934991   -7.6988236    3647.2265         1170 
   35200  0.071669915   -7.6996701    3647.0774         1170 
   35300  0.069358885   -7.6973893    3647.3711         1198 
   35400   0.07197907   -7.6970088     3647.165         1183 
   35500  0.070557808    -7.698183    3646.8837         1182 
   35600  0.069695861   -7.6992505    3646.6708         1217 
   35700  0.067451362   -7.6994062    3646.4923         1196 
   35800  0.069588505   -7.6977428    3647.0634         1196 
   35900  0.070972132   -7.6976031     3647.262         1223 
   36000  0.068246157   -7.6983017    3647.1939         1187 
   36100  0.069875962   -7.6992856    3646.8346         1226 
   36200  0.069809393   -7.6975367    3646.7869         1206 
   36300  0.071700523   -7.6967439    3646.4924         1221 
   36400  0.070575217   -7.6951455    3646.6902         1204 
   36500  0.070401886   -7.6979886    3646.3798         1208 
   36600  0.070099371   -7.6982813    3647.1209         1215 
   36700  0.069727529   -7.7011896    3647.3642         1209 
   36800  0.071275548   -7.7003927    3648.4591         1226 
   36900   0.07050224   -7.6990481     3648.156         1193 
   37000  0.067840306   -7.6969258    3646.4365         1192 
   37100  0.070440869   -7.6952838     3644.328         1192 
   37200  0.070049472   -7.6935125    3644.5701         1215 
   37300   0.07137324   -7.6937553    3646.5853         1180 
   37400   0.07052863    -7.698774    3647.8322         1158 
   37500  0.070023535   -7.7019893    3649.3878         1206 
   37600  0.069607219   -7.7004678    3649.4126         1218 
   37700  0.070534467   -7.6978062    3647.9801         1200 
   37800   0.06937017   -7.6960169     3646.342         1196 
   37900  0.069792389   -7.6955235    3644.9661         1142 
   38000  0.070263304    -7.693675    3645.7595         1177 
   38100  0.071186179   -7.6977862    3646.4069         1197 
   38200  0.069423746   -7.7001646     3647.634         1195 
   38300  0.070272745    -7.700482    3649.0495         1209 
   38400  0.069880137   -7.7004304    3648.5141         1217 
   38500   0.07033066   -7.6988915     3647.067         1252 
   38600   0.06930736   -7.6952954    3646.0942         1220 
   38700  0.070843391   -7.6929285    3645.6903         1214 
   38800  0.070872014   -7.6957717    3645.4901         1208 
   38900  0.069092701   -7.6972216    3647.0828         1211 
   39000  0.072066113   -7.7007651    3648.7274         1222 
   39100  0.069939798   -7.7038304    3650.2285         1232 
   39200  0.070107469   -7.7038252    3649.1378         1164 
   39300   0.07114963     -7.69915    3646.7076         1200 
   39400   0.07033035   -7.6945053    3645.0286         1233 
   39500  0.070944994    -7.692026    3645.5928         1180 
   39600  0.070276034   -7.6959711    3645.8323         1178 
   39700  0.070456926   -7.6994643    3646.5809         1128 
   39800   0.06987253   -7.7009148    3647.6758         1183 
   39900  0.070970286   -7.6989043    3648.1093         1156 
   40000  0.069560044   -7.6984579    3647.8002         1149 
   40100  0.069094477   -7.6973405    3646.8332         1163 
   40200  0.071824997   -7.6966724    3646.0279         1218 
   40300  0.071155455   -7.6951994    3645.3997         1223 
   40400  0.068775465   -7.6952629    3645.7765         1183 
   40500  0.070917222   -7.6982074    3647.6218         1190 
   40600  0.070058078   -7.7034141     3649.638         1200 
   40700  0.070251599    -7.704044    3650.0244         1229 
   40800  0.068788219   -7.6984201    3649.0966         1242 
   40900   0.07040679   -7.6945901    3646.8677         1219 
   41000  0.069369044   -7.6948045    3644.5643         1185 
   41100  0.069770308   -7.6952336    3644.5924         1188 
   41200  0.071551705   -7.6953382     3646.339         1200 
   41300  0.070928561   -7.6989327    3647.7165         1231 
   41400  0.069852579   -7.7014439    3648.4857         1222 
   41500  0.069028401   -7.7030966    3648.2663         1220 
   41600  0.069341536   -7.6973526    3647.9563         1188 
   41700   0.07158038   -7.6974349    3646.2623         1219 
   41800  0.070357048   -7.6967007    3644.8889         1225 
   41900  0.071505577   -7.6967134    3645.1169         1197 
   42000  0.071629777   -7.6962088    3646.7316         1222 
   42100  0.070562034   -7.7006605    3647.8377         1205 
   42200  0.070336747   -7.7028111    3649.1675         1215 
   42300  0.071240538   -7.7015499    3649.6665         1190 
   42400   0.06885433   -7.6992725    3647.5951         1157 
   42500  0.068961653    -7.695147    3644.7899         1204 
   42600  0.070165921   -7.6934268    3643.6896         1206 
   42700   0.07045547   -7.6957326    3644.8513         1224 
   42800  0.070293314   -7.7006476    3645.7952         1218 
   42900  0.070709542   -7.6993613    3647.6144         1206 
   43000  0.071474014   -7.7008862    3647.7194         1201 
   43100  0.069308497   -7.7012651    3646.8981         1180 
   43200  0.069910779   -7.6988109    3646.8633         1204 
   43300  0.070649902   -7.6975132    3646.0871         1186 
   43400  0.071156877   -7.6961992    3646.1331         1214 
   43500  0.069991443   -7.6984479    3645.4093         1189 
   43600  0.070118915   -7.6978529    3647.1674         1197 
   43700  0.071116415   -7.7005449    3648.8689         1205 
   43800   0.06911055   -7.7027137    3650.2828         1197 
   43900  0.068782795   -7.7004876    3649.1539         1191 
   44000  0.069413627   -7.6987858    3646.3231         1200 
   44100  0.069378954   -7.6963838    3644.3038         1186 
   44200  0.071253489   -7.6952561    3644.4364         1217 
   44300  0.070539817   -7.6974695    3645.3613         1196 
   44400    0.0704832   -7.7017286    3646.4123         1203 
   44500   0.07074608   -7.7031698    3647.0467         1186 
   44600  0.071759234   -7.7018502    3647.6798         1220 
   44700  0.069648578   -7.7014218     3646.549         1211 
   44800  0.069153057   -7.7001908    3645.6269         1175 
   44900  0.068269014    -7.701218    3644.8955         1176 
   45000  0.070714761   -7.7001802    3645.6838         1165 
   45100  0.070678262   -7.7018104    3645.7971         1183 
   45200  0.068073193   -7.7006357    3646.2035         1181 
   45300  0.070053349    -7.700447    3646.4878         1186 
   45400  0.069687566   -7.7021855    3645.9566         1178 
   45500  0.069792025   -7.7027498    3645.7371         1180 
   45600  0.070798563   -7.7000921    3645.8159         1157 
   45700  0.068711234   -7.6993203    3645.6787         1150 
   45800  0.069421988    -7.701122    3644.6574         1173 
   45900  0.070050767   -7.7003906    3645.7314         1140 
   46000  0.071710038   -7.7015032    3646.9154         1165 
   46100  0.071173891    -7.704208    3647.0044         1148 
   46200  0.071552343     -7.70747    3646.4483         1171 
   46300    0.0698227   -7.7022796    3646.4193         1160 
   46400  0.069340864   -7.6978913     3645.081         1143 
   46500  0.068866157   -7.6989884    3643.0603         1184 
   46600  0.069237237   -7.6992612    3643.1593         1161 
   46700  0.069439796   -7.7012231    3645.4614         1156 
   46800  0.070113816   -7.7045958    3647.7612         1167 
   46900   0.07115712   -7.7042196    3648.9471         1177 
   47000  0.069848517   -7.7034911    3647.6523         1162 
   47100  0.069464159   -7.7027048    3645.6136         1123 
   47200  0.070617964   -7.6998544    3645.3647         1190 
   47300   0.06939208   -7.6996949    3645.3934         1175 
   47400  0.069672946   -7.7011887     3645.158         1204 
   47500  0.069528377   -7.7015838    3646.2537         1168 
   47600  0.071658337   -7.7023425    3646.7243         1184 
   47700   0.07043242   -7.7045336    3646.7374         1174 
   47800  0.069437818   -7.7031094     3646.537         1143 
   47900  0.071187932   -7.7011774    3645.5847         1179 
   48000  0.069693619   -7.7000516    3643.0108         1158 
   48100  0.069085692   -7.6969003    3642.7867         1154 
   48200  0.069625148   -7.6991109    3644.3893         1197 
   48300  0.071416133   -7.7045943    3646.2371         1184 
   48400  0.069364189   -7.7070386    3648.0242         1169 
   48500  0.070185961    -7.704625    3648.1635         1136 
   48600  0.070867938   -7.7018658    3647.0083         1167 
   48700  0.068892988   -7.7013033    3645.0487         1153 
   48800  0.069622578   -7.6995685    3644.0479         1148 
   48900  0.070581409   -7.6988296    3644.4146         1163 
   49000  0.071557485   -7.7015143    3644.9712         1150 
   49100  0.068818388   -7.7031382    3646.5819         1150 
   49200  0.071030806   -7.7037472    3647.8369         1110 
   49300  0.069263673   -7.7033819    3647.8688         1207 
   49400  0.071069015   -7.7037827    3646.0951         1182 
   49500  0.070559743   -7.7009563    3644.3371         1191 
   49600   0.06956395   -7.6963609    3643.7043         1191 
   49700  0.069946852   -7.6961494    3643.3253         1134 
   49800  0.069893345   -7.7021686    3644.7739         1178 
   49900  0.070184933   -7.7056939    3649.2315         1152 
   50000  0.072209942   -7.7082013    3649.9621         1171 
   50100  0.068337511   -7.7042259    3648.4018         1171 
   50200  0.069963623   -7.7018252     3645.886         1177 
   50300  0.069477591   -7.6974138    3645.4341         1187 
   50400  0.069914237   -7.7003026    3644.0455         1136 
   50500  0.069975497   -7.7014153    3644.4817         1187 
   50600  0.070774067   -7.7003772     3646.177         1146 
   50700  0.069854838   -7.7033603     3647.013         1156 
   50800   0.07092803   -7.7054216    3647.4451         1165 
   50900   0.06912554   -7.7048468     3647.062         1132 
   51000  0.069807872   -7.7015638    3645.6634         1168 
   51100  0.069678738   -7.6959814    3642.4765         1192 
   51200  0.070976671   -7.6967057    3640.3011         1132 
   51300  0.069911894   -7.6999262    3643.3139         1181 
   51400  0.070039768   -7.7028768    3646.5321         1171 
   51500  0.068355367   -7.7057315    3647.6617         1141 
   51600  0.070367292    -7.706543    3647.6508         1151 
   51700  0.069743153   -7.7037155     3647.001         1190 
   51800  0.069624018   -7.7007096    3645.4292         1178 
   51900   0.07085156   -7.6998487    3643.9213         1167 
   52000  0.069769687   -7.7004441    3643.7544         1182 
   52100  0.069989988   -7.7009224     3645.268         1160 
   52200   0.07036107   -7.7012319    3646.9709         1129 
   52300  0.069388437   -7.7048559    3647.8596         1199 
   52400  0.070982991   -7.7052833    3647.7024         1186 
   52500  0.069288542   -7.7034671    3646.6568         1179 
   52600  0.069339214   -7.6996542    3644.4389         1165 
   52700  0.070065234   -7.6963381    3642.9674         1154 
   52800  0.070136786   -7.6992851    3642.7304         1173 
   52900  0.071959156   -7.7023565    3644.8727         1167 
   53000  0.070737177    -7.703408    3647.0814         1167 
   53100  0.069216416   -7.7059915    3646.6325         1171 
   53200  0.069997739   -7.7037163    3646.5216         1171 
   53300   0.07036282    -7.701833    3645.9978         1199 
   53400  0.068899694   -7.7011442    3645.1424         1178 
   53500  0.070013916   -7.7012011    3644.7553         1153 
   53600  0.070677569   -7.7014866    3645.0755         1183 
   53700  0.070602691   -7.7030693    3645.4715         1184 
   53800   0.07098126   -7.7033022    3646.6635         1154 
   53900  0.070017277   -7.7043967    3647.0461         1129 
   54000  0.069080361   -7.7044742     3646.489         1181 
   54100  0.070803801   -7.7013417    3645.9001         1162 
   54200  0.069833599   -7.6995416     3644.814         1175 
   54300  0.069173841   -7.6999906    3643.6682         1163 
   54400  0.070862995   -7.7004247    3644.6252         1156 
   54500  0.069394839   -7.7013172    3646.6347         1150 
   54600  0.070257652    -7.707509     3647.524         1133 
   54700  0.069090729   -7.7056613    3648.9585         1151 
   54800  0.071084183   -7.7036569    3647.8338         1185 
   54900  0.069215735   -7.7010546    3645.0481         1152 
   55000  0.070324548   -7.7003637    3643.9027         1199 
   55100  0.068548808   -7.6991254    3644.5093         1149 
   55200  0.070799115   -7.7003071    3645.5494         1180 
   55300  0.069768747   -7.7010853    3646.3463         1174 
   55400  0.069715365   -7.7042307    3646.4094         1178 
   55500  0.070294511   -7.7041648    3646.5498         1168 
   55600  0.070693248   -7.7008469    3646.5575         1140 
   55700  0.070251984   -7.7021588    3645.0043         1190 
   55800  0.070058568   -7.7016175    3643.8981         1163 
   55900  0.070055782   -7.6966887    3644.0927         1139 
   56000  0.070053842   -7.6996969     3644.914         1178 
   56100  0.068856971   -7.7055465    3647.5878         1153 
   56200  0.068629784   -7.7058964    3649.4174         1175 
   56300  0.069426485   -7.7040141     3648.356         1143 
   56400  0.070698826   -7.7036697    3645.7578         1149 
   56500  0.069924161   -7.7003764    3645.0814         1197 
   56600  0.070921209   -7.6981169    3644.6942         1197 
   56700  0.070877695   -7.7010762    3644.9895         1125 
   56800  0.069794375   -7.7031315    3645.2131         1171 
   56900  0.070477619   -7.7035097    3646.7657         1159 
   57000  0.071433574   -7.7038962    3647.1514         1146 
   57100  0.068684838   -7.7030308    3647.3161         1167 
   57200  0.070132642   -7.7006833    3646.1395         1150 
   57300  0.070861746   -7.6996836     3643.959         1148 
   57400  0.070227456   -7.6990843    3641.9487         1174 
   57500  0.070220084   -7.6976474    3643.3251         1147 
   57600  0.070707391   -7.7019794    3646.4604         1128 
   57700  0.069389131   -7.7056134    3648.1648         1164 
   57800  0.070770125   -7.7064572    3647.3667         1147 
   57900  0.071155598   -7.7023781    3646.8399         1194 
   58000  0.071109736   -7.7027931    3644.9749         1173 
   58100   0.06982373   -7.7000813    3644.6825         1164 
   58200  0.070746168   -7.6992997    3645.0981         1162 
   58300  0.070042501   -7.7019914    3645.0882         1179 
   58400  0.069058744   -7.7029385    3645.9518         1148 
   58500  0.071206157   -7.7041096    3647.4101         1179 
   58600  0.068464778    -7.702864    3648.5804         1155 
   58700  0.069721078   -7.7041773    3646.9482         1149 
   58800  0.068967238   -7.7024274    3643.5965         1152 
   58900  0.069093015   -7.6986877    3641.7792         1163 
   59000   0.06936649   -7.6971115    3643.0068         1173 
   59100  0.070808939   -7.6998384    3645.1254         1176 
   59200  0.070356145   -7.7052972    3645.8961         1158 
   59300  0.069363593   -7.7052261    3646.7053         1167 
   59400  0.070401252   -7.7034177    3646.8722         1189 
   59500  0.071064453   -7.7040584    3645.6777         1173 
   59600  0.070015041   -7.7016964    3644.8599         1186 
   59700  0.070044998   -7.6985765    3645.2517         1148 
   59800  0.071905933   -7.7017669    3644.3509         1177 
   59900  0.070018402   -7.7021117    3645.4923         1188 
   60000  0.070777242   -7.7036483    3646.8156         1191 
   60100  0.069790575    -7.705021     3648.133         1191 
   60200  0.069454574   -7.7061307    3647.8632         1152 
   60300  0.070815652   -7.7006975    3646.4137         1170 
   60400  0.070535022   -7.6994593    3643.2619         1173 
   60500  0.069786366   -7.6987429    3642.3101         1182 
   60600  0.069893988   -7.6984372    3644.3119         1176 
   60700  0.069668202    -7.701584     3646.246         1144 
   60800  0.068975227   -7.7041294    3646.3442         1136 
   60900  0.071184133   -7.7039269     3646.332         1111 
   61000  0.069445779   -7.7018715    3646.9051         1134 
   61100   0.06897429   -7.7030785    3645.0376         1123 
   61200   0.07106944   -7.7023917    3644.6201         1133 
   61300  0.070089619   -7.7000535    3644.8195         1160 
   61400  0.068819588   -7.7020663    3644.7388         1170 
   61500  0.070258762   -7.7038091    3645.7156         1182 
   61600  0.071172267   -7.7049437    3647.3566         1164 
   61700  0.071858494   -7.7061884    3648.2026         1144 
   61800   0.07027841   -7.7048858    3646.8583         1194 
   61900  0.069054893   -7.7024204    3644.0939         1199 
   62000  0.070313719   -7.6982976    3642.9874         1195 
   62100  0.069842099   -7.6985364    3643.3054         1154 
   62200  0.070364129   -7.7018342    3645.0586         1140 
   62300  0.068398507   -7.7024892    3646.2804         1139 
   62400  0.070009032   -7.7021579    3646.6508         1127 
   62500  0.069923306   -7.7023497     3646.598         1119 
   62600  0.069453713   -7.7041475    3645.5738         1130 
   62700  0.069979481   -7.7009549    3645.4429         1161 
   62800   0.07054427   -7.7016227    3644.7551         1179 
   62900   0.06916713   -7.7007876    3644.8419         1197 
   63000  0.071383866    -7.701723     3645.457         1152 
   63100  0.069433756   -7.7047709     3646.407         1173 
   63200  0.071273256   -7.7070065    3647.4676         1157 
   63300  0.072244046   -7.7054634    3647.4748         1176 
   63400  0.070348859   -7.7004936    3646.4781         1156 
   63500  0.069188794   -7.6998461    3644.1345         1149 
   63600  0.070793731   -7.6993251    3643.1535         1162 
   63700  0.069415859   -7.6971102     3644.893         1185 
   63800  0.069149587    -7.701838    3645.9326         1174 
   63900  0.070030011   -7.7047052    3646.9285         1161 
   64000   0.07047586   -7.7032788     3647.592         1165 
   64100  0.069354019   -7.7040239    3646.5138         1151 
   64200  0.069643506   -7.7028238     3645.446         1148 
   64300  0.070611366   -7.7016151    3644.9044         1181 
   64400  0.068917601   -7.7020717    3644.9305         1168 
   64500  0.068534003   -7.7025326     3645.282         1174 
   64600  0.070308567   -7.7022796    3645.9596         1170 
   64700  0.069051959   -7.7025781    3646.2521         1147 
   64800  0.070271208   -7.7045279    3645.9681         1140 
   64900  0.070571147   -7.7013958    3646.1847         1149 
   65000  0.069689126   -7.7024401     3645.235         1162 
   65100  0.069858121   -7.7026995    3644.6743         1142 
   65200  0.070357105   -7.7009236    3644.5795         1129 
   65300  0.070933762   -7.7017419    3645.1688         1143 
   65400  0.069938491   -7.7051398    3646.0246         1166 
   65500  0.071387344    -7.706669    3647.7502         1146 
   65600  0.071205548   -7.7055713    3647.9621         1155 
   65700  0.067055249    -7.703687    3646.7377         1131 
   65800  0.069434345    -7.700276    3644.0282         1165 
   65900   0.06879513   -7.6965653    3643.3812         1168 
   66000  0.071649537   -7.6998232    3643.7397         1169 
   66100  0.069619606   -7.7031303    3645.1072         1170 
   66200  0.068036491   -7.7020254     3647.097         1129 
   66300   0.07034347   -7.7039912    3646.9271         1180 
   66400  0.069540062   -7.7055504    3646.0299         1185 
   66500  0.071628201   -7.7044386     3645.292         1142 
   66600  0.070525799   -7.7023662     3644.761         1166 
   66700  0.068491719   -7.7039199    3643.8067         1157 
   66800  0.068851151   -7.7028156    3644.3749         1159 
   66900  0.068378435   -7.7021691     3645.792         1124 
   67000   0.07035686   -7.7032753    3647.5284         1099 
   67100  0.070791637   -7.7057103    3648.7114         1130 
   67200  0.069203024   -7.7067765    3647.5132         1184 
   67300   0.07148723   -7.7052035    3644.6175         1160 
   67400  0.070146556   -7.6972664    3643.7393         1135 
   67500  0.070151334   -7.7000397    3642.5447         1171 
   67600  0.068994552   -7.7019755    3643.8234         1166 
   67700   0.07041043    -7.702716     3645.762         1153 
   67800  0.070067382    -7.706113    3646.0714         1185 
   67900  0.070686634   -7.7070273    3646.0366         1208 
   68000  0.070758425   -7.7033597      3646.27         1210 
   68100  0.071150914   -7.7031642    3644.9034         1183 
   68200  0.068364923   -7.7024034    3644.1427         1180 
   68300   0.07015626   -7.7015995    3643.7916         1203 
   68400  0.070350276   -7.7011197    3644.6074         1221 
   68500  0.069744855   -7.7062328    3646.2373         1197 
   68600  0.070801668   -7.7117415    3648.3504         1207 
   68700  0.071488087   -7.7100094    3648.7847         1185 
   68800  0.069600064    -7.707622    3645.7635         1174 
   68900  0.069957387   -7.7035635    3643.3645         1179 
   69000  0.070003273   -7.7025937    3642.5061         1181 
   69100  0.068675944   -7.7031161    3642.6143         1172 
   69200  0.070277882   -7.7034824    3644.5918         1203 
   69300  0.069741766   -7.7062171    3645.6574         1211 
   69400  0.070985629   -7.7103227     3645.618         1177 
   69500  0.068924906   -7.7089106    3645.4221         1159 
   69600  0.070628226   -7.7067233    3644.7097         1177 
   69700  0.069076328   -7.7069724    3643.0317         1216 
   69800  0.069830821   -7.7061791    3642.0484         1203 
   69900  0.070325303   -7.7040106    3642.7209         1231 
   70000  0.069869177   -7.7066876    3644.1732         1226 
   70100  0.069562731   -7.7127215    3646.4428         1207 
   70200  0.070130108   -7.7134073    3648.1531         1188 
   70300    0.0706511   -7.7115389     3646.382         1231 
   70400  0.069371356   -7.7084386    3643.7358         1206 
   70500  0.067889043   -7.7064894     3642.468         1189 
   70600  0.070785621   -7.7070153    3642.6006         1225 
   70700   0.06930476    -7.708018    3642.9505         1184 
   70800  0.067812929   -7.7086439    3643.9692         1193 
   70900  0.069757764   -7.7100597     3645.211         1217 
   71000   0.07195679   -7.7100013    3645.5041         1161 
   71100  0.069222888   -7.7098303    3644.7804         1188 
   71200  0.071294491   -7.7086453    3643.2148         1205 
   71300   0.07159243    -7.703296    3642.7627         1218 
   71400  0.071114482    -7.704773     3641.317         1214 
   71500  0.070180092   -7.7071276     3642.028         1194 
   71600  0.071333812   -7.7099704    3645.6768         1242 
   71700  0.070031898   -7.7131495    3648.3794         1221 
   71800  0.069755773   -7.7142146    3647.8494         1215 
   71900  0.070600628   -7.7089283    3645.4486         1219 
   72000  0.068314899   -7.7053113    3643.6868         1227 
   72100  0.069536256   -7.7073365    3642.2237         1238 
   72200  0.071506965   -7.7068513    3642.9768         1194 
   72300  0.070578843   -7.7084217    3643.5656         1191 
   72400  0.070097155   -7.7109831    3644.4277         1225 
   72500  0.068320194   -7.7084732    3646.0265         1154 
   72600   0.06958369   -7.7084104    3645.7547         1120 
   72700  0.070505516    -7.710002    3643.9206         1208 
   72800  0.069315904   -7.7068142    3641.8949         1192 
   72900  0.069735423   -7.7024658     3640.046         1184 
   73000  0.069234951   -7.7036151    3640.3856         1188 
   73100  0.068354036   -7.7092168    3643.6299         1214 
   73200  0.070092351   -7.7116996    3646.3363         1203 
   73300  0.070032608   -7.7103685    3647.2381         1190 
   73400  0.069170779   -7.7110354    3645.4877         1191 
   73500   0.07053663   -7.7088638    3643.7771         1225 
   73600  0.070222532    -7.704025    3643.2166         1210 
   73700  0.070020156   -7.7047201    3642.6647         1211 
   73800  0.070849186   -7.7086222    3642.5321         1215 
   73900   0.06976645   -7.7104162    3643.8892         1203 
   74000  0.070390014   -7.7101593    3645.5484         1227 
   74100  0.069627836   -7.7114663    3645.6005         1231 
   74200  0.069418728   -7.7103149    3644.7498         1234 
   74300  0.070077455   -7.7076067    3643.4049         1244 
   74400  0.070972947   -7.7046254    3641.9931         1209 
   74500  0.070756049   -7.7044465    3641.0421         1239 
   74600  0.070629284   -7.7078301    3642.3433         1222 
   74700  0.070220602   -7.7091666    3645.8694         1217 
   74800  0.070218291   -7.7108026    3647.6607         1234 
   74900  0.069595104    -7.712236    3645.8261         1206 
   75000   0.07006881   -7.7101133    3644.4484         1196 
   75100  0.070304139   -7.7075423    3643.5993         1216 
   75200  0.068972727   -7.7075311    3642.7138         1217 
   75300  0.069672271   -7.7071059    3642.9984         1192 
   75400  0.070000882   -7.7071564    3644.1554         1170 
   75500  0.070684273   -7.7112556     3644.099         1210 
   75600  0.069914719   -7.7132356    3644.7226         1231 
   75700  0.068769942   -7.7095277     3645.842         1220 
   75800  0.069445082   -7.7082776      3644.37         1209 
   75900   0.06775596   -7.7068621    3641.7882         1203 
   76000  0.067235358   -7.7023697    3641.1796         1178 
   76100  0.070681571   -7.7051761    3641.7142         1233 
   76200  0.069573139   -7.7096083    3643.7579         1220 
   76300  0.070217253   -7.7123295    3645.9833         1221 
   76400  0.072003137   -7.7136213    3645.9858         1233 
   76500   0.06946528   -7.7109478    3645.4043         1210 
   76600  0.070077857   -7.7070673    3643.9493         1217 
   76700   0.07061513   -7.7063315    3642.2743         1221 
   76800  0.068652632   -7.7049961    3642.4096         1207 
   76900  0.071533511   -7.7083337    3642.7496         1182 
   77000   0.07005588   -7.7117727    3643.8794         1205 
   77100  0.070141551    -7.709896    3645.5347         1208 
   77200  0.070383805   -7.7104839    3645.6053         1192 
   77300  0.069825092    -7.712142    3644.0014         1228 
   77400   0.06959512   -7.7080395    3643.2421         1204 
   77500  0.070016918   -7.7062108    3642.6932         1204 
   77600  0.068974747   -7.7080921    3642.2999         1202 
   77700   0.06707046   -7.7087321    3643.2692         1200 
   77800  0.069714211   -7.7096315    3645.0838         1211 
   77900  0.069176683    -7.710517    3646.7392         1225 
   78000  0.068957166   -7.7122963    3646.8037         1206 
   78100  0.068771073   -7.7093305    3644.8358         1237 
   78200  0.071319911   -7.7063117    3641.9357         1221 
   78300  0.068560638   -7.7039803    3640.9212         1206 
   78400  0.069407337   -7.7050598    3642.3767         1236 
   78500  0.071003577   -7.7067708    3644.3541         1186 
   78600  0.070040533    -7.709501    3644.6365         1208 
   78700  0.069799787   -7.7111352    3644.7861         1225 
   78800  0.070731285    -7.708311    3644.9491         1205 
   78900  0.071233651   -7.7079331    3644.3527         1180 
   79000  0.070597809    -7.708726    3642.9448         1212 
   79100  0.069168928   -7.7073959    3642.1554         1204 
   79200  0.070616452   -7.7066067    3642.9076         1212 
   79300  0.069567638   -7.7086514    3644.2759         1201 
   79400  0.069700277   -7.7124809    3645.9853         1226 
   79500   0.07013553   -7.7121119    3647.7089         1233 
   79600  0.068848228   -7.7119801    3645.7447         1235 
   79700  0.068849426   -7.7067629    3643.6273         1220 
   79800    0.0714639   -7.7051349    3641.8185         1231 
   79900  0.070028427   -7.7058678    3641.3655         1242 
   80000  0.070454507   -7.7072997    3642.7335         1198 
   80100  0.070595136   -7.7074076    3645.0297         1210 
   80200  0.070354002   -7.7119986    3645.2665         1233 
   80300  0.069626031   -7.7112096    3645.7425         1213 
   80400  0.069252067   -7.7090758    3644.6943         1200 
   80500  0.071101841   -7.7071323    3643.4066         1214 
   80600  0.070013059   -7.7056827     3642.314         1223 
   80700  0.068857933   -7.7069937     3641.776         1221 
   80800  0.070944296   -7.7077271    3643.0422         1228 
   80900  0.068093732   -7.7104708    3646.3147         1251 
   81000  0.070269908   -7.7149675    3648.7054         1230 
   81100  0.070726785   -7.7136117    3647.7326         1214 
   81200  0.070981718   -7.7118681    3643.8439         1247 
   81300   0.06962031   -7.7059859    3643.2838         1212 
   81400  0.069417174   -7.7052423    3642.4284         1215 
   81500  0.069333594    -7.707549    3642.3938         1238 
   81600  0.069364836   -7.7080395    3643.9638         1241 
   81700  0.070425231   -7.7106402     3645.414         1234 
   81800  0.070748311   -7.7118877    3645.7493         1226 
   81900  0.069274999   -7.7120902    3645.0129         1201 
   82000  0.070727151   -7.7089557    3643.6617         1219 
   82100  0.070393312   -7.7044578    3642.0184         1213 
   82200  0.070449706   -7.7050315    3639.3239         1194 
   82300  0.070096434   -7.7050085    3640.8773         1238 
   82400  0.070392022    -7.709739    3644.7256         1234 
   82500  0.067263651   -7.7116633    3646.1103         1238 
   82600   0.07016853   -7.7117119    3645.7248         1221 
   82700  0.071226385   -7.7098754    3644.7448         1244 
   82800  0.068408001   -7.7084715    3643.6158         1214 
   82900  0.069118411   -7.7072994    3643.0601         1231 
   83000  0.071392951   -7.7072056    3642.9098         1236 
   83100  0.069040046   -7.7069878    3643.7728         1233 
   83200  0.070005937   -7.7097618    3644.4262         1231 
   83300  0.069403533    -7.711078    3645.7995         1217 
   83400  0.071392348    -7.711107    3646.5363         1168 
   83500  0.069793561    -7.710942     3644.879         1194 
   83600  0.070268188    -7.707059    3641.8113         1187 
   83700  0.071201172   -7.7036093    3640.3955         1232 
   83800  0.069540839   -7.7058174    3640.8303         1231 
   83900    0.0694033    -7.708166    3643.3756         1227 
   84000  0.069026319   -7.7092083     3645.751         1231 
   84100   0.07181741   -7.7106893    3646.5891         1194 
   84200  0.069734146   -7.7116676    3645.3241         1233 
   84300  0.069992945   -7.7087151    3644.3158         1191 
   84400  0.071280934   -7.7052431    3642.9773         1182 
   84500   0.07032821   -7.7066895    3642.5469         1189 
   84600  0.068973202   -7.7077319    3642.8464         1200 
   84700  0.071670492   -7.7090679    3644.1301         1200 
   84800  0.070433273   -7.7107937    3644.8965         1218 
   84900  0.069929614   -7.7124249    3645.0559         1219 
   85000   0.07029861   -7.7099271    3645.1517         1230 
   85100  0.069783462   -7.7078624     3643.675         1227 
   85200  0.072470984   -7.7061191    3641.6553         1183 
   85300  0.069540474   -7.7036624    3640.7422         1216 
   85400   0.06951917   -7.7073165    3642.0005         1157 
   85500  0.070405426     -7.71162     3644.864         1216 
   85600  0.072011737   -7.7137257    3646.3744         1198 
   85700  0.069509075   -7.7116392    3645.7045         1207 
   85800  0.070579906   -7.7087235    3644.5147         1182 
   85900  0.069976933   -7.7068729    3644.0307         1188 
   86000  0.069299121   -7.7085077    3642.7197         1200 
   86100  0.071051154   -7.7076886    3642.9173         1215 
   86200  0.069260458   -7.7086261    3643.4962         1234 
   86300  0.070721221   -7.7078117      3644.91         1220 
   86400  0.071083147   -7.7113624    3645.1326         1198 
   86500  0.070703825   -7.7125106    3645.2545         1213 
   86600  0.069690045    -7.710269    3644.2071         1223 
   86700  0.070846229   -7.7052494    3642.5413         1206 
   86800  0.070780383   -7.7046297    3640.5578         1231 
   86900  0.068766741    -7.704821    3641.4071         1210 
   87000  0.070110489   -7.7085352    3643.7201         1235 
   87100  0.070427013   -7.7116823    3645.7314         1251 
   87200  0.069869343   -7.7129242    3646.0724         1205 
   87300  0.070715312    -7.710497    3645.6835         1234 
   87400  0.072580683   -7.7070351    3644.2474         1220 
   87500  0.069726068   -7.7070812    3642.4211         1253 
   87600  0.069322109   -7.7063297    3642.1399         1189 
   87700  0.070286589    -7.706551    3642.9666         1220 
   87800  0.069366599    -7.708695    3644.1476         1220 
   87900  0.069989933   -7.7109002     3644.846         1239 
   88000  0.070242345    -7.710311    3645.7309         1223 
   88100  0.068431207   -7.7095296    3644.9949         1201 
   88200  0.070853912   -7.7075752    3643.7206         1230 
   88300   0.06867209   -7.7053718    3642.4221         1171 
   88400   0.07046811   -7.7059408    3640.7674         1230 
   88500  0.069147736   -7.7064652    3642.1762         1235 
   88600  0.072344285   -7.7111021    3645.3057         1241 
   88700   0.07086522   -7.7141805    3647.5611         1228 
   88800  0.069528174   -7.7120985     3646.661         1227 
   88900  0.071156447   -7.7083532    3645.1785         1206 
   89000  0.069959254   -7.7077541    3643.6488         1178 
   89100  0.070016082   -7.7077529    3642.7686         1197 
   89200  0.071214328   -7.7057299    3643.4665         1173 
   89300  0.069345756   -7.7067493     3644.006         1219 
   89400  0.069475309   -7.7093503    3644.7729         1212 
   89500   0.07098899   -7.7105947    3645.7371         1234 
   89600  0.068906335   -7.7112522    3645.3107         1194 
   89700   0.06988631   -7.7091824    3644.2575         1244 
   89800  0.069088864   -7.7064398    3641.9483         1224 
   89900  0.070761836   -7.7029679    3640.0059         1237 
   90000  0.070486654   -7.7030962     3641.056         1238 
   90100  0.070137278   -7.7099492    3643.3576         1233 
   90200  0.070043741   -7.7109347    3645.9295         1221 
   90300  0.070843135   -7.7112432    3645.3649         1213 
   90400   0.07045451   -7.7108034    3644.4147         1201 
   90500  0.070161713   -7.7065924    3644.4256         1184 
   90600  0.071015731   -7.7066468     3643.371         1211 
   90700   0.06939002   -7.7068177    3642.7893         1207 
   90800  0.069431434   -7.7069632    3643.4017         1203 
   90900  0.071003603   -7.7080115    3644.3411         1219 
   91000  0.069573847   -7.7104267     3645.816         1219 
   91100  0.070352051    -7.714693    3645.9701         1234 
   91200  0.070436253   -7.7112895    3645.9229         1213 
   91300  0.068773707   -7.7063635    3643.3062         1243 
   91400   0.06925519   -7.7060566    3640.4621         1214 
   91500  0.072610178   -7.7059762    3640.8683         1226 
   91600  0.070260496   -7.7079336    3642.5634         1220 
   91700    0.0701402   -7.7105562    3644.5247         1236 
   91800  0.070210064   -7.7106231    3646.2849         1238 
   91900  0.069227556   -7.7111668     3645.777         1211 
   92000  0.071344099   -7.7089127    3644.8389         1220 
   92100  0.069407868   -7.7075173    3643.0857         1252 
   92200  0.069754874   -7.7066701     3642.094         1226 
   92300  0.068951731   -7.7049482    3642.8707         1240 
   92400  0.069952838   -7.7089367    3643.4219         1242 
   92500  0.068259456   -7.7101154    3644.4898         1236 
   92600  0.070341156   -7.7093704    3644.9989         1248 
   92700  0.069271069   -7.7094523    3644.4441         1243 
   92800  0.069692082   -7.7094251    3643.8747         1257 
   92900  0.070787632   -7.7075816    3643.6438         1240 
   93000  0.071714442   -7.7074973     3643.625         1253 
   93100  0.069845782   -7.7086392    3643.2734         1222 
   93200  0.069718939   -7.7078406    3644.0793         1261 
   93300  0.070699531   -7.7080487    3644.7798         1226 
   93400  0.069445049   -7.7111566    3644.7242         1189 
   93500  0.069955318   -7.7097719    3645.2675         1206 
   93600   0.07104835   -7.7081937    3644.0456         1240 
   93700  0.068816387   -7.7064435    3642.4211         1226 
   93800  0.071337145   -7.7046747    3641.5173         1211 
   93900   0.07060551   -7.7063862    3642.2435         1205 
   94000  0.070010458   -7.7099223    3644.2922         1220 
   94100  0.070457815   -7.7113142    3646.2601         1196 
   94200  0.069265553   -7.7091925    3647.0997         1248 
   94300  0.070396891   -7.7098688    3644.9809         1220 
   94400  0.070616686    -7.709804    3643.1476         1250 
   94500  0.069892902   -7.7082556    3643.2271         1284 
   94600  0.069767246   -7.7071691    3643.6833         1254 
   94700   0.07041057   -7.7065002    3644.2862         1217 
   94800  0.068914459   -7.7088616     3644.055         1216 
   94900   0.07178444   -7.7108685    3644.1571         1248 
   95000  0.071895463   -7.7076879    3645.0899         1195 
   95100  0.070475478   -7.7093914    3644.2425         1223 
   95200  0.069943253   -7.7090952    3643.2293         1251 
   95300  0.070763588   -7.7064171    3642.5389         1235 
   95400  0.070353762   -7.7061468    3642.3855         1223 
   95500  0.070386804   -7.7090292    3642.7245         1268 
   95600   0.06978994   -7.7117155    3644.6168         1273 
   95700  0.069788301   -7.7113246    3646.6715         1264 
   95800   0.07036372   -7.7123131     3645.836         1261 
   95900  0.069024365   -7.7105222    3644.0851         1238 
   96000  0.070525953   -7.7068308     3642.347         1232 
   96100  0.070336275   -7.7052044    3641.3879         1229 
   96200  0.070198823   -7.7080948    3641.5854         1246 
   96300  0.069683395   -7.7090391    3643.5793         1230 
   96400  0.069820103   -7.7086312    3645.2923         1257 
   96500  0.068769661   -7.7109911    3644.6667         1264 
   96600  0.069004275   -7.7095409    3644.5267         1262 
   96700  0.070338328   -7.7093918    3643.7542         1223 
   96800  0.068842141   -7.7083789    3643.3465         1252 
   96900  0.069287981   -7.7099909    3642.7001         1214 
   97000  0.069754111   -7.7074604    3643.6239         1212 
   97100  0.070608246   -7.7105769    3643.5999         1250 
   97200  0.070103544   -7.7121002    3644.2025         1256 
   97300  0.071173982    -7.711661    3645.7975         1270 
   97400  0.070862352   -7.7117918    3645.5046         1251 
   97500  0.069063121    -7.708305     3643.128         1260 
   97600  0.071143282   -7.7040102    3641.3803         1293 
   97700  0.069365629   -7.7043194    3641.1098         1257 
   97800  0.070565319   -7.7091283    3642.3671         1263 
   97900  0.070389993    -7.711095    3644.3849         1275 
   98000  0.070629367   -7.7099032    3645.5588         1261 
   98100   0.07017809   -7.7110636      3645.01         1281 
   98200  0.069575946   -7.7112149    3643.7477         1239 
   98300   0.07081006   -7.7093594     3643.214         1249 
   98400  0.071312074   -7.7085759    3643.0422         1283 
   98500  0.069543495    -7.710296     3642.498         1286 
   98600  0.068882243   -7.7107593    3643.1099         1279 
   98700   0.07093313   -7.7101957    3644.3553         1270 
   98800  0.070110229   -7.7120492    3645.2821         1276 
   98900  0.069054861    -7.714176    3645.1453         1263 
   99000  0.070841109   -7.7110882    3644.1934         1256 
   99100  0.070580942   -7.7069432    3641.9226         1247 
   99200  0.069414041   -7.7066044    3640.0507         1277 
   99300  0.070095783   -7.7057203    3641.7006         1252 
   99400  0.070278883   -7.7087065    3643.6328         1257 
   99500  0.069788019   -7.7124615    3644.9576         1252 
   99600  0.069282683   -7.7107875    3645.3861         1271 
   99700    0.0707218   -7.7093944    3644.9771         1278 
   99800   0.06957292   -7.7107564    3643.2681         1245 
   99900  0.072016181   -7.7101688    3642.6047         1246 
  100000  0.070074442   -7.7076853    3642.9623         1260 
  100100  0.068932838   -7.7073636    3643.2618         1273 
  100200  0.071280957   -7.7106213    3643.6198         1268 
  100300  0.069167703   -7.7128098    3644.4721         1274 
  100400  0.070035121   -7.7152151    3645.1254         1244 
  100500  0.070520058   -7.7122283    3645.2352         1251 
  100600  0.070499787   -7.7086004     3642.994         1273 
  100700  0.071189482   -7.7036283    3640.9454         1279 
  100800  0.070216031   -7.7060979    3640.5421         1245 
  100900  0.069434591   -7.7079556    3642.4781         1272 
  101000  0.071476547   -7.7100761    3644.4725         1263 
  101100  0.068125179   -7.7117126    3645.0705         1270 
  101200  0.068965614   -7.7108803     3645.144         1242 
  101300  0.070581099   -7.7088258    3644.4404         1242 
  101400  0.072079317   -7.7108398     3642.447         1286 
  101500  0.070675869   -7.7085763    3642.0488         1266 
  101600  0.069793433   -7.7080197    3642.8069         1256 
  101700  0.069459814   -7.7096487    3643.2048         1253 
  101800  0.070229761   -7.7119344      3644.49         1268 
  101900  0.070823914   -7.7113489    3645.9091         1279 
  102000  0.069206861   -7.7118552    3645.0604         1296 
  102100  0.070288208   -7.7092916      3643.66         1272 
  102200  0.069513686    -7.706168    3642.3671         1280 
  102300  0.069573174   -7.7059408    3641.6139         1266 
  102400  0.070162228   -7.7092157    3641.5818         1247 
  102500  0.069129414   -7.7088939    3643.8788         1277 
  102600  0.070127179    -7.710564    3645.7645         1290 
  102700  0.069556399   -7.7128353    3645.8587         1252 
  102800  0.068542156   -7.7128428    3644.7823         1250 
  102900  0.070604079   -7.7108025    3642.9553         1271 
  103000  0.070469937   -7.7069139    3642.1422         1267 
  103100   0.07131495   -7.7072935    3641.6411         1272 
  103200   0.07040376   -7.7104779     3642.247         1242 
  103300  0.069926191   -7.7113567    3643.8076         1233 
  103400  0.070565752   -7.7114905     3644.953         1217 
  103500  0.071373027   -7.7111964    3644.9785         1242 
  103600  0.069129869   -7.7094185    3644.6589         1272 
  103700  0.068916131   -7.7079012    3643.6301         1280 
  103800  0.069181889   -7.7096974    3642.3165         1273 
  103900  0.069366999   -7.7093642    3642.4959         1226 
  104000  0.070742052   -7.7085834    3643.4238         1246 
Loop time of 110.48 on 64 procs for 100000 steps with 4000 atoms

Performance: 156408.755 tau/day, 905.143 timesteps/s
99.9% CPU use with 64 MPI tasks x no OpenMP threads

MPI task timing breakdown:
Section |  min time  |  avg time  |  max time  |%varavg| %total
---------------------------------------------------------------
Pair    | 7.8816     | 8.4675     | 9.444      |  10.3 |  7.66
Neigh   | 0.18547    | 0.19477    | 0.21055    |   1.1 |  0.18
Comm    | 9.4119     | 10.345     | 11.255     |  11.6 |  9.36
Output  | 7.2344     | 7.2358     | 7.2455     |   0.1 |  6.55
Modify  | 75.6       | 79.149     | 81.364     |  14.7 | 71.64
Other   |            | 5.087      |            |       |  4.60

Nlocal:        62.5000 ave          68 max          58 min
Histogram: 1 2 11 12 9 9 8 5 1 6
Nghost:        1583.98 ave        1606 max        1569 min
Histogram: 2 5 15 14 10 6 6 4 1 1
Neighs:        7959.61 ave        8720 max        7430 min
Histogram: 3 9 13 10 7 9 5 3 3 2
FullNghs:      15919.2 ave       17347 max       14815 min
Histogram: 2 11 10 11 7 9 4 3 4 3

Total # of neighbors = 1018832
Ave neighs/atom = 254.70800
Neighbor list builds = 996
Dangerous builds = 0

#clear
#
#next RN
#
#jump SELF
Total wall time: 0:01:51
