
units lj                  # Use reduced LJ style units
atom_style atomic         # Uncharged point particles
atom_modify map hash      # Needed for indexing of clusters etc
                          # Used to be able to find where atoms are in relation to each other.

lattice fcc 1.0 spacing 1 1 1
Lattice spacing in x,y,z = 1.5874011 1.5874011 1.5874011
region box block 0 10 0 10 0 10 units lattice
create_box 2 box
Created orthogonal box = (0.0000000 0.0000000 0.0000000) to (15.874011 15.874011 15.874011)
  3 by 4 by 4 MPI processor grid
create_atoms 1 box
Created 4000 atoms
  using lattice units in orthogonal box = (0.0000000 0.0000000 0.0000000) to (15.874011 15.874011 15.874011)
  create_atoms CPU = 0.002 seconds
set type 1 type/fraction 2 0.48 78393
Setting atom values ...
  1918 settings made for type/fraction
mass 1 1.0
mass 2 1.0
pair_style lj/cut  3.5
pair_modify tail  yes
pair_coeff 1  1  1.0  1.0   # Intearaction between 1 and 1 set with epsilon = 1 and sigma = 1
pair_coeff 1  2  1.5  0.8
pair_coeff 2  2  0.5  0.88

write_data data.0
System init for write_data ...
Neighbor list info ...
  update every 1 steps, delay 10 steps, check yes
  max neighbors/atom: 2000, page size: 100000
  master list distance cutoff = 3.8
  ghost atom cutoff = 3.8
  binsize = 1.9, bins = 9 9 9
  1 neighbor lists, perpetual/occasional/extra = 1 0 0
  (1) pair lj/cut, perpetual
      attributes: half, newton on
      pair build: half/bin/atomonly/newton
      stencil: half/bin/3d
      bin: standard
WARNING: Not all mixed pair coeffs generated from mixing. Use write_data with 'pair ij' option to store all pair coeffs. (../write_data.cpp:312)


#############################
#   M E L T   S Y S T E M   #
#############################

velocity all create 2.4 3143649 mom yes dist gaussian # Assign velocities
                                                    # Temperature 2.4, random number seed, zero linear momentum
                                                                                # Gaussian distribution

timestep 0.002   # simulation timestep
thermo 1000       # output thermodynamic data every 1000 steps bf 100

# Define a fix  in this case with index 1 applied to all
# particles in the simulation. This fix is for simulations
# in the anisotropic NPT ensemble. Note that we use the MTK
# correction.
fix 1 all npt temp 2.4 2.4 0.1 iso 5.68 5.68 0.5 mtk yes tchain 5 pchain 5 # Use NPT ensemble
                                                                         # Set temperature and pressure and damping
                                                                         # Numbers of thermostats in chain and in barostat
run 10000          # run for 10000 steps
Per MPI rank memory allocation (min/avg/max) = 3.642 | 3.644 | 3.648 Mbytes
Step Temp E_pair E_mol TotEng Press Volume 
       0          2.4   -5.4168687            0   -1.8177687   -4.2006027         4000 
    1000    2.3934427   -4.9765128            0   -1.3872464    5.6378235    3723.6649 
    2000    2.3643786   -4.9570311            0   -1.4113499    5.4866075    3729.7321 
    3000    2.3974809   -4.9413002            0   -1.3459778     5.780579    3720.8631 
    4000    2.3972801   -4.9242656            0   -1.3292443    6.0173697    3707.3279 
    5000    2.3486123   -4.9043135            0   -1.3822758    5.5067583    3751.8488 
    6000    2.4819273   -5.0037111            0   -1.2817509    5.4646811    3727.4946 
    7000    2.4105013   -4.9478633            0   -1.3330153    5.5552377    3746.1207 
    8000    2.3232053   -4.9408347            0    -1.456898    5.4331589    3744.7142 
    9000    2.4258759   -4.9471144            0   -1.3092102    5.6115002    3739.2967 
   10000    2.4145038    -4.910373            0   -1.2895228    5.6291892    3753.9393 
Loop time of 2.65151 on 48 procs for 10000 steps with 4000 atoms

Performance: 651705.012 tau/day, 3771.441 timesteps/s
99.6% CPU use with 48 MPI tasks x no OpenMP threads

MPI task timing breakdown:
Section |  min time  |  avg time  |  max time  |%varavg| %total
---------------------------------------------------------------
Pair    | 1.1511     | 1.2462     | 1.4345     |   4.2 | 47.00
Neigh   | 0.21527    | 0.22162    | 0.25951    |   1.7 |  8.36
Comm    | 0.70918    | 0.91005    | 1.0176     |   6.8 | 34.32
Output  | 0.00024725 | 0.00025414 | 0.00031818 |   0.0 |  0.01
Modify  | 0.20556    | 0.25751    | 0.33142    |   7.7 |  9.71
Other   |            | 0.01588    |            |       |  0.60

Nlocal:        83.3333 ave          94 max          74 min
Histogram: 1 2 3 8 14 9 5 3 1 2
Nghost:        1710.35 ave        1741 max        1687 min
Histogram: 3 4 5 9 11 5 7 2 1 1
Neighs:        10164.1 ave       11946 max        8680 min
Histogram: 1 3 5 9 10 11 5 3 0 1

Total # of neighbors = 487877
Ave neighs/atom = 121.96925
Neighbor list builds = 900
Dangerous builds = 155

# Equilibrate just above the melting temperature to avoid step fn in T

fix 1 all npt temp 1.25 1.25 0.1 iso 5.68 5.68 0.5 mtk yes tchain 5 pchain 5
run 2000
Per MPI rank memory allocation (min/avg/max) = 3.644 | 3.646 | 3.649 Mbytes
Step Temp E_pair E_mol TotEng Press Volume 
   10000    2.4145038    -4.910373            0   -1.2895228    5.6291892    3753.9393 
   11000    1.2683483   -7.0571225            0   -5.1550757    5.5026827    2916.6229 
   12000    1.2338635   -7.1008529            0   -5.2505203    5.9183462     2892.098 
Loop time of 0.638173 on 48 procs for 2000 steps with 4000 atoms

Performance: 541545.793 tau/day, 3133.946 timesteps/s
99.6% CPU use with 48 MPI tasks x no OpenMP threads

MPI task timing breakdown:
Section |  min time  |  avg time  |  max time  |%varavg| %total
---------------------------------------------------------------
Pair    | 0.29366    | 0.31354    | 0.33746    |   2.0 | 49.13
Neigh   | 0.041562   | 0.04376    | 0.046506   |   0.6 |  6.86
Comm    | 0.20214    | 0.22941    | 0.25295    |   2.7 | 35.95
Output  | 5.7868e-05 | 5.9315e-05 | 7.3685e-05 |   0.0 |  0.01
Modify  | 0.043634   | 0.046528   | 0.048968   |   0.8 |  7.29
Other   |            | 0.004874   |            |       |  0.76

Nlocal:        83.3333 ave          91 max          79 min
Histogram: 6 8 5 8 5 11 3 1 0 1
Nghost:        2043.21 ave        2063 max        2027 min
Histogram: 4 4 1 10 10 8 7 1 1 2
Neighs:        13204.2 ave       14579 max       11977 min
Histogram: 2 2 4 14 7 7 6 2 1 3

Total # of neighbors = 633803
Ave neighs/atom = 158.45075
Neighbor list builds = 145
Dangerous builds = 13

#############################
# L I N E A R  Q U E N C H  #
#############################

# Define solid atoms. This closely follows ten Wolde  Ruiz-Montero and Frenkel  Faraday Discuss  1996  104  93-110
# Compute components of the per-atom q6 vector
compute q6 all orientorder/atom degrees 1 6 components 6 nnn NULL cutoff 1.3 # compute the Q6 parameter.
                                                                             # Use all neighbours within 1.3 unit cell.

# get number of connections
compute coord_number all coord/atom orientorder q6 0.5

# An atom is solid if it has 8 or more connections (of a possible 14)
variable is_solid atom c_coord_number>=8
group solid dynamic all var is_solid    # Must be dynamic to update
dynamic group solid defined

# do clustering
compute cluster solid cluster/atom 1.3 # Create a cluster where all atoms within are solid and max 1.3 units from another member

# define chunks one chunk per cluster
compute clus_chunks solid chunk/atom c_cluster nchunk every compress yes  # Says which atoms are in which chunk

# count the size of each chunk
compute size_chunks solid property/chunk clus_chunks count


# Find the maximum entry in the vector of chunk sizes
variable max_n equal max(c_size_chunks)


# Thermo style which includes this variable
# thermo_style custom step temp pe vol v_max_n

thermo ${N}  # Print the thermo information every 100 steps
thermo 1000  

# Reset the npt fix at a lower temperature (below freezing)
fix 1  all npt temp  ${temp} ${temp}  0.1  iso  5.68  5.68  0.5  mtk yes tchain  5  pchain  5
fix 1  all npt temp  0.45 ${temp}  0.1  iso  5.68  5.68  0.5  mtk yes tchain  5  pchain  5
fix 1  all npt temp  0.45 0.45  0.1  iso  5.68  5.68  0.5  mtk yes tchain  5  pchain  5

dump dmp2 all dcd ${N} traj.dcd
dump dmp2 all dcd 1000 traj.dcd


compute msd all msd com yes
variable twopoint equal c_msd[4]/6/(step*dt+1.0e-6)
fix 9 all vector 10 c_msd[4]
variable fit equal slope(f_9)/6/(10*dt)
thermo_style custom step temp pe c_msd[4] v_twopoint v_fit v_max_n

fix 1 all npt temp 1.25 ${temp} 0.1 iso 5.68 5.68 0.5 mtk yes tchain 5 pchain 5
fix 1 all npt temp 1.25 0.45 0.1 iso 5.68 5.68 0.5 mtk yes tchain 5 pchain 5
run 2000000 # 5000000  # Run for this many steps
Neighbor list info ...
  update every 1 steps, delay 10 steps, check yes
  max neighbors/atom: 2000, page size: 100000
  master list distance cutoff = 3.8
  ghost atom cutoff = 3.8
  binsize = 1.9, bins = 8 8 8
  4 neighbor lists, perpetual/occasional/extra = 1 3 0
  (1) pair lj/cut, perpetual
      attributes: half, newton on
      pair build: half/bin/atomonly/newton
      stencil: half/bin/3d
      bin: standard
  (2) compute orientorder/atom, occasional
      attributes: full, newton on
      pair build: full/bin/atomonly
      stencil: full/bin/3d
      bin: standard
  (3) compute coord/atom, occasional
      attributes: full, newton on
      pair build: full/bin/atomonly
      stencil: full/bin/3d
      bin: standard
  (4) compute cluster/atom, occasional
      attributes: full, newton on
      pair build: full/bin/atomonly
      stencil: full/bin/3d
      bin: standard
Per MPI rank memory allocation (min/avg/max) = 9.836 | 9.842 | 9.846 Mbytes
Step Temp PotEng c_msd[4] v_twopoint v_fit v_max_n 
   12000    1.2338635   -7.1008529            0            0 8.3333333e+20            5 
   13000    1.2624867    -7.152713   0.44408068 0.0028466709  0.035883626            1 
   14000    1.2564999   -7.1621977   0.89051952 0.0053007112  0.035884144            2 
   15000    1.2515468   -7.1265945    1.2899662 0.0071664786  0.035939766            3 
   16000    1.2643044   -7.1665448     1.654698 0.0086182186  0.034388349            1 
   17000    1.2470367   -7.1164403    2.0909476  0.010249743   0.03389323            2 
   18000    1.2245715   -7.1578111    2.5114163  0.011626927  0.034075908            3 
   19000    1.2585444   -7.1008504    2.9548382  0.012959816  0.034295056            1 
   20000    1.2142759   -7.1671467    3.3104066   0.01379336  0.034258126            1 
   21000    1.2469256   -7.1702995    3.7377841  0.014832476  0.034257087            2 
   22000    1.2260103    -7.141208    4.1516461  0.015725932  0.034272953            2 
   23000    1.2347121   -7.1375281     4.567653  0.016549467  0.034287388            3 
   24000    1.2302006   -7.1237273    5.0130513  0.017406428  0.034448167            2 
   25000    1.2141333   -7.1459072    5.3440487  0.017813495  0.034357917            2 
   26000    1.2452587   -7.1933129    5.6629634  0.018150523  0.034114836            2 
   27000    1.2417563   -7.1465943    6.0530854  0.018682362  0.033899916            2 
   28000    1.2421701   -7.1580812    6.3636349  0.018939389   0.03359332            2 
   29000    1.2474568   -7.1568153    6.8030376  0.019548958  0.033308868            4 
   30000    1.2269611   -7.1952552    7.1880644  0.019966845   0.03318189            3 
   31000    1.2690035   -7.1619321    7.5990452   0.02042754  0.033078291            2 
   32000    1.2570291   -7.1674878     7.894025  0.020557357  0.032921479            3 
   33000    1.2696656   -7.1561599     8.255468  0.020847141  0.032757921            2 
   34000    1.2400525   -7.1544078    8.6474894  0.021194827  0.032615972            1 
   35000    1.2610588   -7.0994884    9.0342483  0.021510115  0.032492185            2 
   36000    1.2247458   -7.1233889    9.2996128  0.021526881   0.03233071            2 
   37000    1.2345971   -7.1401968    9.6285198  0.021685855  0.032150705            1 
   38000    1.2213682   -7.1402738    9.9942241  0.021917158  0.032000737            2 
   39000    1.1970793   -7.1521799    10.375113  0.022169044  0.031862933            2 
   40000    1.2497929    -7.163664    10.727779  0.022349539  0.031757413            1 
   41000    1.2324336   -7.1488511    11.168545  0.022700295  0.031680622            2 
   42000    1.2330382   -7.1474112    11.523988  0.022865055  0.031607386            1 
   43000    1.2521268   -7.1481742     11.95877   0.02317591   0.03155745            5 
   44000    1.2346228   -7.1691507     12.25918  0.023218144   0.03152527            3 
   45000     1.254466   -7.1586049     12.62344   0.02337674  0.031454889            1 
   46000    1.2286176   -7.1432679    13.097737  0.023727785  0.031422017            1 
   47000    1.2661711   -7.1031967    13.539833  0.024006795  0.031436912            1 
   48000    1.2311266   -7.1772456    13.874757  0.024088119  0.031454161            1 
   49000    1.2351112   -7.1427855    14.381486  0.024458309  0.031467726            2 
   50000    1.2240658   -7.1506024     14.70912    0.0245152  0.031498825            3 
   51000    1.2531493   -7.1481177    15.004098    0.0245165  0.031519568            2 
   52000    1.2249933   -7.1736167    15.363253  0.024620597  0.031529224            2 
   53000    1.2200861    -7.085211     15.75957  0.024779198  0.031514468            3 
   54000    1.2204237   -7.1827104     16.24707  0.025072638  0.031521901            2 
   55000     1.233073   -7.1911723    16.592708  0.025140466  0.031532656            1 
   56000    1.2473449   -7.2076759    17.095807  0.025440189  0.031572657            2 
   57000    1.2305145   -7.1904815    17.339453  0.025350077  0.031613462            2 
   58000    1.2218401   -7.1549524    17.831754  0.025620336   0.03161988            2 
   59000    1.2433268   -7.1851021    18.265798   0.02579915  0.031651124            1 
   60000     1.244007   -7.1862309     18.54803  0.025761152  0.031682197            3 
   61000    1.2180967    -7.161413    19.109388  0.026105721  0.031731073            2 
   62000    1.2549835   -7.1853485    19.421222  0.026103793   0.03177207            1 
   63000     1.213972   -7.1682658    19.825695  0.026224464   0.03179809            2 
   64000     1.205745   -7.1246572    20.289284  0.026418338  0.031834059            3 
   65000    1.2364038    -7.142737    20.659527  0.026486573  0.031862024            1 
   66000    1.2407985   -7.2349949    20.802195  0.026265397  0.031881119            1 
   67000    1.2238165   -7.1931632     21.21789   0.02639041  0.031888577            2 
   68000       1.2376   -7.2333922    21.613565  0.026487212  0.031888244            2 
   69000     1.232175   -7.1729068    21.935785  0.026492494  0.031880746            1 
   70000    1.2193934   -7.1621398    22.339715  0.026594899  0.031872193            2 
   71000    1.2120056   -7.1265111    22.753394  0.026705862  0.031868418            3 
   72000    1.2188157   -7.1958265    23.018279  0.026641526  0.031854786            2 
   73000    1.2166231   -7.2003793    23.315467   0.02661583  0.031833666            1 
   74000    1.2295634   -7.1853258    23.760491  0.026757309   0.03181184            1 
   75000    1.2160237   -7.1533225    24.057653  0.026730725    0.0317867            2 
   76000    1.2145076   -7.2148945    24.114679  0.026441534  0.031743723            1 
   77000    1.2286841   -7.1661477    24.514096  0.026530407  0.031693156            1 
   78000    1.2093539   -7.2158219    24.866864  0.026567163  0.031640341            2 
   79000    1.2141713   -7.1762785    25.131865  0.026510406  0.031583091            2 
   80000    1.2295494     -7.24486     25.57485  0.026640468  0.031531273            1 
   81000    1.2072263   -7.1992812    25.934561  0.026681647  0.031481033            2 
   82000     1.233757   -7.2253049    26.308497  0.026736278  0.031438191            3 
   83000    1.2005813   -7.2011286    26.870999  0.026978915  0.031410369            1 
   84000    1.2435051   -7.1916418    27.270719  0.027054284   0.03138899            3 
   85000    1.2117799   -7.2164145    27.890264  0.027343396  0.031381468            2 
   86000    1.2128368   -7.2196055    28.182659  0.027308778  0.031379104            3 
   87000    1.2445589   -7.1412583    28.571035  0.027366892   0.03137713            1 
   88000    1.2230545   -7.1550487    28.920381  0.027386724  0.031379022            3 
   89000    1.2368809   -7.1990046    29.183465  0.027325342  0.031365455            1 
   90000    1.2071787   -7.2351601    29.340485  0.027167116  0.031347399            3 
   91000    1.1975518   -7.2212235    29.841723  0.027327585  0.031327187            1 
   92000    1.1985142   -7.2382323    30.122528  0.027284899  0.031312255            2 
   93000    1.2164087   -7.2282417    30.435271  0.027271749  0.031286668            2 
   94000    1.1882669   -7.2711062    30.705722  0.027221385  0.031262858            4 
   95000    1.2272518   -7.2123587    31.204722  0.027372563  0.031243301            2 
   96000    1.2233473    -7.272915    31.633696  0.027459806  0.031224992            2 
   97000    1.2512928   -7.1821568    31.976742  0.027471428  0.031210889            3 
   98000    1.2192094   -7.2097663    32.374477  0.027529317  0.031192874            1 
   99000    1.2076751   -7.2162013    32.754991  0.027571541   0.03117803            1 
  100000    1.2146561   -7.2276328    33.063159  0.027552632  0.031157407            3 
  101000    1.2051723   -7.2284557    33.504606  0.027644064  0.031143057            2 
  102000    1.2463385   -7.2289386    33.865957  0.027668265  0.031133787            3 
  103000    1.2164589   -7.2537243    34.232477  0.027696179  0.031126722            2 
  104000    1.1935408   -7.2263647    34.424474  0.027583713  0.031113018            5 
  105000    1.2207702   -7.2549353    34.924682  0.027718001  0.031096175            3 
  106000    1.2303036   -7.2413037    35.043927  0.027550257    0.0310763            3 
  107000    1.2104474   -7.2009226    35.469584  0.027624286  0.031053321            1 
  108000    1.2117666   -7.2089674    35.843367  0.027656919  0.031027822            1 
  109000    1.2092437   -7.2169366    36.372556  0.027807765   0.03101394            1 
  110000    1.1791743   -7.2266606    36.593209  0.027722128  0.031002324            2 
  111000     1.203544   -7.2012583    37.255789  0.027969812    0.0309896            1 
  112000    1.2242452   -7.2136064    37.591841   0.02797012  0.030981874            4 
  113000    1.1984405   -7.1994127    37.833604  0.027900888  0.030974737            1 
  114000    1.2112472   -7.2097909    38.194224  0.027919755   0.03096462            2 
  115000    1.2332844   -7.2363653    38.346201  0.027787102  0.030952298            2 
  116000    1.2240245    -7.267119    38.820773  0.027888486  0.030935194            2 
  117000    1.2204863   -7.2470519    39.120144  0.027863351   0.03091762            5 
  118000     1.217422   -7.1462359    39.511444  0.027903562   0.03090192            2 
  119000    1.2376207   -7.2246789    39.824116  0.027888036  0.030890094            3 
  120000    1.2451713   -7.2708004    40.152627  0.027883769  0.030877582            2 
  121000    1.1919969   -7.2716047    40.588221   0.02795332  0.030866905            2 
  122000    1.2186725    -7.224778    41.067287  0.028051426  0.030861876            2 
  123000    1.2258696   -7.2280079    41.680793   0.02823902  0.030857571            4 
  124000    1.2241781   -7.2472272    41.838681  0.028117393  0.030854968            2 
  125000    1.2154756   -7.2479081    42.213421   0.02814228  0.030851139            1 
  126000    1.2012469   -7.2493492    42.565731  0.028151939  0.030845189            4 
  127000    1.2195967   -7.2633586     42.73399  0.028040676  0.030838299            3 
  128000    1.2039802   -7.2417053    42.960737   0.02796923  0.030823098            2 
  129000    1.1873052   -7.2285339    43.298986  0.027970921  0.030807603            6 
  130000    1.2249516   -7.2234519    43.641138  0.027975088  0.030787143            2 
  131000    1.1914961   -7.2381358     43.85261  0.027896062  0.030766072            1 
  132000    1.2262619   -7.2518141    44.039744  0.027802868  0.030738037            1 
  133000    1.1874931   -7.2607029    44.400176  0.027819659  0.030708815            3 
  134000    1.2160093   -7.2206182    44.906669  0.027927033  0.030685342            2 
  135000    1.1999907   -7.2731805    44.912814  0.027723959  0.030657932            2 
  136000    1.1749908    -7.252578    45.296661  0.027755307  0.030630483            3 
  137000    1.2075193   -7.2779654    45.443506  0.027642035   0.03060235            3 
  138000    1.2053213   -7.2708853    46.147752     0.027867  0.030575251            2 
  139000    1.2046994   -7.3026021    46.375004   0.02780276  0.030550258            1 
  140000    1.2028081    -7.251607    46.781366  0.027846051  0.030524027            5 
  141000    1.2243128   -7.2558311    47.055497  0.027810577  0.030500161            3 
  142000    1.1950079   -7.2364308    47.453319  0.027848192  0.030475015            2 
  143000    1.2134057   -7.2388675    47.711777  0.027804066   0.03044818            1 
  144000    1.1834006   -7.2852262    47.894036  0.027716456  0.030421299            5 
  145000    1.2105376   -7.2999445    48.131345  0.027661692  0.030393778            1 
  146000    1.2243058   -7.2516468    48.961175  0.027945876  0.030370602            2 
  147000    1.1825127   -7.2795586    49.340702   0.02797092  0.030352444            1 
  148000    1.2030871   -7.2168778    49.673277  0.027969187  0.030334392            2 
  149000    1.1760241   -7.2502005    49.839557  0.027874472  0.030314753            2 
  150000    1.2068163   -7.3205144    50.266541  0.027925856  0.030299602            4 
  151000    1.1863817   -7.2520222    50.679392   0.02796876  0.030283673            4 
  152000    1.2134423   -7.2597122    51.227216  0.028085096  0.030266434            2 
  153000    1.2031905   -7.2659997    51.378306  0.027983827     0.030252            4 
  154000    1.2023194   -7.2737138    51.452485  0.027842254  0.030235773            1 
  155000     1.209295   -7.3024964    51.934694  0.027921878  0.030215836            1 
  156000    1.1955686    -7.309537    51.861426  0.027703753  0.030194419            1 
  157000    1.1756136   -7.2463158    52.465018  0.027847674  0.030170813            3 
  158000    1.2147314   -7.2781724    53.118588  0.028016133  0.030151626            2 
  159000    1.1817823   -7.2707701    53.206667  0.027886093  0.030134893            1 
  160000    1.2026559   -7.2754343    53.556302  0.027893907  0.030116479            1 
  161000    1.1933184   -7.2667386    53.796715   0.02784509  0.030095352            2 
  162000    1.1905579   -7.2882773    54.091953  0.027825079  0.030074098            2 
  163000    1.1571623   -7.2522643    54.400791  0.027812265  0.030052167            2 
  164000    1.1834611   -7.2836777    54.721652  0.027805718   0.03002808            1 
  165000    1.2065775   -7.2865784    54.977988   0.02776666  0.030005119            3 
  166000    1.1644376   -7.3109786    55.305249  0.027763679  0.029983419            1 
  167000    1.1764945   -7.2959486    55.789077  0.027838861  0.029965283            2 
  168000    1.1672405   -7.2665646    56.241472  0.027897555  0.029946998            4 
  169000    1.1974396   -7.2882047    56.559151  0.027889128   0.02992777            2 
  170000    1.1852505   -7.2941898    56.854203  0.027869707  0.029908545            1 
  171000    1.2121022   -7.2771458    56.829081  0.027694484    0.0298882            2 
  172000    1.1839269   -7.2746389     57.40835  0.027814123  0.029867572            3 
  173000    1.1941631   -7.2601893    58.160406   0.02801561  0.029852488            1 
  174000    1.1829996   -7.2737442    58.356034  0.027948292  0.029835208            1 
  175000    1.2078438   -7.2686841    58.172797  0.027701332  0.029816799            2 
  176000    1.1731368   -7.2686873    58.591159  0.027742026  0.029797332            1 
  177000    1.1589217   -7.2558945    59.124767  0.027836519  0.029776877            2 
  178000     1.167213    -7.303414    59.117412  0.027676691  0.029754759            2 
  179000    1.1902494   -7.2862154    59.313239   0.02761324   0.02973131            5 
  180000    1.1780852   -7.3093152    59.612189  0.027598235  0.029705244            5 
  181000    1.1675489   -7.3107022     59.65255  0.027464342  0.029674764            2 
  182000     1.157961   -7.3121527    60.197332  0.027562881  0.029645518            3 
  183000    1.1584912   -7.3046828    60.277094  0.027448585  0.029616112            2 
  184000    1.1831009   -7.3081127    60.616594  0.027453167  0.029586265            1 
  185000    1.1918706   -7.3128336    60.752016  0.027365773   0.02955536            1 
  186000    1.1734942   -7.3100302    61.090338  0.027370223  0.029525785            1 
  187000    1.1519325   -7.3373986    61.357935  0.027343108  0.029498595            3 
  188000    1.2024671   -7.2687985    62.007309  0.027485509  0.029470929            1 
  189000    1.1916422   -7.3314797    62.235877  0.027440863  0.029445091            2 
  190000    1.1837981   -7.3038858    62.870718  0.027574876  0.029422513            1 
  191000    1.1756641   -7.3166423    62.908971  0.027447195  0.029400241            2 
  192000    1.1819267   -7.2963185    63.555999  0.027585069   0.02937955            2 
  193000    1.1985662   -7.2962344    64.114179  0.027683151  0.029357564            2 
  194000    1.1894926   -7.2861575    64.253258  0.027600197  0.029339379            3 
  195000    1.1830544   -7.2791065    64.466387  0.027549738  0.029318794            4 
  196000    1.1887088   -7.3345549    64.929843  0.027606226  0.029300373            4 
  197000     1.180532   -7.3216605    65.150372  0.027559379  0.029280135            1 
  198000    1.1702323   -7.3014407    65.581305  0.027601559  0.029258512            4 
  199000    1.1686966   -7.3575594     65.75765  0.027536704  0.029240898            3 
  200000    1.1642309   -7.3234507    66.280244  0.027616768  0.029223506            3 
  201000    1.1909817   -7.3601352    66.613016  0.027617337  0.029207617            2 
  202000    1.1675169    -7.322632     66.85891  0.027582059  0.029191676            3 
  203000    1.2014878   -7.3104048     67.04735  0.027523543  0.029173059            1 
  204000    1.1979626   -7.3238905    67.411368  0.027537324  0.029154455            2 
  205000    1.1872105   -7.3265418    67.918489  0.027609142  0.029136836            2 
  206000      1.15294   -7.3011709    68.028282  0.027519532  0.029118977            3 
  207000    1.1616915   -7.3225522     67.78423  0.027288337  0.029098432            2 
  208000    1.2104251   -7.3835786    68.170529  0.027311911  0.029075409            1 
  209000    1.1826627   -7.3257411    68.616977  0.027359241  0.029053084            2 
  210000     1.138151   -7.3334178     68.66813  0.027249258  0.029030508            2 
  211000    1.1698192   -7.3420305    69.640989   0.02750434  0.029009614            2 
  212000    1.1643522   -7.3459911    69.581044  0.027351039  0.028990996            1 
  213000    1.1667023   -7.3622465    69.770093  0.027296594  0.028970048            1 
  214000    1.1626859   -7.3132786    70.285346  0.027369683  0.028949955            2 
  215000    1.1686414   -7.3247419    70.662344  0.027388505  0.028930375            2 
  216000    1.1543868   -7.3047054    70.987744  0.027387247  0.028911397            2 
  217000    1.1458856   -7.3169117    71.562553  0.027481779  0.028893805            1 
  218000    1.1724009   -7.3747041     71.48048  0.027324342  0.028877257            2 
  219000    1.1573181   -7.3638834    72.116147  0.027441456  0.028859598            3 
  220000    1.1759529   -7.3713865    72.430496  0.027435794  0.028842768            2 
  221000      1.16043   -7.3163953    72.912232    0.0274933  0.028826597            2 
  222000    1.1911504   -7.3422521    72.698127  0.027289087  0.028809193            3 
  223000    1.1771197   -7.3715744    73.168182   0.02734237  0.028791455            1 
  224000    1.1724623   -7.3683998    73.606826  0.027383492  0.028773054            4 
  225000    1.1554728    -7.333075    73.662336  0.027282347  0.028754919            4 
  226000    1.1712677    -7.336458    74.065142  0.027310155  0.028736437            3 
  227000    1.1518932   -7.3695709    74.133181  0.027214824  0.028719172            2 
  228000    1.1445821   -7.3856275    74.668979  0.027291293  0.028702142            1 
  229000    1.1708642    -7.355142    75.176373  0.027356759  0.028684727            6 
  230000    1.1551879   -7.3605392    75.291185  0.027279415  0.028669089            6 
  231000    1.1762418   -7.3232401    76.124994  0.027462119   0.02865445            2 
  232000    1.1787047   -7.3215882    76.424629  0.027451375  0.028640858            2 
  233000    1.1464105   -7.3219574    76.674547  0.027422942  0.028627821            3 
  234000     1.149951   -7.3482102    76.969213  0.027410688  0.028614385            2 
  235000    1.1609024   -7.3931883    77.051898  0.027323368  0.028599648            3 
  236000    1.1525953   -7.3905473    77.043704  0.027204698  0.028583065            3 
  237000     1.150601   -7.3783115    77.365017  0.027202889  0.028564984            3 
  238000    1.1959468   -7.3640945    77.737249  0.027218925  0.028546873            1 
  239000    1.1729701   -7.3398281    78.359489  0.027321998  0.028531061            2 
  240000    1.1461028   -7.3648831    78.149536  0.027135256  0.028513983            1 
  241000    1.1623216   -7.3506838    78.734777  0.027225026  0.028496733            1 
  242000    1.1809757   -7.3442005    78.783049  0.027129149  0.028480103            3 
  243000    1.1801658   -7.3767471    78.956688  0.027077053  0.028460531            3 
  244000    1.1606241   -7.3941138    78.947834  0.026963058  0.028440799            4 
  245000    1.1347942   -7.3614646    79.535833  0.027053004  0.028420177            2 
  246000    1.1689747   -7.3546487    79.819841  0.027039242  0.028399283            2 
  247000      1.15359    -7.360129    80.070267   0.02701426   0.02837855            1 
  248000    1.1480016   -7.3518984    80.037382  0.026894281  0.028357202            2 
  249000    1.1358655   -7.3789003    80.402685  0.026908529  0.028336791            2 
  250000    1.1421951   -7.3723566    80.717512  0.026905837  0.028315076            1 
  251000    1.1356278   -7.3725489     80.98412  0.026887158  0.028294493            3 
  252000    1.1706221   -7.3852989    81.204229   0.02685325  0.028273706            2 
  253000    1.1435575   -7.3665339        81.81   0.02694664  0.028252591            3 
  254000     1.128475   -7.3705458    82.374004  0.027025592  0.028233197            1 
  255000     1.151794   -7.3906675    82.440334  0.026941285  0.028214902            2 
  256000    1.1478674   -7.3561316    83.030527  0.027028166  0.028197803            2 
  257000    1.1374343   -7.3748964    83.022456  0.026920381  0.028180718            3 
  258000    1.1263139   -7.3672726    83.204147  0.026874724  0.028161674            2 
  259000    1.1624305   -7.4088261    83.519443  0.026872408  0.028141545            2 
  260000    1.1335546   -7.3682713    84.205019  0.026988788  0.028123034            2 
  261000    1.1839281   -7.3766958    84.199161  0.026883512  0.028105756            2 
  262000    1.1590487   -7.3395456    84.930828  0.027013622  0.028089769            2 
  263000    1.1469614   -7.3974597     84.85258  0.026886115  0.028073069            2 
  264000    1.1317574   -7.4004416    84.943773   0.02681306  0.028054224            3 
  265000    1.1569632   -7.3718421    85.386583  0.026851127  0.028035366            1 
  266000    1.1410294   -7.4032452    85.990328  0.026939326  0.028018858            2 
  267000    1.1288136   -7.4122668    86.033001  0.026851748  0.028001209            3 
  268000    1.1540004    -7.417879    86.204135  0.026804768  0.027984416            2 
  269000    1.1521115   -7.3547467    86.884723  0.026915961   0.02796734            3 
  270000    1.1461555   -7.3892963    87.161501  0.026901698   0.02795157            2 
  271000    1.1547716   -7.3678763    87.268607  0.026835365   0.02793493            3 
  272000    1.1835782   -7.3704247     87.72149  0.026875457  0.027917993            1 
  273000    1.1345916   -7.3904457    87.867463   0.02682157  0.027901658            2 
  274000    1.1498162   -7.3752698     88.17871  0.026818342  0.027884746            4 
  275000    1.1416272   -7.3758301    88.467479  0.026808327  0.027868274            1 
  276000    1.1182321   -7.4068205    88.626943  0.026759343  0.027851262            2 
  277000    1.1339422   -7.3851722    89.175905   0.02682789  0.027834183            2 
  278000    1.1226281   -7.4362326    89.109283  0.026711416   0.02781751            1 
  279000    1.1560574   -7.4671073    89.517946  0.026737738  0.027800714            1 
  280000    1.1430855    -7.370096     90.03487  0.026796092  0.027785703            1 
  281000    1.1547082   -7.3591645    90.554324  0.026854782  0.027770575            1 
  282000    1.1395098   -7.4034659    90.807139  0.026834261  0.027755959            1 
  283000    1.1506039   -7.3841006    90.671814  0.026699592  0.027740822            2 
  284000     1.147364   -7.4126497    91.178136  0.026754148  0.027726476            1 
  285000    1.1126475   -7.4332662    91.583948  0.026778932  0.027712563            3 
  286000    1.1450989   -7.4155873    91.963469  0.026795883  0.027699036            5 
  287000    1.1454707   -7.4125136    91.790237  0.026652217  0.027685235            1 
  288000    1.1170501   -7.4216634    92.251858  0.026693246  0.027670323            1 
  289000    1.1587128   -7.3862707    92.663335  0.026719531  0.027655413            2 
  290000    1.1363255   -7.4189807    93.332568  0.026819703  0.027641823            1 
  291000    1.1225819   -7.4184519    93.351673   0.02673301  0.027628354            1 
  292000    1.1467099   -7.4121014    93.867894  0.026788783  0.027615913            1 
  293000    1.1239401   -7.3998575    94.179261   0.02678591  0.027602812            2 
  294000    1.1486878   -7.4473384    94.270194  0.026720577  0.027589418            2 
  295000     1.117902   -7.4500573    94.497811  0.026694297  0.027576166            1 
  296000    1.1438337   -7.4355232    94.592575  0.026630792  0.027562395            1 
  297000    1.1197785   -7.4479378    94.963097  0.026645089  0.027548338            2 
  298000    1.1207004   -7.3730602    95.705679  0.026763333  0.027535599            2 
  299000     1.109313   -7.4303476    96.131762  0.026792576   0.02752463            2 
  300000    1.1249467   -7.4662825    96.099613  0.026694337  0.027513872            1 
  301000    1.1579883    -7.414202    96.512389  0.026719931  0.027503108            2 
  302000    1.1444142   -7.4001453    96.895575   0.02673719  0.027492468            2 
  303000    1.1167831   -7.4044602    97.435287  0.026797384  0.027482391            2 
  304000    1.1497241   -7.3796856    97.815007  0.026813324  0.027472655            1 
  305000    1.0951113   -7.4425553    98.012896   0.02677948  0.027462099            2 
  306000    1.1201415   -7.4467746    98.025393  0.026695368  0.027451197            1 
  307000    1.1241839   -7.4498114    98.048638  0.026614723  0.027439341            2 
  308000    1.1412009    -7.422935    98.510854   0.02665337  0.027426801            1 
  309000    1.1391749   -7.4194884     99.18202  0.026748118  0.027415323            3 
  310000    1.1195799   -7.4266272    99.118744  0.026644824  0.027404327            4 
  311000    1.1184605   -7.4318392    99.402272  0.026635121  0.027392329            3 
  312000    1.1168826   -7.4329557    99.842862  0.026667431   0.02738118            2 
  313000    1.1235377   -7.4243058    99.869601  0.026589351  0.027369259            1 
  314000    1.1204792   -7.4634006     100.0947   0.02656441  0.027357366            1 
  315000    1.1391711   -7.4419583    100.17679  0.026501796  0.027344545            1 
  316000    1.1140669   -7.4624563    100.62444  0.026535981  0.027331165            2 
  317000    1.1178515   -7.4794068    100.72594  0.026478955  0.027318673            1 
  318000    1.1198407   -7.4495351    101.10294  0.026494481  0.027305127            1 
  319000    1.1429104   -7.4604798    101.36762  0.026480571  0.027291823            1 
  320000      1.13446   -7.4176624    101.86649  0.026527731  0.027278415            4 
  321000     1.122497   -7.4276364    101.79831   0.02642739  0.027264413            1 
  322000    1.1212116   -7.4334566    102.26227  0.026465391  0.027250546            5 
  323000    1.1358921   -7.4819771    102.64464  0.026482106  0.027236727            1 
  324000    1.1248931     -7.47284    103.05154  0.026505027  0.027224661            2 
  325000    1.1280109   -7.4092013    103.88541  0.026637285  0.027213466            3 
  326000    1.0946668   -7.4062222    104.25901  0.026651077  0.027203208            2 
  327000     1.101065   -7.4839058    103.65138  0.026414726  0.027192517            2 
  328000    1.1354892   -7.4899121    104.36861  0.026516416  0.027181095            2 
  329000    1.1392633   -7.4261075    104.83483  0.026553908  0.027171209            2 
  330000    1.1450448   -7.4563375    104.94111  0.026500281  0.027160896            2 
  331000    1.0958977   -7.5188527    104.77172  0.026377574  0.027148776            1 
  332000    1.1072694   -7.4535871    105.17544  0.026399458  0.027136561            5 
  333000    1.0941227   -7.4388192    105.74209  0.026461985   0.02712432            2 
  334000    1.0950608   -7.4707194    105.37614  0.026291452   0.02711128            2 
  335000    1.1376114   -7.4651377    105.68135  0.026288894   0.02709711            2 
  336000    1.1107701   -7.4348379    106.12411  0.026320463    0.0270829            2 
  337000    1.1427032   -7.4291433    106.15752  0.026250624  0.027068779            4 
  338000    1.1134356   -7.4303671    106.50785  0.026259332  0.027054222            3 
  339000    1.1442228   -7.4490476    106.69164   0.02622705  0.027039546            3 
  340000    1.1413904   -7.4046704    106.91236   0.02620401  0.027025193            3 
  341000    1.1203144   -7.4772145    106.98027  0.026143761  0.027010046            2 
  342000    1.1199915   -7.4393173    107.51933  0.026198668  0.026994859            1 
  343000     1.129227   -7.4425372    107.03607  0.026004875  0.026979412            2 
  344000     1.133673   -7.4792151    107.30709  0.025994934  0.026963335            4 
  345000    1.1480481   -7.4573343    107.89834  0.026062401  0.026947142            4 
  346000    1.1435406   -7.4352062    108.17849  0.026054549  0.026930306            4 
  347000    1.0898205   -7.4772085    108.02704  0.025943094  0.026914037            1 
  348000    1.1193045   -7.4692926    108.53059  0.025989127  0.026896703            2 
  349000    1.1166945   -7.4672148    108.62702  0.025937684  0.026879447            1 
  350000     1.085278   -7.5068704    108.76465  0.025896345  0.026861709            1 
  351000    1.1106323   -7.4694953    109.20238  0.025926492  0.026844257            3 
  352000     1.105763   -7.4517954    109.28651  0.025872752  0.026827118            2 
  353000    1.1009888   -7.4920919    109.72207  0.025902283  0.026809602            4 
  354000    1.1031299   -7.4763396    110.00898  0.025896652  0.026792302            2 
  355000    1.1179242   -7.4858729    110.46444  0.025930619  0.026774756            3 
  356000    1.1344099   -7.4844335    110.68972  0.025910515  0.026758905            3 
  357000    1.0881541   -7.4723981    110.72732  0.025846713  0.026742029            2 
  358000     1.099463   -7.4540168    111.24022  0.025893906  0.026725209            3 
  359000    1.1214892   -7.4718476    111.63347  0.025913063   0.02670895            2 
  360000    1.1315505   -7.4915406    111.19419  0.025739395  0.026691769            2 
  361000     1.111747   -7.4908222    112.00639  0.025855585  0.026675136            2 
  362000    1.1049171   -7.5046832    112.09455  0.025804455  0.026658655            4 
  363000    1.1050285   -7.4875757    112.33094  0.025787635  0.026642557            2 
  364000    1.1147994   -7.5290945    112.60285  0.025779041  0.026625889            3 
  365000    1.1346354   -7.4548259    113.34983  0.025878956  0.026609443            2 
  366000    1.0986785    -7.484562    113.35301  0.025808974  0.026594278            2 
  367000    1.0963406   -7.5094788     113.5059  0.025773365  0.026578677            2 
  368000    1.1015429   -7.4974953    113.92468   0.02579816  0.026563119            3 
  369000     1.122804   -7.4837689    114.24593  0.025800797  0.026547209            3 
  370000    1.0941376   -7.4989256    114.14969  0.025709389  0.026530944            1 
  371000    1.0832672   -7.4807432    114.08667  0.025625937  0.026513654            2 
  372000     1.128781   -7.4884775    114.39397  0.025625889  0.026496813            1 
  373000    1.0971534   -7.4878893    114.55995  0.025594269  0.026479371            2 
  374000    1.1095479   -7.4863716    115.14225  0.025655581  0.026462109            2 
  375000    1.1228642   -7.4550401    115.41776  0.025648392  0.026444843            2 
  376000    1.0897113    -7.476405    115.98013  0.025704815  0.026427214            1 
  377000    1.1006769   -7.5066582    115.71399  0.025577806  0.026410405            2 
  378000    1.1129102   -7.4958669    116.39833  0.025661008   0.02639379            2 
  379000    1.1015758   -7.4887216    116.43738  0.025601886  0.026377103            3 
  380000    1.1069265    -7.486256    116.64147  0.025579269  0.026360629            3 
  381000    1.0956265   -7.4825051    116.95429  0.025580554  0.026344265            4 
  382000    1.0913819   -7.5446705    116.86685  0.025494513  0.026327354            2 
  383000    1.0640788   -7.4706762    117.38414    0.0255405  0.026310621            2 
  384000    1.1033669   -7.4931685    117.04042  0.025399397  0.026294031            2 
  385000    1.1273266   -7.5184117    117.40149  0.025411577  0.026276748            3 
  386000    1.0959167   -7.5217733    117.49003  0.025364861  0.026259139            2 
  387000    1.1136117   -7.5081297    117.99478  0.025408006  0.026241385            2 
  388000    1.1040622   -7.5613754    118.07254  0.025359222  0.026223823            3 
  389000    1.0896754   -7.5124565    118.45023  0.025374941  0.026206486            2 
  390000    1.0935619   -7.5450874    118.87211  0.025400024    0.0261892            1 
  391000    1.0908702   -7.5358381     118.6481   0.02528732  0.026171602            1 
  392000    1.1215492   -7.5191138    119.30276  0.025361981  0.026154132            1 
  393000    1.0962842   -7.5363875    119.68047  0.025377538  0.026136512            3 
  394000    1.0864878   -7.5788087    120.04269   0.02538974  0.026119583            3 
  395000    1.0834275   -7.5368443    120.04586  0.025326131  0.026102536            2 
  396000     1.107835   -7.5111305    120.40011  0.025336722  0.026085437            3 
  397000    1.1128181    -7.500782    120.67849  0.025331338  0.026068612            1 
  398000     1.101794   -7.5371971    120.42633  0.025214894  0.026052283            2 
  399000    1.1074775   -7.5576773    121.11253  0.025295014  0.026035654            3 
  400000     1.085464   -7.5646939    121.43869  0.025299727  0.026018878            2 
  401000    1.1046761   -7.4980775    121.67493   0.02528573  0.026002206            1 
  402000    1.0937264   -7.4962755    122.36222  0.025365303  0.025986055            5 
  403000    1.0725059   -7.5477332    121.99738  0.025226918  0.025969903            1 
  404000    1.0889917   -7.5165618    122.31325  0.025229631  0.025952746            3 
  405000    1.0757122   -7.5127153    122.51788   0.02520944  0.025935832            1 
  406000     1.088657   -7.5430001    122.30836  0.025104343  0.025918934            2 
  407000    1.0873446   -7.5030231    123.23981  0.025233377  0.025902345            1 
  408000    1.1063063   -7.5699245    122.95979  0.025114336  0.025884921            4 
  409000    1.0970303   -7.5260971    123.29971  0.025122189  0.025867297            1 
  410000    1.0676764   -7.5340258    123.32697  0.025066458  0.025849903            2 
  411000    1.0872555   -7.5544391    123.73275  0.025087742  0.025832715            3 
  412000    1.1167776   -7.5365144    123.90451  0.025061591  0.025815553            2 
  413000    1.1046443   -7.5481844    123.94591  0.025009263  0.025797881            2 
  414000    1.0792063   -7.5606843    123.78662  0.024916791  0.025779862            2 
  415000    1.1041893     -7.54075    124.11019  0.024921725  0.025761685            3 
  416000    1.0946315   -7.5487866    124.44494  0.024928875  0.025743432            2 
  417000    1.0778295    -7.562884    124.65613  0.024911297  0.025725027            3 
  418000    1.0761216    -7.546741    124.74516   0.02486945  0.025706433            9 
  419000    1.0643902   -7.5303039    124.92235  0.024845336  0.025687862            3 
  420000    1.0876691   -7.5538214    125.57936  0.024916539  0.025669488            6 
  421000    1.0894291   -7.5021126    125.73381  0.024887927  0.025651429            2 
  422000    1.0608836   -7.5551386    125.51784  0.024786304  0.025633093            1 
  423000    1.0896123   -7.5636669    125.65331  0.024754395  0.025615151            1 
  424000    1.0838853   -7.5215718    126.43526  0.024849697  0.025597226            2 
  425000    1.0839416   -7.5618616    126.28592  0.024761944  0.025579264            4 
  426000    1.0736889   -7.5686582    126.41595  0.024729255   0.02556084            3 
  427000    1.0872124   -7.5361884    127.10756  0.024806316  0.025542606            3 
  428000    1.0971248   -7.5611232    127.28487   0.02478288  0.025524372            2 
  429000    1.0670629   -7.5169839    127.67222  0.024800354  0.025506679            2 
  430000     1.101312   -7.5449354    128.06809  0.024819397   0.02548918            3 
  431000    1.0816485   -7.5540919    128.06055  0.024760354  0.025471248            3 
  432000    1.1041313   -7.5726011    127.67047  0.024627791   0.02545315            3 
  433000    1.1005618   -7.5075503    128.28312  0.024688822  0.025434731            8 
  434000    1.0647707   -7.5730396     128.0309  0.024583506  0.025416528            2 
  435000    1.0784199   -7.5565559    128.96558  0.024706049  0.025398411            3 
  436000    1.0747869   -7.5214478    129.20244  0.024694657  0.025380259            8 
  437000    1.0911812   -7.5498273    129.28154  0.024653229  0.025362631            1 
  438000    1.1025893   -7.5664616    129.48482   0.02463562  0.025344547            2 
  439000    1.0739353   -7.5848919    129.11955  0.024510165  0.025326549            5 
  440000    1.0772966   -7.5729939     129.7609  0.024575928  0.025308469            3 
  441000    1.0817493   -7.5862845    130.25121  0.024612851  0.025290779            2 
  442000    1.0602086   -7.5477338    130.63954   0.02463038   0.02527311            2 
  443000    1.0905231   -7.5613706    130.52385  0.024553019  0.025255129            3 
  444000    1.0939601   -7.6017556    130.31731  0.024458954  0.025237075            3 
  445000    1.0778246   -7.6168851    130.35202   0.02441049  0.025218659            3 
  446000    1.0572697   -7.6165787    130.50867  0.024385029  0.025199936            2 
  447000    1.0607944   -7.5246766    131.41758  0.024499921  0.025181709            5 
  448000    1.0676147   -7.6145091    130.86929  0.024343245  0.025163132            3 
  449000     1.069019   -7.5793191    131.27307   0.02436397  0.025144416            3 
  450000    1.0926625   -7.5872901    131.64624  0.024378933  0.025125907            1 
  451000    1.0568911   -7.5625687    131.88935  0.024369798  0.025107177            7 
  452000    1.0731792   -7.5647631    131.93693  0.024324655  0.025088625            4 
  453000    1.0772141   -7.5853603    131.89283  0.024262846  0.025069783            1 
  454000    1.0882239   -7.5885163    132.36343  0.024295784  0.025050729            3 
  455000    1.0643937   -7.5663461    132.59456  0.024284717  0.025031645            2 
  456000    1.0665646   -7.5806849    132.64383  0.024240466  0.025012546            1 
  457000    1.0833656   -7.5186068    133.14096  0.024278074  0.024993734            3 
  458000    1.0982312   -7.5469767    133.23372  0.024241943  0.024974485            2 
  459000    1.0864313   -7.5528962    133.37713  0.024215166  0.024955415            2 
  460000     1.065132   -7.6285465    133.42737  0.024171625  0.024936455            3 
  461000    1.0477017   -7.5736888    133.75405  0.024178244  0.024917392            4 
  462000    1.0779272   -7.6339197    133.69016  0.024114387  0.024898694            3 
  463000    1.0700257   -7.6047867    133.94642  0.024108426  0.024880055            1 
  464000     1.094021   -7.5535715      134.554  0.024165589  0.024861849            1 
  465000    1.0954645   -7.5682633    134.95409  0.024185321  0.024843774            5 
  466000    1.0781484   -7.5590463    135.15759  0.024169812  0.024826141            3 
  467000     1.070229   -7.6158083    134.87481  0.024067597   0.02480828            3 
  468000    1.0523268   -7.6025997     135.4494  0.024118483  0.024789604            1 
  469000    1.0727519   -7.6391607    134.75221   0.02394318   0.02477063            2 
  470000    1.0446232    -7.638308    135.27923  0.023985679  0.024751499            2 
  471000    1.0710884   -7.6149642    135.57027  0.023986248  0.024732728            3 
  472000    1.0882249   -7.6144823     135.7935  0.023974841  0.024714134            3 
  473000    1.0541585   -7.5659373    136.36389  0.024024646  0.024696091            4 
  474000    1.0550057   -7.6033795    136.50986  0.023999623  0.024678734            2 
  475000    1.0517169   -7.6266232    136.94893  0.024026129  0.024660868            2 
  476000    1.0831884   -7.6168047    137.35029  0.024045919  0.024642979            2 
  477000    1.0871115    -7.626509    137.36391  0.023997887  0.024626005            2 
  478000    1.0966797   -7.5855501    137.82979  0.024028903  0.024609108           10 
  479000    1.0607561    -7.588496    137.84022  0.023980553  0.024591887            2 
  480000    1.0593383   -7.5774549    138.00774  0.023959677  0.024574378            2 
  481000    1.0756272   -7.5947375    138.18227  0.023940102  0.024556495            2 
  482000     1.049133   -7.5885041    138.52748  0.023950118  0.024539189            2 
  483000    1.0396313   -7.6116415    138.27877   0.02385762   0.02452173            2 
  484000    1.0593288   -7.6257253    138.53635  0.023852677  0.024504186            1 
  485000    1.0483239   -7.5964085    139.20882  0.023919041  0.024486355            2 
  486000    1.0809147   -7.5917862    139.45798  0.023912549  0.024468662            2 
  487000    1.0850187   -7.6108405    139.34021  0.023843294  0.024451043            2 
  488000    1.0722307      -7.6476    139.52888  0.023826653  0.024433419            2 
  489000    1.0583003   -7.5866512    139.75033  0.023815667  0.024415651            3 
  490000    1.0582713   -7.6692196    139.49836   0.02372421  0.024397317            1 
  491000    1.0725883   -7.6242153    139.79426  0.023726113  0.024378935            3 
  492000    1.0595866   -7.6359024    139.87918  0.023692273  0.024360541            5 
  493000    1.0581484   -7.6529218    140.02759  0.023669301  0.024342029            2 
  494000     1.052841   -7.6203283    140.40982  0.023685867  0.024323951            3 
  495000    1.0553375   -7.6704574    140.83478  0.023709559  0.024305832            4 
  496000    1.0356116   -7.6381779    140.84575    0.0236636  0.024287873            1 
  497000     1.074757   -7.6451966    140.70918  0.023593088  0.024269959            3 
  498000    1.0650142   -7.6147655    141.14549  0.023618724  0.024251783            1 
  499000    1.0693472   -7.6004642    141.47483   0.02362639  0.024233628            3 
  500000    1.0418024   -7.5811089    141.69845  0.023616408  0.024215903            3 
  501000    1.0341276    -7.652636    141.67525  0.023565411  0.024197833            3 
  502000    1.0571521   -7.6135572     141.9183  0.023558815  0.024179823            4 
  503000    1.0683461   -7.5917221    142.10741  0.023543308  0.024162125            2 
  504000    1.0510179   -7.6135886    142.32846  0.023533145  0.024144042            2 
  505000    1.0428412   -7.5952579    142.41577  0.023500951  0.024125938            2 
  506000    1.0397779   -7.6670224     142.4438  0.023459124  0.024108027            2 
  507000     1.034967   -7.6093682     142.9201   0.02349114  0.024090135            3 
  508000    1.0521374     -7.62415    143.47125   0.02353531  0.024072424            3 
  509000    1.0571023   -7.6560847    143.28452  0.023458501  0.024054645            3 
  510000    1.0483915   -7.6732115    143.68834  0.023478487  0.024036527            2 
  511000    1.0544271   -7.5945184    143.78556  0.023448396  0.024018673            3 
  512000    1.0240477   -7.6395875    143.73087  0.023393696  0.024001211            2 
  513000    1.0438154   -7.6537992    143.90797  0.023376863  0.023983389            3 
  514000    1.0703463   -7.6998547    144.37576  0.023407224  0.023965671            2 
  515000    1.0564754   -7.6525804    143.89365  0.023283763  0.023947528            3 
  516000    1.0473186   -7.6424378       144.69  0.023367247  0.023929273            3 
  517000    1.0573915    -7.633369    144.36268  0.023269291  0.023911217            2 
  518000    1.0460831   -7.6644563    144.25195  0.023206556  0.023892819            2 
  519000    1.0362572   -7.6597717    144.75521  0.023242648  0.023874452            3 
  520000    1.0218744    -7.679025    144.95082  0.023229298  0.023856285            2 
  521000    1.0375681   -7.6721809     145.2742  0.023236436  0.023837907            5 
  522000    1.0382333    -7.696508    145.45022  0.023220023  0.023819663            4 
  523000     1.050022   -7.6973772    145.47536  0.023179631  0.023801691            5 
  524000    1.0300772   -7.6149082    146.69159  0.023328815  0.023784293            3 
  525000     1.037159   -7.6752014     146.0762  0.023186699  0.023767039            6 
  526000    1.0525484   -7.6175629    146.85405   0.02326585  0.023749891            2 
  527000    1.0316401   -7.6698003    147.13709   0.02326646  0.023733068            1 
  528000    1.0321209   -7.6643354    147.59282  0.023294322  0.023716477            2 
  529000    1.0357935   -7.6752678    147.20999   0.02318998   0.02369985            3 
  530000    1.0486142   -7.6907073    147.54716  0.023199239  0.023683077            5 
  531000    1.0501238   -7.6173776    148.15709  0.023251269  0.023666735            2 
  532000    1.0492616   -7.6445086    148.33394  0.023235266  0.023650761            4 
  533000    1.0422761   -7.6345372    148.84438  0.023271478  0.023634888            7 
  534000    1.0338831   -7.6777782      148.585  0.023187422  0.023618835            2 
  535000    1.0454294   -7.6888494    149.07074  0.023219741  0.023602877            3 
  536000    1.0509685   -7.6776275     149.3481  0.023219542  0.023587286            5 
  537000    1.0292803   -7.6748249    149.45555  0.023192978  0.023571895            1 
  538000    1.0326584   -7.6992806    149.78076  0.023200241  0.023556318            2 
  539000    1.0583687   -7.6666964     150.3901  0.023251407  0.023540839            4 
  540000    1.0436977    -7.701637    150.26506  0.023189053  0.023525172            2 
  541000    1.0462919   -7.6501322    150.39571  0.023166314  0.023509799            3 
  542000    1.0302913   -7.6416972    150.61104  0.023156678  0.023494759            1 
  543000    1.0167896    -7.616067    151.42999  0.023239716  0.023479937       -1e+20 
  544000     1.047835   -7.6902748    150.95259  0.023123865  0.023465067            6 
  545000    1.0279191   -7.6643105    151.54849  0.023172552  0.023450254            2 
  546000    1.0331226   -7.6099842    151.53312  0.023127766  0.023435224            3 
  547000    1.0283498   -7.7023229    151.51069  0.023082067  0.023419905            5 
  548000    1.0201174   -7.6458558    152.36168  0.023169355  0.023404562            9 
  549000    1.0419724   -7.6508555    152.22336  0.023106157  0.023389794            3 
  550000    1.0126825   -7.6785585    152.00361   0.02303085  0.023374931            4 
  551000    1.0135952   -7.6875946    152.55148  0.023071911  0.023359875            2 
  552000    1.0294514   -7.6792711    152.69601  0.023051934  0.023344971            1 
  553000    1.0372794    -7.691975    152.91975  0.023043965  0.023329996            2 
  554000    1.0078842   -7.6706062    153.24219  0.023050871  0.023315319            4 
  555000    1.0218173    -7.662041    153.64271  0.023069476  0.023300869            1 
  556000    1.0384344   -7.7018277    153.41004  0.022993111  0.023285868            2 
  557000    1.0469543    -7.690135    153.30267  0.022935767  0.023271145            1 
  558000    1.0392693   -7.6539458    154.04092  0.023004917   0.02325626            3 
  559000    1.0342851   -7.6656932     154.3335  0.023007379   0.02324159            1 
  560000    1.0329887   -7.6860549     154.3331  0.022966235  0.023226426            3 
  561000    1.0148202   -7.7198666    154.02988  0.022880255  0.023211066            3 
  562000    1.0504998   -7.6914042    154.14323  0.022856351   0.02319537            2 
  563000    1.0361604   -7.7025596    154.08374  0.022806947  0.023179591            3 
  564000    1.0351565   -7.7315292     153.9736  0.022750237   0.02316362            1 
  565000    1.0495621   -7.7221859     153.9844  0.022711564  0.023147084            2 
  566000    1.0343338   -7.7021765    154.51666  0.022749803  0.023130481            3 
  567000    1.0211767   -7.7449827    154.38901  0.022690919   0.02311398            2 
  568000    1.0357053    -7.699553    154.94131  0.022731999  0.023097698            6 
  569000    1.0273339    -7.670336    155.55726  0.022782258  0.023081552            3 
  570000    1.0182252   -7.7450205    155.45421  0.022727224  0.023065889            2 
  571000    1.0369475   -7.6976355    155.15392  0.022643595  0.023050068            2 
  572000    1.0187833   -7.7255789    155.84992  0.022705407  0.023034004            2 
  573000    1.0358068   -7.6709326    155.66619  0.022639062   0.02301804            2 
  574000    1.0087672   -7.7043363    155.60523  0.022590771  0.023002051            3 
  575000    1.0228877    -7.739717    155.91297  0.022596083  0.022986327            7 
  576000    0.9951715   -7.7180321    155.87164  0.022550874   0.02297007            7 
  577000    1.0105598   -7.6759675    156.83335  0.022650685  0.022954099            1 
  578000    1.0208872   -7.7778089    155.93988  0.022482682  0.022938643            3 
  579000    1.0195153   -7.7496837     156.6473  0.022545667  0.022922666            2 
  580000     1.025325   -7.7385898    156.84926  0.022535813  0.022906335            3 
  581000       1.0392   -7.6899855    157.42081  0.022579004  0.022890219            2 
  582000    1.0122537   -7.7396334    157.13355  0.022499077  0.022874022            1 
  583000    1.0193804   -7.7251328    157.17926  0.022467018  0.022858024            2 
  584000    1.0082892   -7.7373761    157.24822  0.022438388  0.022841765            8 
  585000    1.0345519   -7.7587646    157.29115  0.022406147  0.022825389            2 
  586000    1.0348676   -7.7393145     157.3318  0.022373692  0.022808826            2 
  587000    1.0176077   -7.7393628    158.06251  0.022439312  0.022792234            6 
  588000    1.0144416   -7.7354718    158.16479  0.022415645  0.022776007            2 
  589000    1.0223491   -7.7141615    158.55007  0.022432099  0.022759961            3 
  590000    1.0188438   -7.7246367    158.19841  0.022344409  0.022743804            7 
  591000    1.0299183   -7.7423725    158.14716  0.022299373  0.022727366            3 
  592000   0.99273267    -7.773479    158.30368  0.022283739  0.022710955            2 
  593000    1.0301895   -7.7499193    158.90933  0.022331271  0.022694496            5 
  594000    1.0360566    -7.779765    158.71646  0.022266619  0.022677645            6 
  595000    1.0174797   -7.7589513    158.63434  0.022217695   0.02266098            2 
  596000    1.0307428   -7.7469352    159.39684   0.02228703  0.022644407            3 
  597000    1.0118097   -7.7250101     159.4598  0.022258487  0.022628434            6 
  598000    1.0115962   -7.7422485    159.65992  0.022249152  0.022612152            9 
  599000    1.0227252   -7.7387188    159.14244  0.022140016  0.022595854            3 
  600000    1.0094545   -7.7822834     159.6157  0.022168847  0.022579285            8 
  601000    1.0211282   -7.7450735    160.18001  0.022210206  0.022563247            3 
  602000    1.0112787   -7.6950013    160.50415  0.022218183  0.022547315            2 
  603000   0.99826961   -7.7134644    160.78006  0.022219466  0.022531536            3 
  604000    1.0259373   -7.7643747    160.53867  0.022149375  0.022515614            4 
  605000    1.0008996   -7.7486661      160.831  0.022153031   0.02249969            4 
  606000    1.0133079   -7.7643209    161.19015  0.022165862  0.022483657            5 
  607000    1.0102136   -7.7607292    161.58601  0.022183691  0.022467797            4 
  608000    1.0015844   -7.7820059     161.4657  0.022130716  0.022452309            3 
  609000     1.004249   -7.7565187    161.81843  0.022142642  0.022436851            6 
  610000    1.0340001   -7.7391865    161.97742  0.022128063  0.022421269            3 
  611000    1.0020737   -7.7460479    162.03348  0.022099493  0.022405546            2 
  612000    0.9918755   -7.7590276    161.81258  0.022033303  0.022389816            1 
  613000    1.0062014   -7.7393926    162.73078  0.022122184   0.02237436            2 
  614000    1.0163839   -7.7786443      162.105  0.022001222  0.022358738            3 
  615000    1.0067576   -7.7282106    163.45015  0.022147717  0.022343342            6 
  616000   0.99250893   -7.7549737    162.77371  0.022020253   0.02232822            1 
  617000    1.0003471    -7.771728    163.12005  0.022031341  0.022312717            4 
  618000     1.026609   -7.7606365    163.49496  0.022046245  0.022297728            3 
  619000    1.0066417   -7.7191917    164.00474  0.022079259  0.022282792            3 
  620000   0.98997257   -7.7264303    164.27452  0.022079909  0.022267753            3 
  621000    1.0334504   -7.7614353    164.01625  0.022009696  0.022252614            3 
  622000    1.0214595   -7.7447145    164.30129  0.022012499   0.02223749            5 
  623000   0.99773655   -7.7559893    164.13066  0.021954342  0.022222018            3 
  624000    1.0289316   -7.7399181     164.9583  0.022029687  0.022206842            3 
  625000   0.99370685   -7.8084783     163.9051  0.021854014  0.022191714            2 
  626000    1.0029266    -7.802104    164.38893   0.02188351  0.022176266            3 
  627000     1.001574   -7.7926166    164.66023  0.021884666  0.022161035            4 
  628000    1.0030328    -7.775354    165.00979  0.021896204   0.02214568            4 
  629000    1.0115189    -7.825422     165.0694  0.021869289  0.022130185            2 
  630000    1.0034422   -7.7819291    165.18788  0.021850249  0.022114937            3 
  631000    1.0026111   -7.7768785     165.6613  0.021878144  0.022099772            2 
  632000    1.0119297   -7.7966541    165.84929  0.021868314   0.02208449            3 
  633000     1.015449    -7.751384    166.10005  0.021866778   0.02206914            2 
  634000    1.0173513   -7.7767286    165.46588  0.021748932  0.022054202            5 
  635000   0.98568765   -7.7657109    165.88545  0.021769744  0.022038975            4 
  636000   0.99123436   -7.7616903    166.30095  0.021789957  0.022023731            2 
  637000   0.99015507   -7.7917288    166.88276  0.021831863   0.02200874            8 
  638000    1.0276117   -7.7783459    166.45655  0.021741973  0.021993464            3 
  639000    1.0102226   -7.7554533    167.00466  0.021779429  0.021978231            3 
  640000    1.0098236   -7.8010931    166.41698  0.021668878  0.021963162            2 
  641000    1.0000086   -7.7337684    167.65551  0.021796088  0.021948242            6 
  642000    1.0010001   -7.7894741    166.98178  0.021674686  0.021933075            2 
  643000   0.98078512   -7.7928754    167.42973  0.021699032   0.02191752            2 
  644000   0.99464862   -7.8298965    167.33156  0.021652635  0.021901829            3 
  645000    1.0067222    -7.816795    167.07908  0.021586444  0.021886288            7 
  646000   0.98985692     -7.80724    167.57317  0.021616767  0.021870886            2 
  647000      1.00554   -7.7706416    167.67983  0.021597093  0.021855297            3 
  648000   0.97988933   -7.7695362     168.1083  0.021618865  0.021839844            2 
  649000   0.98704964   -7.7855599    168.00199  0.021571905    0.0218244            2 
  650000   0.97597127   -7.7838906     167.8619  0.021520756  0.021808865            3 
  651000   0.98202057    -7.775673    167.69967  0.021466932  0.021793214            1 
  652000   0.99739762   -7.7964795    168.18954  0.021496618  0.021777277            3 
  653000   0.98506661    -7.809456    168.61615  0.021518141   0.02176159            3 
  654000   0.98559964   -7.7689602    168.82794  0.021512225   0.02174574            2 
  655000    1.0061121   -7.7963531    168.78681  0.021474149  0.021730057            4 
  656000   0.97065219   -7.8058214    168.81097  0.021444483  0.021714204            3 
  657000   0.97623629   -7.7823651    168.85831  0.021417847  0.021698295            2 
  658000    1.0034051   -7.8335298    168.42366   0.02133025  0.021682192            3 
  659000    1.0029715   -7.8518713    168.48094  0.021305127  0.021665954            2 
  660000   0.98733568   -7.7997194     168.9252  0.021328939  0.021649546            1 
  661000   0.99574294   -7.8210585     168.8213  0.021283573  0.021633165            3 
  662000   0.97980463   -7.8668235    168.61331   0.02122524  0.021616381            3 
  663000   0.98462748   -7.8205238    169.68669  0.021328141   0.02160004            5 
  664000   0.97269931   -7.8172782    169.63742  0.021289836  0.021583802            5 
  665000   0.97917969   -7.7666219    169.68481  0.021263761  0.021567475            4 
  666000   0.99303464   -7.7777402    169.73847  0.021238548  0.021551099            2 
  667000    1.0145689   -7.8009882    169.51698  0.021179033  0.021534653            4 
  668000   0.97674105   -7.7995629    169.73987  0.021175134  0.021518205            2 
  669000   0.99145271   -7.8156446    170.06892  0.021184469  0.021501506            8 
  670000   0.96599185   -7.8418252    169.76851  0.021115487   0.02148499            8 
  671000   0.97940278   -7.8247048     169.9888  0.021111376  0.021468359            4 
  672000   0.97945601   -7.8231513     169.9996    0.0210813  0.021451977            2 
  673000   0.98883551   -7.8390034    170.04546  0.021055654  0.021435461            6 
  674000   0.98112389   -7.8597101    170.34071  0.021060919  0.021418729            3 
  675000   0.98871359   -7.8280024    170.28842  0.021023262  0.021402089            3 
  676000   0.97872329     -7.81656    170.38348  0.021003881  0.021385491            3 
  677000   0.98263377   -7.8513245     170.2746  0.020959453   0.02136873            2 
  678000     1.003969   -7.8178983    170.86014  0.021000509  0.021352025            2 
  679000   0.97713921   -7.8725411    170.68391  0.020947951  0.021335171            3 
  680000    1.0045441   -7.8381395    170.68805  0.020917654  0.021318624            6 
  681000   0.99474537   -7.8164641    171.68622  0.021009082  0.021302066            3 
  682000    1.0004616    -7.854122    171.43145  0.020947147   0.02128562            6 
  683000   0.96410118   -7.8421045    171.26771  0.020896499  0.021269024            3 
  684000   0.99866507    -7.828634    171.48799  0.020892786  0.021252506            4 
  685000   0.98304506   -7.8262458    171.88436  0.020910506  0.021236045            6 
  686000   0.98071009   -7.7871659    172.38487  0.020940825  0.021219745            7 
  687000   0.98450944   -7.8033424    172.14738  0.020881535  0.021203436            4 
  688000    0.9866251   -7.8120085    173.04596  0.020960025  0.021186942            4 
  689000   0.98210622   -7.8463994    172.26598  0.020835266  0.021170535            6 
  690000   0.97988684   -7.8763246    172.43021  0.020824904  0.021153852            3 
  691000   0.97117541   -7.8490083     171.9494  0.020736783  0.021137306            2 
  692000   0.97644368    -7.848754    172.68078  0.020794891  0.021120741            3 
  693000    1.0001129   -7.8311496    172.68585  0.020765494   0.02110424            5 
  694000   0.98905266   -7.8502598    172.64287  0.020730411  0.021087662            7 
  695000    1.0076511    -7.855751    172.77442  0.020716357  0.021071038            6 
  696000    0.9908828   -7.7942324    173.30455  0.020750066  0.021054449            5 
  697000   0.96913102   -7.8423005    173.17544  0.020704859  0.021038048            3 
  698000   0.95422792   -7.8682731    173.34776  0.020695769  0.021021608            4 
  699000   0.96613862   -7.8093501    174.50833  0.020804522  0.021005492            3 
  700000   0.96588807     -7.83408     174.0463  0.020719797  0.020989356            5 
  701000   0.97742853   -7.8389059    173.85452  0.020667442  0.020973118            4 
  702000   0.98382698   -7.8594859    174.13727  0.020671566  0.020956925            3 
  703000   0.97715025   -7.8491187    174.16745  0.020645739  0.020940763            2 
  704000    0.9653922   -7.8660197    174.62423  0.020670481  0.020924412            5 
  705000   0.98783958   -7.8423528    174.99498  0.020684986  0.020908092            2 
  706000    0.9873152   -7.8465866    174.95069  0.020650459  0.020891966            3 
  707000   0.99623243   -7.8036582    175.36709  0.020670331  0.020876152            3 
  708000   0.97783612   -7.8385018     174.8932  0.020585358  0.020860127            2 
  709000   0.97269603   -7.8683658    174.74182  0.020538531  0.020843889            2 
  710000   0.96813399   -7.8581654    174.79521  0.020515869  0.020827591            4 
  711000   0.97695364   -7.8818268    174.71467  0.020477575  0.020811311            3 
  712000   0.97613482   -7.8791669    175.34209  0.020522249  0.020795128            8 
  713000   0.96165805   -7.8493054    175.19365  0.020476116  0.020779046            9 
  714000   0.96989997   -7.8902554    175.22561  0.020451169  0.020762975            3 
  715000   0.94051739   -7.8939814    175.08221  0.020405852  0.020746884            3 
  716000   0.95541203   -7.8765756    175.52103  0.020428426   0.02073043            4 
  717000   0.93704911   -7.8095849    176.44146  0.020506911   0.02071424            3 
  718000   0.96545817   -7.9118345     175.6635  0.020388057  0.020698031            4 
  719000   0.99460203   -7.8673644    175.76088  0.020370987  0.020681672            3 
  720000   0.94158574   -7.8497377    176.39022  0.020415535   0.02066538            4 
  721000   0.94328895   -7.8497203    176.18341  0.020363316  0.020649186            4 
  722000   0.96471571   -7.8311614    176.33437  0.020352535  0.020633095            3 
  723000   0.97368325   -7.8970758    176.41292   0.02033344  0.020616995            2 
  724000   0.94200032   -7.8949964    176.85415   0.02035614  0.020601046            9 
  725000   0.96685784   -7.8867349     176.6039  0.020299298   0.02058493            2 
  726000   0.97826187   -7.8934148    176.96886   0.02031323  0.020568922            4 
  727000   0.96787726   -7.9031182    177.17084  0.020308441  0.020552762            4 
  728000   0.97358847   -7.8438975    177.59143  0.020328689  0.020536922            5 
  729000   0.96792002   -7.8684411    177.69658  0.020312823  0.020521058            4 
  730000   0.97100087   -7.8428151    177.62057  0.020276321  0.020505343            3 
  731000   0.96121699   -7.8719277     178.1147  0.020304913  0.020489842            2 
  732000   0.95566392   -7.8668242    178.25129  0.020292724  0.020474218            1 
  733000   0.97168608   -7.8938529    177.96642  0.020232653   0.02045856            3 
  734000   0.97665577   -7.8910431     177.6512    0.0201693  0.020442604            4 
  735000   0.94581443   -7.8798296    177.95405  0.020176197  0.020426633            5 
  736000   0.95689221   -7.9043244    177.97297  0.020150924  0.020410612            4 
  737000   0.97733921   -7.9205998    178.16291  0.020145059  0.020394666            3 
  738000    0.9541392   -7.8861326    178.78617   0.02018814  0.020378708            3 
  739000   0.94584043   -7.8650319    178.85809  0.020168932  0.020363052            2 
  740000   0.96622597   -7.8657967    179.33472  0.020195352  0.020347481           11 
  741000   0.97062073   -7.9297327     178.3131  0.020053205  0.020331714            6 
  742000    0.9441336   -7.8843583     178.7446   0.02007464  0.020315725            7 
  743000   0.95869696    -7.943442    179.16971  0.020095301  0.020299589            2 
  744000   0.96271392   -7.9331396    178.87311  0.020035071  0.020283591            4 
  745000   0.95174344   -7.8848653    179.40284  0.020067432  0.020267912            2 
  746000   0.97103395   -7.9048246    179.41825  0.020042253  0.020251946            1 
  747000   0.95428919   -7.8795813    179.54523  0.020029589   0.02023618            2 
  748000   0.96253776   -7.8767384    179.62759  0.020011986   0.02022021            3 
  749000   0.95397944   -7.9036233    179.27195    0.0199457  0.020204229            3 
  750000   0.96205816   -7.8995283    179.53698  0.019948553  0.020188254            3 
  751000    0.9238153   -7.8946432    179.58158   0.01992694  0.020172213            2 
  752000   0.95327684   -7.9131416    179.87447  0.019932898  0.020156165            3 
  753000   0.93688715    -7.918652    179.61564  0.019877782    0.0201401            3 
  754000   0.97015438   -7.8923629    179.72631  0.019863651  0.020124156            3 
  755000   0.94880336   -7.9363794    180.10676  0.019879334  0.020108254            5 
  756000   0.95529334   -7.9168228    180.09721  0.019851985  0.020092206            6 
  757000   0.93230253    -7.946075    180.06626  0.019822354  0.020076208            4 
  758000   0.95039137   -7.8879932    180.72938  0.019869105  0.020060336            8 
  759000   0.96701239   -7.9048007    180.29673  0.019795425  0.020044454            3 
  760000   0.93658437   -7.9008254    181.14271  0.019862139  0.020028542            1 
  761000   0.95631671   -7.8910248    181.20254   0.01984259  0.020012763            3 
  762000   0.93080833   -7.8999685    181.45553  0.019844218   0.01999713            5 
  763000   0.95532276   -7.8889358    181.01418  0.019770007  0.019981303            5 
  764000    0.9466338   -7.9187456    181.53734  0.019801193  0.019965407            4 
  765000   0.93681622   -7.9415293    180.60233  0.019673456  0.019949492            5 
  766000   0.93336658   -7.9227429    181.23411  0.019716505  0.019933555            4 
  767000   0.96044268   -7.9427747    180.97358  0.019662493  0.019917841            4 
  768000   0.92260663   -7.9092547    181.51158  0.019695267  0.019901911            5 
  769000   0.94434193   -7.9652372    180.91321  0.019604812  0.019885927            4 
  770000   0.93551133   -7.9125577    181.72586  0.019667301  0.019870144            6 
  771000   0.96370769   -7.9456052    181.73358  0.019642627  0.019854242            4 
  772000   0.93780002   -7.8984489    181.92616   0.01963797  0.019838487            3 
  773000   0.93838041   -7.9360806    181.50219   0.01956686  0.019822598            6 
  774000   0.93020477   -7.9546857     181.7664  0.019570025  0.019806668            3 
  775000   0.93562664   -7.9111894    182.09365  0.019579962  0.019790826            3 
  776000   0.93402736   -7.9417103    182.47957  0.019596174  0.019775122            2 
  777000    0.9510679   -7.9376851    182.69168  0.019593702  0.019759606            4 
  778000   0.94135808   -7.9028355    182.81127  0.019581328  0.019744054            9 
  779000   0.92097183   -7.9518881    183.03513  0.019580138  0.019728611            4 
  780000   0.93375291   -7.9351475     183.0419  0.019555759   0.01971308            6 
  781000   0.95569974   -7.9262737    183.13668  0.019540833   0.01969774            5 
  782000   0.92140637   -7.9189822     183.2496  0.019527877  0.019682258            1 
  783000   0.93900328   -7.9267695     183.0032  0.019476714   0.01966668            2 
  784000   0.94649678   -7.9482433     183.2336   0.01947636  0.019651068            1 
  785000   0.94026826   -7.9435325    183.75894  0.019507319   0.01963543            7 
  786000   0.92780616   -7.9197979     183.4838  0.019453329  0.019619751            5 
  787000   0.94467364   -7.9537996     183.0337  0.019380951  0.019603924            4 
  788000   0.95324682   -7.9251966    183.50189  0.019405868  0.019588347            2 
  789000   0.93753806   -7.9299684    183.20429   0.01934984  0.019572707            6 
  790000    0.9401638   -7.9359197    183.99334   0.01940858  0.019557082            3 
  791000   0.92342636   -7.9780818    183.79481  0.019363128  0.019541428            3 
  792000   0.92203684   -7.9413574    183.76697   0.01933575   0.01952573            4 
  793000   0.92220748   -7.9456395    183.87597  0.019322822  0.019510181            4 
  794000    0.9581124   -7.9567297    184.27268  0.019340122  0.019494762            4 
  795000   0.92175187   -7.9588509     184.1107  0.019298816  0.019479355            3 
  796000   0.94115596   -7.9468664    184.16879  0.019280653  0.019463787            2 
  797000   0.95290756   -7.9487627    184.53392  0.019294638  0.019448271            2 
  798000    0.9142191   -7.9536268    184.52371  0.019269393  0.019432732            3 
  799000   0.92250666   -7.9363221    184.90374  0.019284913  0.019417119            7 
  800000   0.91173539   -7.9529721    184.78952  0.019248909  0.019401629            7 
  801000   0.93803087   -7.9491025     184.8735  0.019233615  0.019386097            4 
  802000   0.91695584    -7.977003    184.42137  0.019162652  0.019370618            7 
  803000   0.93470465   -7.9456008    185.06683  0.019205773  0.019355074            3 
  804000   0.91912297   -7.9699653    185.62654  0.019239898  0.019339551            4 
  805000   0.93926902   -7.9851074    185.03373  0.019154631  0.019324066            3 
  806000   0.94560194   -7.9845794    185.32337  0.019160811  0.019308751            3 
  807000   0.93964846   -7.9673001    186.30883   0.01923883  0.019293443            2 
  808000    0.9301689   -8.0019275    185.26811  0.019107684  0.019278083            6 
[...]
 1800000    0.5333091   -9.0557928     199.9703 0.0092578844 0.0078356672          496 
 1801000   0.52008313   -9.0365411    200.07009  0.009257361 0.0078285843          528 
 1802000    0.5415992   -9.0430779    200.00711 0.0092493115 0.0078215097          495 
 1803000    0.5202642   -9.0359887    200.15126 0.0092508437  0.007814439          490 
 1804000    0.5399015   -9.0378815     200.1266 0.0092445769 0.0078073724          506 
 1805000   0.53752265    -9.049655    200.08042 0.0092373231 0.0078003234          522 
 1806000   0.54372115   -9.0548693    199.99137 0.0092280994 0.0077932831          534 
 1807000   0.52425648   -9.0321499     199.8884 0.0092182439 0.0077862453          528 
 1808000   0.53232345   -9.0566164    199.93504 0.0092152952 0.0077792191          503 
 1809000   0.52920064   -9.0557986    199.96234 0.0092114587 0.0077721926          498 
 1810000   0.52489072   -9.0470657    200.29412 0.0092216445 0.0077651809          514 
 1811000   0.52337295   -9.0397833    199.67413 0.0091880236 0.0077581762          541 
 1812000   0.52955836   -9.0404028    199.81357 0.0091893659 0.0077511814          498 
 1813000   0.53898932   -9.0548845    200.06527 0.0091958663 0.0077441955          506 
 1814000   0.52716084   -9.0382787    200.13475 0.0091939889 0.0077372128          530 
 1815000   0.52646986   -9.0678111    200.10905 0.0091877431 0.0077302358          527 
 1816000   0.52820515   -9.0805122    199.90843 0.0091734777 0.0077232608          502 
 1817000   0.53045167   -9.0684884     199.6206 0.0091552283 0.0077162997          545 
 1818000   0.53292963   -9.0508637    199.93445 0.0091645787 0.0077093459          526 
 1819000   0.50670475   -9.0725347    199.82521  0.009154536  0.007702408          524 
 1820000   0.52850293   -9.0519194    199.72004 0.0091446906 0.0076954673          526 
 1821000   0.51533838   -9.0645283    200.01736 0.0091532749 0.0076885336          529 
 1822000   0.52549571   -9.0603538     199.8776 0.0091418589   0.00768161          511 
 1823000   0.51899033   -9.0471169    199.86302 0.0091361776 0.0076747039          525 
 1824000   0.53261634   -9.0560673    199.68054 0.0091228319 0.0076677933          520 
 1825000   0.52617594   -9.0592805    199.74653 0.0091208459 0.0076608987          533 
 1826000   0.52589433   -9.0595081    199.95903 0.0091255491 0.0076540109          533 
 1827000   0.51759248   -9.0585066    200.28653 0.0091354921 0.0076471358          516 
 1828000   0.52316554   -9.0494709    199.73107 0.0091051729 0.0076402579          532 
 1829000   0.53087142   -9.0532024    199.99384 0.0091121671 0.0076333904          528 
 1830000   0.53078209   -9.0565126      199.821 0.0090993168 0.0076265298          520 
 1831000   0.52356248   -9.0747831    199.68714  0.009088255 0.0076196774          547 
 1832000   0.52754949   -9.0756614    199.53038 0.0090761636 0.0076128312          499 
 1833000   0.50968765   -9.0513426     199.8215 0.0090844473 0.0076060002          513 
 1834000   0.52130462    -9.048621    199.83469 0.0090800931 0.0075991778          507 
 1835000   0.52026264    -9.053822    199.58194 0.0090636667  0.007592363          548 
 1836000   0.50568906   -9.0701689    199.86144 0.0090714163 0.0075855492          519 
 1837000    0.5218364   -9.0691668    200.00696 0.0090730793 0.0075787403          537 
 1838000   0.51458209   -9.0851144    199.76599 0.0090572174 0.0075719379          513 
 1839000   0.52376367   -9.0809307    199.45062 0.0090380014 0.0075651485          542 
 1840000   0.52699557   -9.0729331    199.73121 0.0090457976 0.0075583672          539 
 1841000   0.52554143   -9.0503536    199.48644 0.0090298043 0.0075516045          525 
 1842000   0.52080895   -9.0658942     199.8026 0.0090392057 0.0075448424          528 
 1843000   0.52763537   -9.0720006    199.97132 0.0090419299 0.0075380865          512 
 1844000   0.51599549   -9.0803691    199.88108 0.0090329485 0.0075313452          542 
 1845000   0.52191173   -9.0773913    199.72697 0.0090210918 0.0075246065          506 
 1846000   0.52100866   -9.0476973    199.46476 0.0090043682 0.0075178698          542 
 1847000   0.52152549   -9.0821431    199.64412 0.0090075852 0.0075111473          501 
 1848000   0.51900149   -9.0805329    199.60509 0.0090009511 0.0075044317          523 
 1849000   0.52353592   -9.0738587    199.53131 0.0089927578 0.0074977197          525 
 1850000    0.5131702   -9.0826649    199.68146 0.0089946602 0.0074910217          534 
 1851000     0.518134   -9.0960557    199.53782 0.0089833343 0.0074843256          543 
 1852000   0.51904312    -9.097056    199.33408 0.0089693162 0.0074776354          506 
 1853000   0.52107342   -9.0894783    199.71662 0.0089816794 0.0074709493          550 
 1854000   0.50213054     -9.08731    199.58606 0.0089709665 0.0074642698          533 
 1855000   0.51601475   -9.0897107    199.57787 0.0089657625 0.0074576008          514 
 1856000   0.50827242   -9.0821488    199.34418 0.0089504391  0.007450945          530 
 1857000   0.51679297   -9.0931069    199.82836 0.0089673469 0.0074443009          526 
 1858000   0.50992048   -9.0882204    199.84566 0.0089632966 0.0074376564          525 
 1859000   0.50735211   -9.0682848    199.66007 0.0089501554 0.0074310176          519 
 1860000   0.50959759   -9.0944854    199.75054 0.0089493971 0.0074243951          557 
 1861000   0.51209988   -9.0843621    199.50845 0.0089337474 0.0074177813          536 
 1862000   0.50429946   -9.0766145    199.62896 0.0089343428 0.0074111745          510 
 1863000    0.5101579   -9.0907876    199.44725 0.0089214191 0.0074045644          517 
 1864000   0.51388992   -9.0893986    199.69884 0.0089278809 0.0073979755          529 
 1865000   0.51661236   -9.0835442    199.71184 0.0089236746 0.0073913932          557 
 1866000   0.50352537   -9.1009307    199.77971 0.0089219233 0.0073848152          534 
 1867000   0.50320498   -9.0831143     199.4246 0.0089012944 0.0073782481          519 
 1868000   0.49978391   -9.0813652    199.80052 0.0089132996 0.0073716881          525 
 1869000   0.50654845   -9.0743267    199.85731 0.0089110627 0.0073651381          525 
 1870000   0.52128445    -9.077244    199.96028 0.0089108857 0.0073585898          510 
 1871000   0.51397001   -9.0684047    199.83903 0.0089007229 0.0073520564          527 
 1872000    0.4965487   -9.0844926    199.26603 0.0088704607 0.0073455333          528 
 1873000   0.50486571   -9.0687073    199.95608 0.0088964266 0.0073390139          498 
 1874000   0.50002208   -9.0867423    199.57644 0.0088747971 0.0073325044          514 
 1875000    0.5053749   -9.0925145    199.21864 0.0088541617 0.0073259894          513 
 1876000   0.50146847   -9.0955624    199.54911 0.0088641216 0.0073194906          515 
 1877000   0.50476192   -9.0883368    199.60269 0.0088617783 0.0073129967          511 
 1878000     0.496678   -9.1000386    199.81862  0.008866641 0.0073065098          517 
 1879000   0.49619004   -9.0874252     199.7123  0.008857207 0.0073000318          520 
 1880000    0.5142356   -9.0992846    199.58335 0.0088467797 0.0072935505          531 
 1881000     0.492099   -9.0911704    199.62871 0.0088440861 0.0072870898          522 
 1882000   0.50660317   -9.0890418     199.7345 0.0088440709 0.0072806275          516 
 1883000   0.50412808   -9.0788535    199.51286 0.0088295652 0.0072741789          512 
 1884000   0.50757533    -9.105158       199.64 0.0088305024 0.0072677301          535 
 1885000   0.50348511   -9.1023165    199.14745 0.0088040427 0.0072612954          512 
 1886000   0.50653608   -9.0940355    199.40789 0.0088108826 0.0072548633          541 
 1887000   0.50608942   -9.1101817    199.46271 0.0088086342 0.0072484405          531 
 1888000   0.49454738   -9.1050814    199.64911 0.0088121958 0.0072420232          532 
 1889000   0.49380737   -9.0939826    199.56475 0.0088038094 0.0072356219          505 
 1890000   0.50486609   -9.0825878    199.58537 0.0088000603 0.0072292235          523 
 1891000   0.49703231   -9.0840245    199.20605 0.0087786907 0.0072228341          512 
 1892000   0.49954537   -9.1069009    199.38056 0.0087817373 0.0072164466          525 
 1893000   0.48766879   -9.1142115    199.51427 0.0087829843 0.0072100669          533 
 1894000    0.4960298   -9.0870098    199.40675 0.0087736164 0.0072036991          518 
 1895000   0.49931311   -9.0955563     199.5608 0.0087757607 0.0071973423          536 
 1896000   0.48596787   -9.1120876    199.39623 0.0087638991 0.0071909866          522 
 1897000   0.49829052   -9.1086539    199.39864 0.0087593851 0.0071846404          532 
 1898000   0.49581335   -9.1042285    199.45736 0.0087573481 0.0071782998          549 
 1899000   0.49797731   -9.1056323    199.25321  0.008743778  0.007171967          511 
 1900000   0.48372691   -9.1140738    199.23393 0.0087383301 0.0071656358          527 
 1901000   0.50464769   -9.1321192    199.28571 0.0087360033 0.0071593132          510 
 1902000   0.49283519   -9.1153049    199.40356 0.0087365738  0.007152991          526 
 1903000   0.49660243   -9.0888875    199.81732 0.0087501017 0.0071466861          504 
 1904000   0.49869183   -9.1154066    199.17798 0.0087175237 0.0071403883          532 
 1905000    0.4911144   -9.1044307    199.26029 0.0087165479 0.0071340974          527 
 1906000   0.49135034   -9.0978664    199.60489 0.0087270414 0.0071278129          495 
 1907000   0.49414309   -9.1084289    199.35569 0.0087115753 0.0071215338          519 
 1908000   0.49151743   -9.1028387    199.06089 0.0086941339  0.007115263          535 
 1909000   0.48387847   -9.1116608      199.662 0.0087158197 0.0071089919          504 
 1910000   0.48427229   -9.0988269    199.36168 0.0086981537 0.0071027357          521 
 1911000   0.49162302   -9.1087526    199.45602 0.0086977157 0.0070964808          525 
 1912000   0.47927558   -9.0981725    199.36651 0.0086892657 0.0070902419          527 
 1913000   0.49167747   -9.1144889    199.44242   0.00868803 0.0070840038          542 
 1914000   0.48156223   -9.1084104     199.3265 0.0086784441 0.0070777729          539 
 1915000   0.49033234   -9.1232912    199.28722 0.0086722027 0.0070715553          544 
 1916000   0.48928386   -9.1098718    199.30624 0.0086685039 0.0070653396          525 
 1917000   0.48951623    -9.129455    199.23591 0.0086609247 0.0070591322          520 
 1918000   0.48981162   -9.1273615    199.27273 0.0086580089 0.0070529307          524 
 1919000   0.48746011   -9.1010255    199.46381 0.0086617949 0.0070467394          546 
 1920000   0.49156908    -9.122508    199.54429 0.0086607764 0.0070405515          529 
 1921000   0.48659137   -9.1168033    199.23261 0.0086427474 0.0070343748          549 
 1922000   0.47799301   -9.1069091    199.16976 0.0086355254 0.0070282013          507 
 1923000   0.49282832   -9.1275008    199.07073 0.0086267434  0.007022036          528 
 1924000   0.48152822   -9.1164104    199.47184 0.0086396328 0.0070158818          529 
 1925000   0.48665199   -9.1182388    199.41121 0.0086325199 0.0070097314          546 
 1926000   0.48304965   -9.1070873    199.00834 0.0086106067 0.0070035869          505 
 1927000   0.47714708   -9.1166105    199.25504 0.0086168066 0.0069974488          505 
 1928000   0.48112577   -9.1172757    199.37165 0.0086173776 0.0069913188          534 
 1929000   0.49295085   -9.1359351    199.43525 0.0086156577 0.0069851927          510 
 1930000   0.47025826   -9.1191584    199.12826 0.0085979388 0.0069790741          512 
 1931000   0.47360187   -9.1197211     199.2423 0.0085984074 0.0069729627          520 
 1932000   0.48144172   -9.1270676    199.22709  0.008593301 0.0069668598          522 
 1933000   0.48064687   -9.1324677    199.03274 0.0085804769 0.0069607577          526 
 1934000   0.48529326    -9.129989    199.07187 0.0085777263 0.0069546664          537 
 1935000   0.48702595   -9.1347573    199.31858 0.0085839181 0.0069485802          539 
 1936000   0.48410142   -9.1240296    199.27025 0.0085774038 0.0069425022          510 
 1937000   0.49337496   -9.1329474    199.25222 0.0085722002 0.0069364312          539 
 1938000   0.48934467   -9.1422238    198.95851 0.0085551475 0.0069303665          505 
 1939000   0.47202549   -9.1301364    199.33854 0.0085670681 0.0069243096          508 
 1940000   0.48220091   -9.1361561    198.90603 0.0085440735 0.0069182567          522 
 1941000   0.47159667   -9.1340993    199.27342 0.0085554446 0.0069122112          521 
 1942000   0.47536692   -9.1264602    199.11747 0.0085443475 0.0069061746          523 
 1943000   0.47550457   -9.1278646    199.30636  0.008548051 0.0069001387          523 
 1944000   0.48792739   -9.1472592    199.19777 0.0085389989 0.0068941098          547 
 1945000   0.47444765   -9.1330153    198.99326 0.0085258464 0.0068880866          553 
 1946000   0.47572766   -9.1352961    198.92371 0.0085184869   0.00688207          550 
 1947000   0.47818573   -9.1365158    198.73096 0.0085058622 0.0068760581          500 
 1948000   0.48367966   -9.1356652    199.18351 0.0085208553 0.0068700621          531 
 1949000   0.47398165   -9.1325188    199.07036 0.0085116453 0.0068640721          504 
 1950000   0.47692665   -9.1395991    199.09369 0.0085082772 0.0068580892          542 
 1951000   0.47558676    -9.141738    199.29273 0.0085124181 0.0068521124          527 
 1952000   0.47343758   -9.1467135    199.00231 0.0084956586 0.0068461448          507 
 1953000   0.47860237   -9.1310216    199.31851 0.0085048009 0.0068401864          500 
 1954000   0.46745238   -9.1294273    199.00147  0.008486927  0.006834232          526 
 1955000   0.47294922   -9.1355004    199.24102 0.0084927971 0.0068282873          529 
 1956000   0.46580852   -9.1467808    199.07258 0.0084812789  0.006822345          543 
 1957000   0.47271018   -9.1495147    199.20199 0.0084824558 0.0068164053          544 
 1958000   0.46911113   -9.1408368    199.07179 0.0084725821 0.0068104746          516 
 1959000   0.46992507   -9.1396971    198.89216 0.0084606159 0.0068045505          535 
 1960000   0.47751719   -9.1477138    199.08554 0.0084645211 0.0067986319          526 
 1961000   0.47314609   -9.1570961    199.00039 0.0084565863 0.0067927233          523 
 1962000   0.47710329   -9.1412009    199.20131 0.0084608099 0.0067868179          546 
 1963000   0.48243261   -9.1561755    199.16928 0.0084551403  0.006780923          523 
 1964000    0.4827395   -9.1403058    199.00506 0.0084438671 0.0067750351          507 
 1965000   0.46993984   -9.1663595    199.16504 0.0084463547 0.0067691567          537 
 1966000   0.47742541   -9.1497998     199.0173 0.0084357961 0.0067632828          531 
 1967000   0.46212651   -9.1518214    199.33676 0.0084450416 0.0067574144          538 
 1968000   0.46744754   -9.1602838    198.91242 0.0084227822 0.0067515529          529 
 1969000    0.4609325   -9.1658781    198.67567 0.0084084845 0.0067456982          508 
 1970000   0.47340179   -9.1588722    199.22437 0.0084274268 0.0067398533          533 
 1971000   0.47252875   -9.1432465    198.98014 0.0084128251 0.0067340105          531 
 1972000   0.46093329     -9.14201    198.81262   0.00840148 0.0067281767          514 
 1973000   0.47364234   -9.1324332    199.13337  0.008410769 0.0067223505          542 
 1974000   0.46660874   -9.1567229    199.01155 0.0084013657 0.0067165301          522 
 1975000   0.45994578   -9.1567902    199.05592 0.0083989838 0.0067107202          529 
 1976000   0.46247918   -9.1392144    198.72483 0.0083807705 0.0067049132          527 
 1977000   0.46638524   -9.1503059    199.05382 0.0083903987 0.0066991156          506 
 1978000   0.46805186   -9.1421392    198.93068 0.0083809689 0.0066933188          522 
 1979000    0.4585616   -9.1528416    198.85036  0.008373352 0.0066875337          530 
 1980000   0.45488586   -9.1594408    199.00696 0.0083757138 0.0066817526          541 
 1981000   0.46788149   -9.1507451    199.36884 0.0083867086 0.0066759803          520 
 1982000   0.46286024   -9.1494231    198.89056 0.0083623678 0.0066702149          552 
 1983000   0.46136614   -9.1618176    198.93458 0.0083600007 0.0066644517          548 
 1984000   0.46832373   -9.1724085    198.84904 0.0083521941 0.0066586986          527 
 1985000   0.45236034   -9.1536007    199.07292 0.0083573854 0.0066529507          542 
 1986000   0.46219329   -9.1647997     198.8254  0.008342791 0.0066472107          528 
 1987000   0.45551491   -9.1478586    199.17167 0.0083531149 0.0066414782          528 
 1988000   0.46124782   -9.1637247    198.95799 0.0083399559 0.0066357509          511 
 1989000   0.45502269   -9.1764274    198.69364 0.0083246872   0.00663003          523 
 1990000   0.46450469   -9.1565009    198.83692 0.0083265043 0.0066243114          521 
 1991000   0.46498918   -9.1672123    198.92526 0.0083260197 0.0066185974          534 
 1992000   0.45912347   -9.1539344    198.72761 0.0083135712 0.0066128943          517 
 1993000   0.45411668   -9.1658903    198.90656 0.0083168823 0.0066071989          547 
 1994000   0.46118903   -9.1550581    198.74852 0.0083061068 0.0066015134          516 
 1995000   0.46760531   -9.1566077    198.86127 0.0083066528 0.0065958331          513 
 1996000   0.45909617   -9.1749796    198.92774 0.0083052662 0.0065901566          549 
 1997000   0.45523427   -9.1635943    198.66784 0.0082902622 0.0065844849          507 
 1998000   0.45482343   -9.1505379    199.34709 0.0083144431 0.0065788242          528 
 1999000   0.44982977   -9.1562158    198.71786 0.0082840529 0.0065731638          536 
 2000000   0.45191886   -9.1538151    198.80809 0.0082836705 0.0065675156          516 
 2001000   0.45502676   -9.1711791    198.97142 0.0082863329 0.0065618723          505 
 2002000   0.46139993   -9.1723542    198.82001 0.0082758912 0.0065562316          567 
 2003000   0.45906448   -9.1789736    198.85439 0.0082731898 0.0065505976          534 
 2004000   0.45142993   -9.1861023    198.80659 0.0082670738 0.0065449651          529 
 2005000   0.45210231   -9.1605807    198.56546 0.0082529286 0.0065393465          517 
 2006000   0.45616887   -9.1751708    198.61452 0.0082508526 0.0065337324          515 
 2007000   0.45871312   -9.1759571     198.6806  0.008249485 0.0065281199          493 
 2008000   0.44950897    -9.167528    198.70225 0.0082462753  0.006522519          533 
 2009000   0.44932971   -9.1606737    198.91132 0.0082508429 0.0065169228          520 
 2010000   0.44592596   -9.1777289    198.81171  0.008242608 0.0065113312          541 
 2011000   0.45277551   -9.1774655    198.54209 0.0082273365 0.0065057518          518 
 2012000   0.44951683    -9.186549    198.77001 0.0082326878 0.0065001764          518 
Loop time of 5067.68 on 48 procs for 2000000 steps with 4000 atoms

Performance: 68196.944 tau/day, 394.658 timesteps/s
99.4% CPU use with 48 MPI tasks x no OpenMP threads

MPI task timing breakdown:
Section |  min time  |  avg time  |  max time  |%varavg| %total
---------------------------------------------------------------
Pair    | 363.52     | 380.78     | 400.9      |  47.1 |  7.51
Neigh   | 33.859     | 35.302     | 37.207     |  14.0 |  0.70
Comm    | 320.95     | 343.22     | 361.51     |  55.9 |  6.77
Output  | 4.806      | 4.8075     | 4.8394     |   0.2 |  0.09
Modify  | 4244.2     | 4257.1     | 4270.3     |   8.8 | 84.01
Other   |            | 46.46      |            |       |  0.92

Nlocal:        83.3333 ave          89 max          77 min
Histogram: 3 4 0 7 5 11 6 4 4 4
Nghost:        2291.94 ave        2307 max        2275 min
Histogram: 3 1 7 4 5 9 5 6 5 3
Neighs:        15563.0 ave       16723 max       13984 min
Histogram: 2 0 5 5 8 5 4 10 5 4
FullNghs:      31125.6 ave       34135 max       28580 min
Histogram: 2 5 4 8 8 8 3 7 2 1

Total # of neighbors = 1494028
Ave neighs/atom = 373.50700
Neighbor list builds = 106551
Dangerous builds = 0

#clear
#
#next RN
#
#jump SELF
Total wall time: 1:24:31
