
units lj                  # Use reduced LJ style units
atom_style atomic         # Uncharged point particles
atom_modify map hash      # Needed for indexing of clusters etc
                          # Used to be able to find where atoms are in relation to each other.

# Define a lattice with which to populate the simulation cell. With units
# set to 'lj' the second argument to the lattice command is the reduced
# density rho* and the spacings are multiples of that required to acheive
# that density. Also define a simulation cell called 'box' in lattice units
# and fill it with atoms. Here we're creating a box which is ten lattice
# constants in each direction.
lattice fcc 1.0 spacing 1 1 1                 # All equal sizes - gives the right reduced density.
Lattice spacing in x,y,z = 1.5874011 1.5874011 1.5874011

region box block 0 10 0 10 0 10 units lattice # Defines a region, "box", in lattice units
create_box 1 box                              # Creates a simulation box as specified above,
Created orthogonal box = (0.0000000 0.0000000 0.0000000) to (15.874011 15.874011 15.874011)
  3 by 4 by 4 MPI processor grid
                                              # with one type of atom
create_atoms 1 box                            # Creates particles on lattice points
Created 4000 atoms
  using lattice units in orthogonal box = (0.0000000 0.0000000 0.0000000) to (15.874011 15.874011 15.874011)
  create_atoms CPU = 0.002 seconds


# Set the mass of the first (and only) atom type.
mass 1 1.0

# Lennard-Jones interactions between particles, 3.5 sigma cut-off. Apply
# long range tail corrections to energy and pressure and set all coefficients
# to unity since we work in reduced units here. Note that this doesn't shift
# the potential such that it goes to zero at the cutoff. That would require
# pair_modify('shift', 'yes').
pair_style lj/cut  3.5      # non-GPU version
pair_modify tail  yes
pair_coeff 1  1  1.0  1.0   # Intearaction between 1 and 1 set with epsilon = 1 and sigma = 1

write_data data.*
System init for write_data ...
Neighbor list info ...
  update every 1 steps, delay 10 steps, check yes
  max neighbors/atom: 2000, page size: 100000
  master list distance cutoff = 3.8
  ghost atom cutoff = 3.8
  binsize = 1.9, bins = 9 9 9
  1 neighbor lists, perpetual/occasional/extra = 1 0 0
  (1) pair lj/cut, perpetual
      attributes: half, newton on
      pair build: half/bin/atomonly/newton
      stencil: half/bin/3d
      bin: standard

#############################
#   M E L T   S Y S T E M   #
#############################

velocity all create 2.4 2750902 mom yes dist gaussian # Assign velocities
                                                    # Temperature 2.4, random number seed, zero linear momentum
						                                                        # Gaussian distribution

timestep 0.002   # simulation timestep
thermo 1000       # output thermodynamic data every 1000 steps

# Define a fix  in this case with index 1 applied to all
# particles in the simulation. This fix is for simulations
# in the anisotropic NPT ensemble. Note that we use the MTK
# correction.
fix 1 all npt temp 2.4 2.4 0.1 iso 5.68 5.68 0.5 mtk yes tchain 5 pchain 5 # Use NPT ensemble
                                                                         # Set temperature and pressure and damping
                                                                         # Numbers of thermostats in chain and in barostat
run 1000         # run for 10000 steps
Per MPI rank memory allocation (min/avg/max) = 3.642 | 3.644 | 3.648 Mbytes
Step Temp E_pair E_mol TotEng Press Volume 
       0          2.4   -8.3859253            0   -4.7868253   -2.2405722         4000 
    1000    2.3434012   -4.4238704            0  -0.90964738    5.8682558    5151.8188 
Loop time of 0.220613 on 48 procs for 1000 steps with 4000 atoms

Performance: 783272.782 tau/day, 4532.829 timesteps/s
99.4% CPU use with 48 MPI tasks x no OpenMP threads

MPI task timing breakdown:
Section |  min time  |  avg time  |  max time  |%varavg| %total
---------------------------------------------------------------
Pair    | 0.091629   | 0.10051    | 0.11065    |   1.4 | 45.56
Neigh   | 0.017484   | 0.018942   | 0.020887   |   0.5 |  8.59
Comm    | 0.064645   | 0.076596   | 0.087158   |   1.9 | 34.72
Output  | 2.5532e-05 | 2.6083e-05 | 3.4807e-05 |   0.0 |  0.01
Modify  | 0.019497   | 0.022976   | 0.025798   |   1.0 | 10.41
Other   |            | 0.001564   |            |       |  0.71

Nlocal:        83.3333 ave          95 max          78 min
Histogram: 8 10 8 7 5 5 2 1 1 1
Nghost:        1391.50 ave        1422 max        1362 min
Histogram: 4 2 3 6 11 8 4 3 2 5
Neighs:        7406.25 ave        8468 max        6555 min
Histogram: 2 6 8 5 10 4 6 2 1 4

Total # of neighbors = 355500
Ave neighs/atom = 88.875000
Neighbor list builds = 87
Dangerous builds = 20

# Equilibrate just above the melting temperature to avoid step fn in T

fix 1 all npt temp 1.25 1.25 0.1 iso 5.68 5.68 0.5 mtk yes tchain 5 pchain 5
run 1000
Per MPI rank memory allocation (min/avg/max) = 3.642 | 3.644 | 3.648 Mbytes
Step Temp E_pair E_mol TotEng Press Volume 
    1000    2.3434012   -4.4238704            0  -0.90964738    5.8682558    5151.8188 
    2000    1.2429145   -5.8542389            0   -3.9903333    5.7194736    4334.1532 
Loop time of 0.217441 on 48 procs for 1000 steps with 4000 atoms

Performance: 794697.320 tau/day, 4598.943 timesteps/s
99.6% CPU use with 48 MPI tasks x no OpenMP threads

MPI task timing breakdown:
Section |  min time  |  avg time  |  max time  |%varavg| %total
---------------------------------------------------------------
Pair    | 0.09268    | 0.099655   | 0.11063    |   1.1 | 45.83
Neigh   | 0.015583   | 0.016317   | 0.017888   |   0.3 |  7.50
Comm    | 0.06193    | 0.0755     | 0.08228    |   1.5 | 34.72
Output  | 2.3208e-05 | 2.4204e-05 | 3.0794e-05 |   0.0 |  0.01
Modify  | 0.019156   | 0.023999   | 0.030234   |   1.8 | 11.04
Other   |            | 0.001946   |            |       |  0.90

Nlocal:        83.3333 ave          91 max          76 min
Histogram: 2 0 6 7 12 2 13 2 2 2
Nghost:        1559.08 ave        1579 max        1541 min
Histogram: 2 2 8 11 4 8 3 5 3 2
Neighs:        8794.40 ave        9967 max        8047 min
Histogram: 4 3 11 7 11 7 2 2 0 1

Total # of neighbors = 422131
Ave neighs/atom = 105.53275
Neighbor list builds = 75
Dangerous builds = 8


# Small amount of linear quench

fix 1 all npt temp 1.25 ${temp} 0.1 iso 5.68 5.68 0.5 mtk yes tchain 5 pchain 5
fix 1 all npt temp 1.25 1.48 0.1 iso 5.68 5.68 0.5 mtk yes tchain 5 pchain 5
run 2000
Per MPI rank memory allocation (min/avg/max) = 3.643 | 3.645 | 3.648 Mbytes
Step Temp E_pair E_mol TotEng Press Volume 
    2000    1.2429145   -5.8542389            0   -3.9903333    5.7194736    4334.1532 
    3000    1.3739254    -5.687341            0   -3.6269681    5.5684834    4429.3421 
    4000    1.5031796   -5.5096566            0   -3.2554508    5.5734254    4518.8312 
Loop time of 0.443838 on 48 procs for 2000 steps with 4000 atoms

Performance: 778662.415 tau/day, 4506.148 timesteps/s
99.6% CPU use with 48 MPI tasks x no OpenMP threads

MPI task timing breakdown:
Section |  min time  |  avg time  |  max time  |%varavg| %total
---------------------------------------------------------------
Pair    | 0.19317    | 0.20643    | 0.2315     |   1.7 | 46.51
Neigh   | 0.02918    | 0.030553   | 0.033849   |   0.6 |  6.88
Comm    | 0.12985    | 0.15611    | 0.1708     |   2.2 | 35.17
Output  | 4.7473e-05 | 4.8557e-05 | 6.0912e-05 |   0.0 |  0.01
Modify  | 0.040003   | 0.04629    | 0.05795    |   2.1 | 10.43
Other   |            | 0.004411   |            |       |  0.99

Nlocal:        83.3333 ave          91 max          77 min
Histogram: 5 0 9 7 8 8 0 8 1 2
Nghost:        1518.23 ave        1539 max        1503 min
Histogram: 5 5 5 9 8 3 6 4 1 2
Neighs:        8414.56 ave        9264 max        7764 min
Histogram: 4 4 7 7 9 6 4 1 5 1

Total # of neighbors = 403899
Ave neighs/atom = 100.97475
Neighbor list builds = 136
Dangerous builds = 0

#############################
# F R E E Z E  S Y S T E M  #
#############################

# Define solid atoms. This closely follows ten Wolde  Ruiz-Montero and Frenkel  Faraday Discuss  1996  104  93-110
# Compute components of the per-atom q6 vector
compute q6 all orientorder/atom degrees 1 6 components 6 nnn NULL cutoff 1.3 # compute the Q6 parameter.
                                                                             # Use all neighbours within 1.3 unit cell.

# get number of connections
compute coord_number all coord/atom orientorder q6 0.5

# An atom is solid if it has 8 or more connections (of a possible 14)
variable is_solid atom c_coord_number>=8
group solid dynamic all var is_solid    # Must be dynamic to update
dynamic group solid defined

# do clustering
compute cluster solid cluster/atom 1.3 # Create a cluster where all atoms within are solid and max 1.3 units from another member

# define chunks one chunk per cluster
compute clus_chunks solid chunk/atom c_cluster nchunk every compress yes  # Says which atoms are in which chunk

# count the size of each chunk
compute size_chunks solid property/chunk clus_chunks count


# Find the maximum entry in the vector of chunk sizes
variable max_n equal max(c_size_chunks)


# Thermo style which includes this variable
thermo_style custom step temp pe vol v_max_n

thermo ${N}  # Print the thermo information every 100 steps
thermo 1000  

# Reset the npt fix at a lower temperature (below freezing)
fix 1  all npt temp  ${temp} ${temp}  0.1  iso  5.68  5.68  0.5  mtk yes tchain  5  pchain  5
fix 1  all npt temp  1.48 ${temp}  0.1  iso  5.68  5.68  0.5  mtk yes tchain  5  pchain  5
fix 1  all npt temp  1.48 1.48  0.1  iso  5.68  5.68  0.5  mtk yes tchain  5  pchain  5

dump dmp2 all dcd ${N} traj_${rand}.dcd
dump dmp2 all dcd 1000 traj_${rand}.dcd
dump dmp2 all dcd 1000 traj_462431.dcd


# fix rnuntil all halt ${N} v_max_n >= 3980 error soft message no   # Stop when solidified


run 1000000 # 5000000  # Run for this many steps
Neighbor list info ...
  update every 1 steps, delay 10 steps, check yes
  max neighbors/atom: 2000, page size: 100000
  master list distance cutoff = 3.8
  ghost atom cutoff = 3.8
  binsize = 1.9, bins = 9 9 9
  4 neighbor lists, perpetual/occasional/extra = 1 3 0
  (1) pair lj/cut, perpetual
      attributes: half, newton on
      pair build: half/bin/atomonly/newton
      stencil: half/bin/3d
      bin: standard
  (2) compute orientorder/atom, occasional
      attributes: full, newton on
      pair build: full/bin/atomonly
      stencil: full/bin/3d
      bin: standard
  (3) compute coord/atom, occasional
      attributes: full, newton on
      pair build: full/bin/atomonly
      stencil: full/bin/3d
      bin: standard
  (4) compute cluster/atom, occasional
      attributes: full, newton on
      pair build: full/bin/atomonly
      stencil: full/bin/3d
      bin: standard
Per MPI rank memory allocation (min/avg/max) = 9.345 | 9.349 | 9.354 Mbytes
Step Temp PotEng Volume v_max_n 
    4000    1.5031796   -5.5096566    4518.8312            2 
    5000     1.473909   -5.4680784    4524.2717            5 
    6000    1.4594127   -5.5024491    4508.5714            1 
    7000    1.4761598   -5.5145551    4516.2441            7 
    8000    1.4815337   -5.4590618    4522.1521            2 
    9000    1.4671698   -5.4579798    4510.6466            2 
   10000    1.5032341   -5.4959371    4516.8056            2 
   11000     1.483909   -5.4635693    4506.1281            1 
   12000    1.4735435   -5.4714134     4533.935            6 
   13000    1.4888326   -5.4731965    4525.1424            5 
   14000    1.4621432   -5.5005607    4527.0989            3 
   15000    1.4804764   -5.4992602    4510.4708            3 
   16000    1.4605479   -5.4781482    4504.0348            1 
   17000    1.4588565   -5.4771184    4511.7897            3 
   18000    1.5145795   -5.5120393    4517.1933            2 
   19000    1.4578002   -5.4491341    4517.9303            1 
   20000    1.4494787   -5.4906369    4527.4973            2 
   21000     1.465689    -5.459129    4535.5071            3 
   22000    1.5058787   -5.4875232    4521.1809            2 
   23000    1.4579873   -5.4640852    4524.3528            2 
   24000    1.4819199   -5.4675922    4496.9829            1 
   25000    1.5004407   -5.4553454    4522.8502            1 
   26000     1.492192    -5.484895    4497.5546            2 
   27000    1.4812328   -5.4927575    4551.4941            4 
   28000    1.4462329    -5.463195    4524.7359            2 
   29000    1.5166449   -5.4722074    4537.8535            4 
   30000    1.5087142   -5.4871374    4492.2063            2 
   31000    1.4997297    -5.501235    4508.1892            1 
   32000    1.4725295   -5.4910182    4529.5247            1 
   33000    1.4941731   -5.4851204    4505.5088            2 
   34000    1.4739237   -5.4649583    4527.5198            2 
   35000    1.4508984   -5.4155732    4530.2322            2 
   36000    1.4721039   -5.4734786    4511.0539            1 
   37000    1.4523649   -5.4574035     4528.378            2 
   38000    1.5000358   -5.4787473    4533.9715            3 
   39000    1.5036662   -5.5041132    4511.7413            3 
   40000    1.4824965   -5.5137369    4514.3358            2 
   41000    1.4942693   -5.5190952    4526.6066            2 
   42000    1.4782423   -5.4797773    4536.5497            2 
   43000    1.4869455   -5.4801955    4539.5018            2 
   44000    1.4987431   -5.5514039    4480.9103            3 
   45000    1.5208741   -5.4835097     4515.661            3 
   46000    1.5212556   -5.4508427    4512.7222            3 
   47000    1.4959263   -5.5126893     4507.122            4 
   48000    1.5114036      -5.4577    4548.1419            2 
   49000    1.4588767   -5.4972068    4514.5049            2 
   50000    1.4611992   -5.4754395    4536.4749            3 
   51000    1.4674989    -5.461161    4510.9511            3 
   52000    1.4893858   -5.4888188    4512.1759            2 
   53000    1.4931767   -5.5134653    4522.7613            3 
   54000     1.470635   -5.4599072    4541.5523            3 
   55000    1.5098172   -5.4264777    4533.7482            1 
   56000    1.4886848    -5.535186    4501.6094            1 
   57000    1.4694274   -5.4826803    4536.2889            2 
   58000    1.4553579   -5.4811849    4519.4046            2 
   59000    1.4895761   -5.4879569    4514.9174            2 
   60000    1.4657317   -5.4851405    4551.8519            2 
   61000    1.4926249   -5.4687856    4543.1907            3 
   62000    1.4375724   -5.4657439    4517.8976            2 
   63000    1.4844912   -5.4692637    4511.2664            5 
   64000    1.4899554   -5.4941199    4523.9727            3 
   65000    1.4564652   -5.4729029    4524.8141            1 
   66000    1.4888479    -5.522261    4502.0379            2 
   67000    1.4772106   -5.4611106    4543.6169            2 
   68000    1.5005211   -5.4879182    4509.5105            2 
   69000    1.4571031   -5.4827623    4509.7483            4 
   70000    1.4772784   -5.5196816    4507.6839            1 
   71000    1.4787328   -5.4955117     4500.429            3 
   72000    1.4741639   -5.4580146    4528.7626            3 
   73000    1.5024784   -5.4770364    4533.0961            2 
   74000    1.4672896   -5.4665227    4533.1868            5 
   75000    1.4614488   -5.4804418    4524.2773            3 
   76000    1.4686374   -5.5196302    4479.6694            2 
   77000    1.4940068   -5.4891811     4521.114            2 
   78000    1.4497026   -5.4966958    4504.9192            3 
   79000    1.4669207   -5.4857875     4528.221            1 
   80000    1.4629505   -5.4939658    4544.9547            2 
   81000    1.4389204   -5.5111059    4509.9633            2 
   82000    1.4608473   -5.5059727    4507.9459            2 
   83000    1.4716716   -5.5309746    4505.5066            3 
   84000    1.4874885   -5.4984591     4516.917            3 
   85000    1.4678769   -5.4794456     4527.317            2 
   86000    1.4827037   -5.4969057    4514.6888            3 
   87000    1.4746987   -5.5075916    4527.8975            1 
   88000    1.4704239   -5.4790803    4502.7703            3 
   89000    1.5151497   -5.4871415    4518.5892            1 
   90000    1.4487735   -5.5000161     4506.862            2 
   91000    1.4711214   -5.4463668    4543.4609            2 
   92000     1.465986   -5.4882614    4520.8866            3 
   93000    1.4686659   -5.4526216    4540.7998            1 
   94000    1.4754519   -5.5115413    4496.2501            3 
   95000    1.4558377   -5.5033791    4517.8349            3 
   96000    1.4884552   -5.5080712    4531.5807            6 
   97000    1.4944776   -5.5448188    4503.8596            2 
   98000    1.4521585     -5.46393    4528.3737            2 
   99000    1.4929805    -5.472807    4530.7177            4 
  100000    1.5010641   -5.4982334    4509.3158            1 
  101000    1.4779795   -5.4723092    4515.4851            3 
  102000    1.4659884   -5.4450964    4500.7718            2 
  103000    1.4813762   -5.4775993    4515.3195            2 
  104000    1.4464146   -5.4850229    4510.6328            2 
  105000    1.4596877   -5.5368983    4496.6253            2 
  106000    1.4921226   -5.4605117    4506.5591            2 
  107000    1.4492466   -5.4563637    4504.1184            2 
  108000    1.4892722   -5.4402383    4537.6573            1 
  109000    1.4859322   -5.4580891    4500.9515            3 
  110000    1.4644643   -5.4882722    4537.0538            2 
  111000    1.4902983   -5.4628546    4536.9304            1 
  112000    1.4483716   -5.4609025    4514.9586            1 
  113000    1.4919435   -5.4466405    4523.8187            3 
  114000    1.4544643   -5.5203384    4520.8303            2 
  115000    1.4988233   -5.4925365    4515.5161            3 
  116000    1.4683193   -5.4809928    4529.1315            1 
  117000     1.476471   -5.4669606    4528.4705            1 
  118000    1.4882293   -5.4521899    4509.7309            2 
  119000    1.4651989    -5.450206    4531.2668            3 
  120000    1.5135092   -5.5252102    4497.2085            2 
  121000    1.4496623   -5.4771783    4525.7697            2 
  122000    1.4556985   -5.5120086    4518.8574            1 
  123000    1.5022444   -5.4981881    4503.9427            3 
  124000     1.502793   -5.4471187    4531.8638            2 
  125000    1.4698954   -5.5032858    4520.9181            3 
  126000    1.4772016   -5.4592538    4532.3161            4 
  127000    1.4839534   -5.4874403    4520.0019            1 
  128000    1.4739175   -5.5319884    4500.1425            2 
  129000    1.4817239    -5.490308    4522.1189            2 
  130000    1.4977115    -5.482514     4496.024            3 
  131000    1.4812294   -5.4914028      4539.57            1 
  132000    1.4747741   -5.5109339    4491.4339            1 
  133000    1.4492646   -5.5331401    4496.2374            2 
  134000    1.5167977   -5.4879495    4514.3212            2 
  135000    1.4887315   -5.5166068    4515.3561            2 
  136000    1.4953807   -5.5229964    4499.4482            3 
  137000    1.4977141   -5.5172945     4493.672            2 
  138000    1.4911258   -5.4578185    4543.4813            1 
  139000    1.4521969   -5.4837069    4525.5113            3 
  140000     1.472815   -5.4882311    4503.2487            4 
  141000    1.4693066   -5.4495442    4534.4254            1 
  142000    1.4587962   -5.4705342     4518.402            2 
  143000    1.4660494    -5.482851    4497.0318            1 
  144000    1.5026851   -5.4815835    4522.3199            1 
  145000    1.4828544   -5.4781608    4537.3256            2 
  146000    1.4858634   -5.4993258    4523.7761            2 
  147000      1.47904   -5.5027314    4504.5749            2 
  148000    1.4732127    -5.501646    4522.1119            2 
  149000    1.4886558   -5.4504249    4531.3229            2 
  150000     1.485937   -5.4937517    4524.6317            2 
  151000    1.4306728   -5.4684397    4532.1533            2 
  152000    1.4746614   -5.4858874    4515.1887            2 
  153000    1.5038184   -5.4937582    4529.3788            3 
  154000     1.475887   -5.5120774    4516.7405            2 
  155000     1.483292   -5.4759457    4514.7539            1 
  156000    1.4947684   -5.4770735    4515.1619            2 
  157000    1.4574539   -5.4425835    4515.9832            3 
  158000     1.496942   -5.4802468    4522.9747            3 
  159000    1.5243889   -5.4981428    4522.5531            2 
  160000    1.4905798    -5.495184    4515.8848            3 
  161000    1.5247709    -5.488307    4531.8295            2 
  162000    1.4772989   -5.4504044    4520.4942            1 
  163000    1.4875632   -5.4947494    4494.4364            3 
  164000    1.4848414   -5.5428559    4516.5927            2 
  165000    1.4348452   -5.4688784     4523.012            4 
  166000     1.500871   -5.4623177    4527.1516            1 
  167000    1.4690359   -5.5261693    4518.2888            2 
  168000    1.4813295   -5.4888775    4525.7763            1 
  169000    1.4773894   -5.5055372    4523.5369            1 
  170000    1.4952681   -5.4887037    4538.1388            2 
  171000    1.4926985     -5.49813    4504.8194            2 
  172000    1.4862199   -5.4769274     4536.125            1 
  173000    1.4714889   -5.4798597    4499.0557            1 
  174000    1.4719059   -5.4994294    4541.1027            2 
  175000    1.4603192   -5.4975575    4497.9732            1 
  176000    1.4761766   -5.4775556    4529.6627            2 
  177000    1.4628585   -5.4699413    4533.6603            2 
  178000    1.4638341    -5.490338    4526.4844            1 
  179000    1.4866004    -5.478095    4508.9005            2 
  180000    1.4871178   -5.4945378    4524.6758            2 
  181000     1.488427   -5.4888375    4542.1743            3 
  182000    1.4541371   -5.5111888    4487.6571            3 
  183000     1.470175   -5.5115926    4505.3466            2 
  184000     1.489266   -5.4401461    4538.6596            4 
  185000    1.4933245   -5.5084502    4498.1676            2 
  186000    1.4831034   -5.4425334    4520.7975            3 
  187000    1.4563508   -5.4330287    4526.3728            4 
  188000    1.4498574   -5.4728944    4516.5057            3 
  189000    1.4675218    -5.513387    4544.1947            2 
  190000    1.4852703   -5.5105164    4521.4697            3 
  191000    1.5094361   -5.5470137     4526.323            1 
  192000    1.4830561   -5.4889017    4514.6053            2 
  193000    1.5150215    -5.483386    4512.1686            2 
  194000    1.4888261   -5.5129449    4504.4202            4 
  195000    1.4939314    -5.511354     4514.301            1 
  196000    1.4801185     -5.48807     4488.823            1 
  197000    1.4578131   -5.4701313    4510.0449            1 
  198000    1.5173795   -5.5158837    4499.7991            2 
  199000    1.4683857   -5.5090764    4486.3023            1 
  200000    1.5297548   -5.4718419    4536.2004            4 
  201000    1.5021526   -5.4426681    4549.8712            2 
  202000    1.5313916    -5.524051    4519.8179            2 
  203000    1.4525226   -5.4891138    4526.0807            1 
  204000    1.4884435   -5.4525189    4533.6562            1 
  205000    1.4786088   -5.4870511    4516.3609            3 
  206000    1.4789766   -5.4853523    4532.6555            2 
  207000    1.4701424    -5.492311    4542.2577            3 
  208000    1.4814024   -5.4923787    4533.9545            2 
  209000      1.48192   -5.4775905    4499.0358            2 
  210000    1.4921366   -5.4257119    4526.4669            1 
  211000    1.4669862   -5.4598202    4545.1047            2 
  212000    1.4884629   -5.4519397    4547.4053            2 
  213000    1.4900422   -5.4951323    4504.4201            2 
  214000    1.4576182   -5.5259882    4510.3209            2 
  215000     1.487802    -5.489825    4496.2773            2 
  216000    1.4610723   -5.4540212    4535.4578            1 
  217000    1.4914572   -5.4480528    4554.2083            2 
  218000    1.4759989   -5.4746657    4509.1795            2 
  219000    1.5046522   -5.4514831    4503.2784            2 
  220000    1.4982674   -5.4834138    4511.5989            2 
  221000    1.4752826   -5.5139146    4489.1061            3 
  222000    1.4530721    -5.420256    4537.6612            2 
  223000    1.5083881   -5.4664848    4532.8702            2 
  224000     1.486244   -5.4870665    4526.1181            1 
  225000    1.4889536   -5.4785403    4512.8777            1 
  226000     1.488766   -5.5146413    4533.3366            3 
  227000    1.4835312   -5.5012023    4476.0486            1 
  228000    1.4547176   -5.4785812    4520.3363            2 
  229000    1.4848689    -5.501352    4493.6191            2 
  230000    1.4935217   -5.4843962    4543.9648            2 
  231000     1.461016   -5.5216786    4521.4264            2 
  232000    1.4659805   -5.5308352    4515.1452            3 
  233000    1.4784991    -5.511033    4495.5562            2 
  234000    1.4666595   -5.4753301    4515.0603            2 
  235000    1.4927874   -5.4924858     4504.179            4 
  236000    1.4840204   -5.5231695    4494.8588            2 
  237000    1.4482279   -5.4649987    4493.3247            4 
  238000    1.4803967   -5.4901453    4508.6084            1 
  239000    1.4786457   -5.4376222    4522.2926            1 
  240000    1.4652361   -5.5270046    4502.0373            1 
  241000    1.4721574   -5.4914024     4497.386            1 
  242000    1.4876432   -5.4887751    4507.4879            2 
  243000    1.4894889   -5.5190542    4514.1094            1 
  244000    1.4612208   -5.4605264    4537.7456            2 
  245000    1.5059684   -5.5081975    4509.2657            1 
  246000       1.4674     -5.47469     4537.622            1 
  247000    1.4576413    -5.493414    4492.7677            5 
  248000    1.4715932   -5.4833261    4510.0873            1 
  249000    1.4566164   -5.4741155    4517.8053            2 
  250000    1.4863785    -5.468264    4499.4297            1 
  251000    1.4903767   -5.5190095    4529.3678            2 
  252000    1.4828106   -5.5160752     4519.233            4 
  253000    1.4836945   -5.5376331    4506.3049            2 
  254000    1.4552435   -5.4619748    4541.5948            3 
  255000    1.4761147   -5.4758413    4520.6997            2 
  256000    1.4845516   -5.4972773    4512.1906            3 
  257000    1.4964811   -5.4653739    4505.1272            3 
  258000    1.4725566    -5.504865    4512.7245            2 
  259000    1.5004681   -5.4879213    4499.0459            2 
  260000    1.4906826    -5.494426    4524.6071            1 
  261000     1.454236   -5.4965827    4524.2284            1 
  262000    1.4967861   -5.4742691    4514.4807            2 
  263000     1.481678   -5.4756555    4550.0277            3 
  264000    1.4661955   -5.5116219    4524.4628            2 
  265000    1.4832117   -5.5196642    4494.3128            3 
  266000      1.46214   -5.4664946    4540.3432            2 
  267000    1.4731311   -5.4786634    4529.1489            2 
  268000    1.5056887    -5.468928    4517.7755            3 
  269000    1.4826487   -5.5285062    4516.4246            2 
  270000    1.4511774   -5.5007437    4521.1289            1 
  271000    1.4917022   -5.4630759    4513.4803            2 
  272000    1.4893558    -5.503795    4496.3688            1 
  273000    1.4723514   -5.4407176    4509.1184            2 
  274000    1.4577146   -5.4722565    4526.3862            2 
  275000    1.4882266   -5.4668771    4518.1142            3 
  276000    1.4778175   -5.4988867    4531.0538            2 
  277000    1.4996343   -5.4626903    4519.9484            2 
  278000    1.4732412   -5.4777452    4541.7305            1 
  279000    1.4978946   -5.4916772    4511.5124            3 
  280000     1.513634   -5.5230676    4510.0328            3 
  281000    1.4917858   -5.4745978    4520.0377            2 
  282000    1.4847236   -5.4680658    4526.7876            1 
  283000    1.4452455   -5.4790199    4515.5678            3 
  284000    1.4564933   -5.4339969    4531.5299            8 
  285000    1.4718185    -5.459115    4538.2473            1 
  286000     1.465871   -5.5043189    4510.7443            1 
  287000    1.5015983   -5.5052354    4535.5016            1 
  288000    1.4720832   -5.4405246    4519.1842            1 
  289000    1.4833027   -5.4623011    4535.6012            2 
  290000    1.4849302   -5.4788918    4531.2905            2 
  291000     1.487227   -5.4835268    4508.7552            1 
  292000    1.4862028   -5.5041037    4517.1902            5 
  293000    1.4975986   -5.5144279    4511.0334            2 
  294000    1.4820895   -5.5101139    4521.6394            2 
  295000    1.4396886   -5.5115231    4512.8732            1 
  296000    1.4812339   -5.5121573    4517.9465            2 
  297000    1.4284838   -5.4927182    4513.9323            3 
  298000    1.4862124   -5.5165787    4487.5179            2 
  299000    1.4898307   -5.4473588    4536.8331            2 
  300000    1.5093339   -5.4882523    4513.8227            1 
  301000    1.4949584   -5.4847841     4518.526            2 
  302000    1.4901223   -5.5107095     4516.501            5 
  303000    1.4805572   -5.5079511    4519.7496            1 
  304000    1.4689769   -5.4540851    4543.1548            2 
  305000    1.5276456   -5.4782199    4517.6936            1 
  306000    1.4888379    -5.499355    4503.2215            1 
  307000    1.4561277   -5.4932924    4536.2406            3 
  308000    1.4708722    -5.490512    4531.6326            3 
  309000    1.4727051   -5.4867594    4518.4739            1 
  310000    1.5042687   -5.4594698    4514.6358            2 
  311000    1.4597077   -5.4928483    4517.8097            1 
  312000    1.4678086    -5.450545    4520.6948            2 
  313000    1.4953268   -5.4438487    4503.1359            2 
  314000    1.4686268   -5.5229437    4508.9707            1 
  315000     1.469367   -5.4965538    4511.8773            3 
  316000    1.5022246   -5.4811446    4538.8237            1 
  317000    1.4808107   -5.4497684    4547.7005            2 
  318000    1.4941321   -5.4821969    4539.6808            1 
  319000    1.4716539   -5.4508853    4509.7865            2 
  320000     1.462589   -5.4922304    4537.9357            2 
  321000    1.4688574   -5.4871379    4530.3628            2 
  322000    1.5129932   -5.4951389    4510.0404            3 
  323000    1.4710142   -5.4750314    4551.5814            1 
  324000    1.4748806   -5.5103695    4524.9842            2 
  325000    1.5052435   -5.5202398    4511.0646            2 
  326000    1.4808958   -5.4929682    4526.6803            1 
  327000    1.4453919    -5.517856    4505.5244            2 
  328000    1.4790523   -5.4902844    4528.3776            2 
  329000    1.4994417   -5.4789643    4511.4372            2 
  330000    1.4850203   -5.5047476    4483.9903            3 
  331000    1.4593764    -5.490133    4498.1849            2 
  332000    1.4624563   -5.4279843    4560.3591            1 
  333000    1.4642997   -5.5080038    4525.3529            2 
  334000     1.485704   -5.4902124    4527.8256            1 
  335000    1.4968024   -5.4778715    4523.7469            3 
  336000    1.4737876   -5.4881526    4505.1568            3 
  337000    1.4504406   -5.4920924    4518.8824            3 
  338000    1.4785172   -5.5229324    4477.9946            3 
  339000    1.4750041   -5.5247802    4528.0879            2 
  340000    1.4767635   -5.4674355    4538.4913            4 
  341000    1.4760772    -5.468679     4522.611            3 
  342000    1.4754471   -5.5022302    4508.7497            3 
  343000    1.4977706   -5.4885056     4519.825            3 
  344000    1.4640981   -5.5235817    4500.5591            4 
  345000    1.5226009   -5.4556347    4527.7844            1 
  346000     1.478122   -5.4688663    4554.6803            1 
  347000    1.4418287   -5.4985513    4509.2055            2 
  348000    1.4798087     -5.49018    4514.3279            2 
  349000    1.4823684   -5.4960566    4512.1642            1 
  350000    1.5269468   -5.5206901    4496.5716            1 
  351000    1.4905284   -5.5059955     4517.304            3 
  352000    1.4824312   -5.5138477    4509.0884            3 
  353000    1.4606663   -5.4714803     4492.263            3 
  354000    1.4851886   -5.4652208    4525.2954            2 
  355000    1.4543896   -5.5024156    4527.8492            2 
  356000    1.5130176   -5.4660624    4519.1142            2 
  357000    1.5097873   -5.5037099    4521.2333            2 
  358000    1.4872394   -5.4894171    4508.8232            3 
  359000    1.4804318   -5.4909196    4504.9063            1 
  360000    1.4326198   -5.4720254    4536.5563            1 
  361000    1.4713731   -5.4923451    4507.1696            1 
  362000     1.477716   -5.4904555    4511.3824            2 
  363000    1.4874286    -5.504865    4483.7466            2 
  364000     1.474086   -5.5020941    4497.5939            2 
  365000     1.459321    -5.541955    4501.8366            2 
  366000    1.4785719   -5.5110866    4533.3448            4 
  367000    1.4881554   -5.5113883    4523.5321            2 
  368000    1.4867374   -5.5150794    4523.3251            1 
  369000    1.4748471   -5.4815193    4526.8542            5 
  370000    1.4950494   -5.4812908    4542.5772            2 
  371000    1.4928149    -5.528488    4518.2885            3 
  372000    1.4713249   -5.5372926    4516.4465            2 
  373000    1.5035967   -5.4928907    4489.5013            1 
  374000    1.5083135   -5.4950473    4494.0956            2 
  375000    1.4787495   -5.5060858    4515.3413            2 
  376000    1.4578705   -5.4583491    4514.6289            1 
  377000    1.4557869   -5.4337009    4517.6154            1 
  378000    1.4849926   -5.4706971    4535.7813            2 
  379000    1.4648862   -5.4332489    4539.1741            2 
  380000    1.4641982   -5.5135169    4544.1953            1 
  381000    1.4776054   -5.4819812    4520.5316            2 
  382000    1.4839074   -5.4643142    4520.2626            2 
  383000    1.4751164   -5.4728356    4532.6655            3 
  384000    1.4764329   -5.4575366    4522.8793            2 
  385000    1.5072049   -5.4908053    4520.4117            2 
  386000    1.5005558    -5.494405    4512.5031            3 
  387000    1.4704996   -5.4566548    4526.2655            2 
  388000    1.4708558   -5.4997158    4510.8985            2 
  389000    1.4503518   -5.4399764    4558.9903            1 
  390000    1.4901087   -5.4439152    4537.7703            3 
  391000    1.4677995   -5.4786205    4525.0552            4 
  392000    1.4715085     -5.49279     4510.574            2 
  393000    1.4635706   -5.5002023    4523.9526            2 
  394000    1.4625077   -5.4878953    4522.6877            2 
  395000     1.475646   -5.4991512    4535.8777            1 
  396000    1.4684966   -5.4911443    4541.4679            1 
  397000    1.4750821   -5.5026884    4493.3921            1 
  398000     1.496925   -5.4758032    4538.4102            1 
  399000    1.4804296   -5.4864433    4509.2485            2 
  400000    1.4618746   -5.4841944    4511.5076            2 
  401000    1.4472285   -5.4757791    4512.4077            2 
  402000    1.4958123   -5.5328169    4524.0542            1 
  403000    1.4524227   -5.4916598    4519.2873            1 
  404000    1.4941588   -5.4891211    4526.9387            2 
  405000    1.4624163   -5.5101996    4493.5251            2 
  406000    1.4808984   -5.4827731    4513.5478            2 
  407000    1.4953375   -5.5332651    4499.3985            2 
  408000    1.4730537   -5.4870156    4530.1068            2 
  409000    1.4907834   -5.4454915     4538.215            2 
  410000    1.5050232   -5.5507509    4480.4037            2 
  411000    1.4555588    -5.549279     4501.162            1 
  412000    1.4564733   -5.5303233    4508.3457            1 
  413000    1.4826392   -5.5250877    4509.1647            3 
  414000    1.4613222   -5.4796612     4521.673            2 
  415000    1.4901534   -5.4878754    4514.1529            1 
  416000    1.4760142   -5.4248741    4515.3111            1 
  417000    1.4865855   -5.4711114    4502.8387            2 
  418000    1.4470798    -5.448842    4531.9418            3 
  419000     1.491098   -5.4942177    4510.5617            3 
  420000     1.475199   -5.4905076    4526.9335            2 
  421000    1.4536633   -5.4728401    4538.1832            1 
  422000    1.4898761   -5.4480742    4527.7745            1 
  423000    1.4794072   -5.4887674    4505.4437            2 
  424000    1.4946106   -5.4672161    4515.9001            1 
  425000    1.4671734    -5.460192    4540.0015            1 
  426000    1.4694507    -5.474683    4505.1865            2 
  427000    1.5051556   -5.4761168    4536.5349            2 
  428000    1.4705905   -5.4965079    4512.9515            1 
  429000    1.4930902   -5.4840243    4493.6053            2 
  430000    1.4776168   -5.5082909    4524.6741            1 
  431000    1.4798107   -5.4811091    4522.6114            3 
  432000     1.479046   -5.5010889    4524.3591            1 
  433000    1.5112825   -5.5284877    4513.0935            2 
  434000    1.4451982   -5.4756191    4496.5852            3 
  435000    1.5027836   -5.4930877     4520.036            1 
  436000    1.4537902   -5.4875971     4564.881            3 
  437000    1.4672111   -5.4935762    4532.2075            2 
  438000    1.4582659   -5.4765047    4545.6743            2 
  439000    1.5063433   -5.4616763    4510.0663            2 
  440000    1.4616076   -5.4658752    4533.7678            5 
  441000    1.4869112   -5.4882096    4495.0185            5 
  442000    1.4751852   -5.4959312    4500.6758            2 
  443000    1.4959606   -5.5049901    4510.4622            2 
  444000    1.4612205   -5.4522429    4504.2202            2 
  445000    1.4981076   -5.4455811    4531.4421            1 
  446000    1.4975574   -5.4676508    4520.4052            2 
  447000    1.4614537   -5.5467566    4511.9434            3 
  448000    1.4985521   -5.4756395    4504.7386            1 
  449000    1.4264097   -5.5215375    4507.3691            3 
  450000    1.5101166   -5.4782023    4496.2878            2 
  451000     1.494829   -5.5123697    4491.8028            3 
  452000    1.4895871   -5.5106792    4522.9891            2 
  453000    1.4785455   -5.4948116    4542.4058            3 
  454000    1.4673837   -5.5092585     4505.606            1 
  455000    1.4556665   -5.4676396    4491.5927            2 
  456000    1.4832402   -5.4815605    4519.3686            1 
  457000    1.4737828   -5.5210096    4536.1892            3 
  458000    1.4996059   -5.5276471    4511.3165            1 
  459000     1.463279   -5.5330368    4500.7089            2 
  460000      1.48483   -5.4962946    4508.1065            2 
  461000    1.4742571   -5.5190536     4526.453            3 
  462000    1.4594687   -5.4894453    4528.0968            3 
  463000    1.4840831   -5.4778728    4556.4986            2 
  464000    1.4854212   -5.4427638    4527.9586            2 
  465000    1.4662847   -5.4617817    4527.2405            4 
  466000    1.4726031   -5.4779807    4513.5661            2 
  467000    1.4676029   -5.4793002    4533.0782            2 
  468000    1.4860079   -5.4547403    4523.6143            1 
  469000    1.4835367    -5.521154    4508.3652            2 
  470000     1.468503   -5.5043189    4530.5699            7 
  471000    1.4889685   -5.4748136    4523.6565            2 
  472000    1.4675381    -5.475625    4524.6598            3 
  473000    1.4921479   -5.4706207    4511.0101            1 
  474000    1.4627157   -5.4562589     4515.006            2 
  475000    1.5011937   -5.4395692    4524.4572            2 
  476000    1.4527069   -5.5005113    4514.5607            1 
  477000    1.4669292   -5.4917261    4545.4358            3 
  478000    1.4584364    -5.474761    4522.7271            2 
  479000     1.483981   -5.4881204    4516.4881            2 
  480000    1.4697371   -5.5030422     4516.556            1 
  481000    1.5039672   -5.5077879    4528.4393            2 
  482000    1.4846182   -5.5290667    4535.8401            1 
  483000    1.4851407   -5.4643823    4486.3431            2 
  484000    1.4911668   -5.4745913    4501.5601            4 
  485000    1.4780257   -5.4793768    4528.8581            2 
  486000    1.4934558   -5.4929504    4514.2548            2 
  487000    1.4895928   -5.4818425     4505.881            3 
  488000    1.4492501   -5.4717413    4516.4918            3 
  489000    1.4722359   -5.4650353    4524.1722            2 
  490000    1.5036388   -5.4615041    4520.0277            1 
  491000    1.4751527   -5.4838231    4521.4781            1 
  492000    1.4714873   -5.4499813    4529.5198            3 
  493000    1.5188861   -5.4883192    4531.1041            1 
  494000    1.4826231   -5.4728273     4511.617            2 
  495000    1.4740697   -5.4934934    4544.0049            1 
  496000    1.4804335   -5.4767865    4529.2622            2 
  497000    1.4949625   -5.5065415    4527.0702            1 
  498000    1.4611751   -5.4652506     4512.457            5 
  499000    1.4897285   -5.5160923    4533.1083            1 
  500000     1.468079     -5.53534    4527.9938            2 
  501000    1.4658944   -5.4846156    4507.7113            3 
  502000    1.4594768   -5.4519514    4515.7301            2 
  503000    1.4561907   -5.5272233    4516.5646            5 
  504000    1.4918324   -5.4855901    4523.8129            2 
  505000    1.4822098   -5.5113193    4500.4195            2 
  506000    1.4705492   -5.4776099    4503.0527            2 
  507000    1.4983903   -5.5588818    4507.4536            4 
  508000    1.4599183   -5.4675423    4540.5286            2 
  509000    1.4870868   -5.4619493    4515.9713            4 
  510000      1.45498   -5.5020908    4524.4255            2 
  511000    1.4534756   -5.5224942    4524.6651            4 
  512000    1.4592565   -5.5138107    4513.4838            1 
  513000    1.4653187   -5.4624768    4510.0503            2 
  514000       1.4739   -5.4556129    4526.9006            3 
  515000    1.4855144   -5.5122092    4514.5162            1 
  516000     1.481379   -5.5046437    4527.6333            2 
  517000    1.4995634   -5.5250652     4516.977            1 
  518000    1.5059945   -5.4812397    4505.0414            3 
  519000    1.5202734   -5.4879324    4532.4002            1 
  520000    1.4668196   -5.5088741    4501.3232            1 
  521000    1.4674395    -5.493065    4536.9117            2 
  522000    1.4726128   -5.5045798    4519.9438            2 
  523000    1.4773051   -5.5105765    4519.4589            4 
  524000    1.5100178   -5.5207479    4514.3814            2 
  525000    1.4771354   -5.5195138    4501.6827            1 
  526000     1.500173    -5.495273    4536.5261            1 
  527000    1.4831244   -5.4786528    4521.2756            2 
  528000    1.4601471   -5.4938093    4538.8505            1 
  529000    1.4920371   -5.4526273    4526.6751            2 
  530000    1.4777257   -5.4984304    4508.7496            3 
  531000    1.4705611   -5.5220121    4507.7019            3 
  532000     1.471351   -5.4912227    4521.4524            3 
  533000    1.5141443   -5.5038776    4525.3264            1 
  534000    1.4799627   -5.4761239    4535.7519            3 
  535000    1.4885656   -5.4707948     4532.478            4 
  536000    1.4430058   -5.4936884    4508.7304            2 
  537000    1.4476172     -5.47822    4525.0327            2 
  538000    1.4658699   -5.4512435    4537.7044            2 
  539000    1.4606713   -5.4959855    4499.8774            1 
  540000    1.4768175   -5.4500594    4501.5268            2 
  541000    1.4786491   -5.4863327    4521.4919            2 
  542000    1.5036609   -5.4787403    4531.2786            5 
  543000    1.4392955   -5.4644244    4533.7506            2 
  544000    1.4876951   -5.4258838     4527.778            3 
  545000    1.4745516   -5.5116022    4520.2045            2 
  546000    1.4716656   -5.5189431    4514.5112           10 
  547000     1.452908   -5.4661761     4505.357            1 
  548000    1.4759944   -5.4874612    4520.1164            2 
  549000    1.5336348   -5.5367343    4525.3738            1 
  550000    1.5123648   -5.4783687    4540.7236            2 
  551000    1.4870709   -5.4511099    4553.2962            3 
  552000    1.4870338   -5.4954334    4523.4938            3 
  553000    1.4818038   -5.4637713    4543.9969            2 
  554000    1.4666833    -5.457798    4546.5456            2 
  555000    1.4564411   -5.4741954    4523.0322            2 
  556000    1.4899112   -5.4964331    4516.0475            2 
  557000    1.4514705   -5.4791895    4517.1274            1 
  558000    1.5009023   -5.5028224    4506.0797            1 
  559000    1.4808795   -5.5041846    4527.4005            5 
  560000    1.5062391   -5.4762719    4523.7541            2 
  561000    1.4708203    -5.449696    4551.7832            3 
  562000    1.4669576    -5.479001    4517.4338            1 
  563000    1.4903079   -5.4323954    4535.5886            2 
  564000    1.5154862   -5.4672877    4535.0995            2 
  565000    1.4616316   -5.4696446    4510.5583            1 
  566000    1.4643486    -5.475305      4533.38            2 
  567000    1.4731552   -5.4813593    4530.3424            1 
  568000    1.4841976   -5.5040916    4509.2746            1 
  569000    1.4957825   -5.4620445     4511.891            5 
  570000    1.4517786   -5.4932396    4504.2753            1 
  571000    1.4920282    -5.528492    4508.2101            3 
  572000     1.491086   -5.4937018    4523.3911            2 
  573000    1.4923384   -5.5166339    4528.1515            3 
  574000    1.4598688   -5.5047466    4523.3043            5 
  575000    1.4997743   -5.4656325     4517.346            2 
  576000    1.4800572    -5.492553    4506.2934            1 
  577000    1.4642219   -5.5207739     4490.457            2 
  578000    1.5114436   -5.4875409    4535.3706            1 
  579000    1.4478926   -5.4969088    4522.4745            2 
  580000    1.4676292   -5.4662533    4513.1301            1 
  581000    1.5328578   -5.4730223    4486.3891            4 
  582000    1.4929091   -5.5182502    4502.5135            2 
  583000    1.4963636   -5.4903995    4516.5487            2 
  584000    1.4662998   -5.4806787    4512.7513            2 
  585000     1.504641   -5.4870042    4491.0939            4 
  586000    1.5247894   -5.5320301    4503.6935            1 
  587000    1.4793235   -5.4476904    4540.7489            2 
  588000    1.4981666   -5.4980783    4491.6197            3 
  589000     1.445607   -5.5266865    4535.5317            2 
  590000    1.4829769   -5.4508531    4531.5784            2 
  591000    1.4653541   -5.5243279    4510.1273            1 
  592000    1.4396133   -5.4579622    4517.8326            2 
  593000    1.4880336   -5.4806481    4515.4763            1 
  594000    1.4787983   -5.5099204    4518.1393            3 
  595000    1.4693436   -5.5183485    4490.7905            1 
  596000    1.4761785   -5.5109535    4538.1134            1 
  597000    1.4783507   -5.4968744    4508.4422            2 
  598000    1.4793937   -5.5223279    4496.9171            2 
  599000    1.5061667    -5.473216    4514.0998            3 
  600000    1.4768095   -5.5180648    4521.2928            2 
  601000    1.4912284    -5.506715    4511.4386            2 
  602000    1.4899302   -5.4811054    4540.8076            2 
  603000    1.4881838   -5.5071076    4502.8882            1 
  604000    1.4412757   -5.4606013    4497.9177            2 
  605000    1.4608636   -5.4925853    4530.0054            2 
  606000     1.467695   -5.4557249    4536.7804            2 
  607000         1.47   -5.4730716    4512.1211            1 
  608000    1.4852778   -5.4736337    4519.6943            1 
  609000    1.4711329   -5.5243389     4511.492            3 
  610000    1.4766156   -5.4642564    4533.5736            2 
  611000    1.4598194   -5.4714653    4539.8255            2 
  612000    1.4741345    -5.546053    4511.4752            2 
  613000    1.4869787   -5.4917071    4486.0396            4 
  614000    1.4858884   -5.4757053      4539.24            3 
  615000    1.4676101   -5.5154319    4497.5695            1 
  616000    1.4767702   -5.5115105     4514.899            1 
  617000    1.4593432   -5.5322799    4505.9418            2 
  618000    1.5203633    -5.489598    4511.3228            1 
  619000    1.4890604   -5.4806338    4520.4817            4 
  620000     1.455573   -5.5046334    4487.1744            2 
  621000    1.4925328   -5.4930198    4530.1994            3 
  622000    1.4976613   -5.4712892     4508.418            3 
  623000    1.4539226   -5.4565872     4526.583            3 
  624000    1.4753382   -5.4636577    4537.9163            2 
  625000    1.4821983   -5.4771361    4523.6494            3 
  626000    1.4594292   -5.4909835     4523.444            2 
  627000    1.4803124   -5.4621948      4523.44            3 
  628000    1.4738152   -5.4931122    4534.0486            1 
  629000     1.455975   -5.4767777    4541.4223            1 
  630000     1.488331   -5.4597162    4532.6942            2 
  631000    1.4829683   -5.4816625    4511.3348            2 
  632000    1.4722541   -5.4650716    4521.1766            3 
  633000     1.468692   -5.4668848    4512.7791            1 
  634000    1.4904118   -5.5262643    4531.4168            2 
  635000    1.4947687   -5.4686632    4541.7521            1 
  636000    1.5199732   -5.4888938    4535.7938            2 
  637000    1.4704125   -5.5232864    4485.1977            2 
  638000     1.478251   -5.5087072    4513.3437            2 
  639000    1.5099236   -5.4622416    4534.7183            1 
  640000    1.4873688   -5.4308847    4530.2645            2 
  641000    1.4768186   -5.4955636    4533.9043            1 
  642000    1.5053808    -5.476267    4517.0124            2 
  643000    1.4683682   -5.4860961    4521.6134            2 
  644000      1.48712   -5.4717514    4498.9518            2 
  645000    1.4589812   -5.5312075     4495.714            2 
  646000    1.5180364   -5.5196074    4475.5212            5 
  647000    1.4959633   -5.4615792    4528.9738            1 
  648000    1.4680295   -5.4621187    4520.2795            2 
  649000    1.4855238    -5.494364    4512.8325            2 
  650000    1.4723973   -5.4985557    4519.2653            2 
  651000     1.489337   -5.4693326    4539.4352            3 
  652000    1.5380111   -5.5126841    4503.2781            1 
  653000    1.4914303   -5.4562715    4536.3993            1 
  654000    1.4887253   -5.4615529    4523.4865            2 
  655000    1.5089898   -5.5145747    4521.2971            1 
  656000    1.4745992   -5.5084805    4499.3569            1 
  657000    1.4621617   -5.4353373    4528.1135            2 
  658000    1.4446058   -5.4645612    4513.8149            2 
  659000    1.4684008   -5.4274342    4551.5861            2 
  660000    1.5057184   -5.4563163     4513.975            3 
  661000    1.4907277   -5.4918217    4532.8538            2 
  662000    1.4949059   -5.4844043    4528.8856            2 
  663000     1.469317   -5.4514111     4556.495            2 
  664000    1.5071842   -5.4612335    4550.9817            3 
  665000    1.4639036   -5.4457879    4520.1796            2 
  666000    1.4692612   -5.4760626    4499.6808            1 
  667000    1.5000712   -5.5106507    4513.4154            5 
  668000    1.4661183    -5.505379    4497.9615            3 
  669000    1.4875631   -5.4767721    4522.6641            2 
  670000     1.454788   -5.4813732    4521.2001            3 
  671000    1.4890865   -5.4932304    4525.8378            6 
  672000    1.4618089   -5.4298604    4544.1219            1 
  673000    1.4664214   -5.4729377    4492.1427            1 
  674000    1.4759091   -5.4719054    4510.1209            3 
  675000    1.4693326    -5.456806    4527.3273            1 
  676000     1.479879   -5.4927542    4506.7789            1 
  677000    1.4434683   -5.4443268    4523.9182            1 
  678000    1.5078403   -5.4547092    4527.9626            4 
  679000    1.4655832   -5.4871511    4521.1969            6 
  680000    1.4888501   -5.4813405    4523.1759            2 
  681000    1.4493654   -5.4456075    4539.1351            2 
  682000    1.4966222   -5.4880809    4511.0714            2 
  683000    1.4756457   -5.4461838    4524.2448            2 
  684000    1.4595034   -5.4981383    4519.3061            4 
  685000    1.4661893   -5.5426002    4517.7046            3 
  686000    1.5006027   -5.5165428    4510.4617            2 
  687000    1.4450597    -5.485084    4521.2331            3 
  688000    1.4983354   -5.4793141    4532.5907            2 
  689000    1.4537037    -5.497061    4517.5676            1 
  690000    1.5024202   -5.4845391    4513.6754            1 
  691000    1.4599008   -5.4710231    4516.7493            3 
  692000    1.4538183   -5.5043824    4516.7453            1 
  693000     1.484035   -5.4851707     4497.786            2 
  694000    1.4667261   -5.4820706    4537.3994            2 
  695000    1.4951693   -5.5531693    4504.9539            2 
  696000    1.4861948   -5.4677929    4526.2987            1 
  697000    1.4637581   -5.4842212     4530.603            2 
  698000     1.442737   -5.5040783    4507.0023            1 
  699000    1.4603497   -5.5149901    4515.0054            4 
  700000    1.4877589   -5.5023378    4531.1918            2 
  701000    1.5012052   -5.4878239    4514.5712            2 
  702000    1.4851593   -5.4946434    4499.1951            1 
  703000    1.4954131   -5.4854587    4518.1512            1 
  704000     1.473265   -5.4841086    4512.6535            2 
  705000    1.4817618   -5.4625132    4544.3334            4 
  706000     1.495908   -5.4528963    4515.6312            4 
  707000    1.4873561    -5.504884    4512.6658            6 
  708000    1.4492415    -5.479814    4519.7258            2 
  709000    1.4732854   -5.4680997     4515.111            1 
  710000    1.4941494   -5.5020611    4517.6501            3 
  711000    1.4786736   -5.4706391    4527.3059            3 
  712000    1.4901687   -5.4643719    4530.1057            2 
  713000    1.4483243   -5.4745387    4524.8774            1 
  714000    1.4748215   -5.4950689    4539.1665            1 
  715000    1.4733513   -5.4682424    4512.6649            2 
  716000    1.4825512    -5.479958    4499.4407            2 
  717000    1.4813596   -5.5112891    4522.3584            3 
  718000    1.4828041    -5.501122     4527.122            1 
  719000    1.5170491   -5.5192822    4492.9779            2 
  720000    1.4592623   -5.4801969    4525.6446            1 
  721000    1.4492202   -5.4808415     4543.974            1 
  722000    1.4803315   -5.4806749    4520.9923            2 
  723000    1.5043123   -5.4503937    4517.4972            2 
  724000    1.4438671   -5.5415289    4519.1386            4 
  725000    1.5087232   -5.4683914    4524.3218            2 
  726000    1.4644083   -5.4667714    4537.8592            3 
  727000    1.4810197   -5.4995511    4515.8388            2 
  728000    1.5025691   -5.4799703    4515.2695            2 
  729000    1.4736792   -5.4919636    4523.8251            3 
  730000    1.4792242    -5.495807    4514.1116            1 
  731000    1.4989124   -5.4761274    4548.6485            2 
  732000    1.4727023   -5.4886668    4505.1947            1 
  733000    1.4624961   -5.4708506    4511.4793            1 
  734000    1.4882896   -5.4519647    4529.3603            1 
  735000    1.4632383   -5.4893388    4508.6541            2 
  736000    1.4813899   -5.5044216     4514.265            3 
  737000    1.4709923   -5.5053529    4501.1286            1 
  738000    1.4681753   -5.4387059    4521.2713            2 
  739000    1.4733799   -5.4892641    4550.2029            2 
  740000    1.4584686    -5.518951     4500.812            1 
  741000    1.4764957   -5.4555077    4536.5537            3 
  742000    1.4886945   -5.4959937    4512.5771            1 
  743000    1.4974726   -5.4673389    4562.3017            1 
  744000    1.4590487    -5.461523    4526.1274            1 
  745000      1.48413   -5.5066674    4493.2643            1 
  746000    1.4700261   -5.4766179    4527.1187            2 
  747000    1.4843097   -5.4841538    4524.1768            1 
  748000    1.4930005   -5.4431027    4528.0665            1 
  749000    1.4709892   -5.4863356    4545.9442            2 
  750000    1.4611355   -5.4547595    4524.0131            3 
  751000    1.4865006   -5.4778066    4533.7442            3 
  752000    1.4994443   -5.4815439    4501.0438            1 
  753000    1.4715905   -5.4852904    4517.1909            3 
  754000    1.4532517   -5.4411802    4539.0209            3 
  755000    1.4671009    -5.480733    4501.6453            6 
  756000    1.4542643    -5.446653    4512.0755            2 
  757000     1.460818   -5.4845062    4522.3386            3 
  758000    1.4850884   -5.4970671    4518.3422            1 
  759000    1.4893069   -5.4701247    4524.7449            1 
  760000    1.4564763   -5.4435899    4528.6033            2 
  761000    1.4838699   -5.4886197    4544.5984            2 
  762000    1.4760758   -5.4762592    4525.8371            4 
  763000    1.4962074   -5.4524199    4507.9345            3 
  764000    1.4618464   -5.4499638    4510.2495            2 
  765000    1.4708387   -5.5007894    4515.0971            1 
  766000     1.473393   -5.4959304    4504.7145            2 
  767000    1.5035821   -5.5311139    4510.4592            3 
  768000    1.4524909   -5.4835723    4540.2837            3 
  769000    1.4674537   -5.5493885    4505.9907            3 
  770000     1.507927   -5.4815559    4525.9079            1 
  771000     1.459798   -5.5337007    4525.9939            3 
  772000    1.5037862   -5.4721026     4509.439            2 
  773000    1.5097719   -5.4993722    4525.2475            4 
  774000    1.5288457   -5.5041927    4544.1247            3 
  775000    1.4667626   -5.5136608    4532.6387            1 
  776000     1.491819   -5.4385033    4547.2451            3 
  777000    1.5018564   -5.4676847      4533.85            2 
  778000    1.4669258   -5.4778201    4507.2484            1 
  779000    1.5014669   -5.4820014    4513.0825            2 
  780000     1.484083   -5.5022713    4501.3887            1 
  781000    1.4840782   -5.5010939    4521.6195            3 
  782000    1.4934255   -5.5037464    4511.9454            2 
  783000    1.4413513   -5.4785815     4526.389            4 
  784000    1.4810308   -5.4968488    4537.8311            1 
  785000    1.4823935   -5.5076062    4519.3774            2 
  786000    1.4786986   -5.4838435    4510.2605            1 
  787000    1.4727132   -5.4768897    4519.3646            2 
  788000    1.4570871   -5.4668857    4519.7822            3 
  789000    1.4798193   -5.4794295    4507.0577            2 
  790000    1.5045132    -5.469878    4497.4475            3 
  791000    1.4925864   -5.5290478     4511.719            2 
  792000    1.4865304    -5.465565    4548.1017            2 
  793000    1.4658914   -5.4600023    4543.6377            2 
  794000    1.4884757   -5.4684957    4524.9546            2 
  795000    1.4930698   -5.5399343    4519.1498            2 
  796000    1.4617881   -5.4859767    4515.0059            1 
  797000    1.4716442    -5.513798    4512.6323            2 
  798000    1.4552141   -5.4821925    4498.3235            2 
  799000    1.4495517   -5.4626902    4556.7852            7 
  800000    1.4680322   -5.4831382    4514.0858            3 
  801000    1.4788208    -5.491719     4526.674            2 
  802000    1.4769568    -5.428463    4560.4397            2 
  803000    1.4516464   -5.4675587    4516.4833            2 
  804000    1.4818303   -5.4916195    4514.3882            1 
  805000    1.4458862   -5.5067177    4524.7501            3 
  806000    1.4650086   -5.4892067    4516.8456            2 
  807000    1.5145578   -5.4827999    4538.3144            2 
  808000    1.5026103    -5.540472    4505.4346            3 
  809000    1.4733591   -5.4706333    4524.3637            2 
  810000    1.4866952   -5.4595837    4532.1531            2 
  811000    1.4740894   -5.5011721       4508.8            2 
  812000    1.5121717   -5.4582966     4503.863            1 
  813000    1.4709263   -5.5013262    4510.4414            3 
  814000    1.5033417   -5.5128882    4531.3607            4 
  815000     1.493427   -5.4888871    4522.7078            2 
  816000    1.4925757   -5.5265005    4485.1821            2 
  817000    1.4935858    -5.480473     4542.427            1 
  818000    1.4752163   -5.4810437    4519.0319            1 
  819000    1.4730304   -5.4959029    4509.5758            2 
  820000    1.4785091   -5.5606767    4505.2218            2 
  821000    1.4980442   -5.4361502    4519.7373            2 
  822000    1.5035093   -5.4299998    4556.8206            2 
  823000    1.4825909   -5.4735894     4516.056            1 
  824000    1.4868335    -5.489801     4516.773            2 
  825000    1.4544565   -5.5083827    4518.7184            2 
  826000    1.5129643   -5.4460116    4535.6278            2 
  827000     1.486812   -5.5087668    4498.9434            3 
  828000    1.4858575   -5.4812286    4516.1992            3 
  829000    1.4475693   -5.5082379     4533.201            2 
  830000    1.4919777   -5.5179358    4509.4644            2 
  831000    1.4709787   -5.4825653    4510.6416            2 
  832000    1.4745496   -5.4928166    4516.9269            2 
  833000    1.5086378   -5.4859109    4533.5887            4 
  834000    1.4429206   -5.4411431    4543.4843            2 
  835000    1.4776728     -5.49655    4527.9825            4 
  836000    1.4742476   -5.4985059    4544.5977            2 
  837000    1.4977869   -5.5016658    4525.7831            3 
  838000    1.5151173   -5.4983286    4530.7945            1 
  839000    1.4777427   -5.4650298    4525.9642            2 
  840000    1.4888077   -5.5170144    4519.3246            2 
  841000    1.4701995   -5.4866563    4535.7171            2 
  842000    1.4672056   -5.4742014    4538.6092            4 
  843000    1.4650479   -5.4511541    4539.7901            1 
  844000    1.4632587   -5.4302615    4521.9632            2 
  845000    1.4656646    -5.530936    4503.9162            3 
  846000    1.5021086    -5.467378     4521.597            3 
  847000    1.4858127   -5.4709572    4519.3673            2 
  848000     1.483205   -5.4658391    4509.0669            2 
  849000    1.4937071   -5.5142658    4499.8311            5 
  850000    1.5061957   -5.5215017    4489.5301            3 
  851000    1.5003619   -5.5053158    4496.1252            2 
  852000    1.4774211   -5.4730207    4529.8871            1 
  853000    1.4861839   -5.4723029    4524.3678            2 
  854000    1.4767973   -5.5078611    4524.6908            3 
  855000    1.4793232   -5.4925376    4527.5278            1 
  856000    1.5005355   -5.4968308    4520.0555            2 
  857000     1.481832   -5.4724872     4529.646            4 
  858000    1.4603283   -5.4658356    4532.7593            2 
  859000    1.4883805   -5.4559767    4526.3981            3 
  860000     1.486305   -5.5004315    4527.2274            2 
  861000    1.4814524    -5.465219    4545.1545            3 
  862000     1.494906   -5.5267027    4483.3001            1 
  863000    1.4788297   -5.4965297    4518.7475            1 
  864000    1.4930244   -5.4374808    4537.2847            2 
  865000    1.4391958   -5.4791975    4518.1888            2 
  866000    1.5002535   -5.4565143    4514.8331            1 
  867000    1.4763106   -5.4978316    4489.8565            2 
  868000    1.4512325   -5.5189514    4541.5385            1 
  869000    1.4594614   -5.4969442    4531.1398            4 
  870000    1.4871546   -5.4784586    4505.9471            2 
  871000    1.4845474   -5.5151874    4526.3269            2 
  872000    1.4872063   -5.5295186    4486.4173            3 
  873000    1.4918568   -5.4641841    4531.8817            3 
  874000    1.5005206   -5.4909901    4525.2908            2 
  875000    1.4727274   -5.3965335    4535.5405            1 
  876000    1.4801644   -5.5381915    4503.4633            2 
  877000     1.499061   -5.5133484    4514.9929            2 
  878000    1.4986387   -5.5256094    4523.8268            1 
  879000    1.4822626   -5.4638583    4502.9511            1 
  880000    1.4781219   -5.4942655    4510.7076            1 
  881000     1.478487   -5.4827872     4516.093            2 
  882000    1.4902402   -5.4733201    4524.2173            1 
  883000    1.4748177   -5.4737691    4537.1871            3 
  884000    1.5009263   -5.4734947    4524.7479            1 
  885000    1.4956566   -5.5237382    4511.8789            2 
  886000     1.485402   -5.4871628    4515.9363            5 
  887000    1.4412291   -5.5468712    4502.0205            3 
  888000    1.4734378   -5.4735834    4519.4107            2 
  889000    1.4610767   -5.4664212    4528.8985            2 
  890000    1.4736045   -5.4433463    4539.7157            2 
  891000    1.4814736   -5.4659861    4522.2822            2 
  892000    1.4597351   -5.4957297    4533.3662            2 
  893000    1.4650507   -5.5073262    4526.6914            3 
  894000    1.4759564   -5.4736119    4505.0349            3 
  895000    1.4759141   -5.5257345    4502.7928            3 
  896000    1.4535942   -5.4796976    4514.6354            2 
  897000    1.4622506   -5.4734563    4528.4737            2 
  898000    1.4769532   -5.4844368    4525.9549            3 
  899000    1.5120618    -5.473241    4554.0891            2 
  900000    1.4877683   -5.4866961     4513.265            3 
  901000    1.4727666   -5.4550812    4532.8164            1 
  902000    1.4756595   -5.5298002    4493.2232            1 
  903000    1.4747393   -5.4918862    4492.5847            2 
  904000    1.4971509   -5.4756459    4529.1882            2 
  905000    1.4718739   -5.4691082    4513.3019            1 
  906000    1.4732976   -5.5137098    4497.1728            5 
  907000    1.4966293   -5.4559255     4531.661            2 
  908000    1.4657308   -5.4902881    4517.6322            3 
  909000    1.4964266   -5.5112453      4512.62            3 
  910000    1.4683386   -5.4910868    4533.7484            1 
  911000    1.5133452    -5.487714    4525.0657            2 
  912000     1.511433   -5.4609896    4511.0856            2 
  913000    1.4441857   -5.4902734    4534.6448            1 
  914000    1.4740581   -5.4648726    4513.4832            2 
  915000    1.5157182   -5.4937873    4521.0771            2 
  916000     1.472863   -5.4557575    4507.4193            1 
  917000    1.4621408    -5.470832    4518.8516            2 
  918000     1.499233   -5.5217856    4522.4755            2 
  919000    1.4567585    -5.487962    4528.1674            3 
  920000    1.4667366   -5.4608574    4522.7457            1 
  921000     1.493102   -5.5160267    4500.2661            3 
  922000    1.4478537   -5.4935854    4518.7618            2 
  923000    1.4888228   -5.4831537     4526.513            1 
  924000    1.4989763   -5.5366888     4512.535            2 
  925000    1.4917495   -5.4947911    4513.9295            2 
  926000    1.4777881   -5.4800393     4509.785            4 
  927000    1.4495639    -5.507147     4515.891            2 
  928000     1.471217   -5.4684996    4520.2325            1 
  929000    1.4518734   -5.5056982    4523.9101            3 
  930000    1.4703124   -5.5029499    4505.7455            2 
  931000    1.4997378   -5.5011741    4523.2886            1 
  932000    1.4428593   -5.5053241    4511.3239            1 
  933000    1.5044892   -5.4594636    4531.2738            1 
  934000    1.4725384   -5.4925838     4527.738            3 
  935000    1.4961038   -5.4749046    4533.9222            4 
  936000    1.4940421   -5.4746344    4512.6527            3 
  937000    1.4800328   -5.4762683    4511.1566            2 
  938000    1.4843789   -5.4847977    4518.3108            1 
  939000      1.45988   -5.4922493    4534.2095            1 
  940000    1.4890484   -5.5431274    4519.7596            2 
  941000     1.478167   -5.4590384    4556.4232            3 
  942000    1.4605022   -5.5188501    4507.2731            2 
  943000    1.4689256   -5.5031945    4502.6364            3 
  944000    1.4665185   -5.4442981     4533.329            2 
  945000    1.4771442   -5.5402257    4509.8962            2 
  946000    1.5014715   -5.4684433     4524.614            3 
  947000    1.4701256    -5.440897    4497.1996            3 
  948000    1.4474028   -5.5060698    4496.8061            2 
  949000     1.471736   -5.4552355    4496.2555            1 
  950000    1.4664064   -5.5042984    4529.3288            2 
  951000    1.4734298   -5.4956095    4528.2451            2 
  952000    1.5054429   -5.4925895    4533.4679            2 
  953000    1.4564913    -5.513617    4503.1509            2 
  954000    1.4806951   -5.4724282    4536.2244            2 
  955000    1.4730972   -5.4341155    4521.1738            5 
  956000    1.4882891   -5.4411064    4527.7524            2 
  957000    1.4432605   -5.4811251    4518.6872            4 
  958000    1.4729342   -5.5028516    4504.2466            2 
  959000    1.5094678   -5.4322328    4536.1723            3 
  960000    1.5065563   -5.4659058    4504.8976            2 
  961000    1.4691293    -5.457303    4523.1556            1 
  962000    1.4822249   -5.5012684    4501.0771            3 
  963000     1.498157   -5.4699417    4511.1278            5 
  964000    1.4812983   -5.4868557    4500.0804            3 
  965000    1.4749949   -5.5230417    4510.1682            1 
  966000    1.4762326   -5.5061444    4506.7818            3 
  967000    1.4809154   -5.4507144    4539.6121            3 
  968000      1.42871   -5.4600264    4527.0303            1 
  969000    1.5158288    -5.459867    4524.4975            2 
  970000    1.4828942   -5.4763968    4497.4749            3 
  971000    1.4611089   -5.4915695    4515.3665            4 
  972000     1.469937   -5.5108252    4519.9708            2 
  973000    1.4662307   -5.4674499    4548.8125            3 
  974000    1.4940236   -5.4729605    4525.5404            2 
  975000    1.4498547   -5.5242833    4498.3104            3 
  976000    1.4610088   -5.4554561    4542.6035            1 
  977000    1.4713527   -5.4286989    4542.9776            1 
  978000    1.5032271   -5.5009183    4525.6609            6 
  979000    1.4899698   -5.4460207    4530.5606            1 
  980000    1.4729463   -5.4779867    4508.7312            2 
  981000    1.4718911   -5.5066795    4500.8112            1 
  982000    1.5055637   -5.5172359    4510.2987            5 
  983000    1.4707535   -5.4690693    4504.8346            2 
  984000    1.4771251   -5.5233783    4500.8041            3 
  985000    1.4652692   -5.4425659    4543.4051            2 
  986000     1.494441   -5.4617758    4530.7371            3 
  987000    1.4705989   -5.4915263    4520.3782            2 
  988000    1.4477913   -5.5196748    4522.8175            1 
  989000    1.5065751   -5.4795313    4529.1796            3 
  990000    1.4859207   -5.5395994     4523.451            3 
  991000    1.5134053   -5.4728746    4513.3433            3 
  992000    1.5312373   -5.4880107     4517.893            4 
  993000    1.4697187   -5.4574484    4516.2409            2 
  994000    1.4456294   -5.4955037    4512.6363            2 
  995000    1.4721257   -5.4983403    4501.3167            2 
  996000     1.475204   -5.4831352    4508.9639            1 
  997000    1.5070269   -5.4649859     4522.679            3 
  998000    1.5268638   -5.5037785    4530.6592            1 
  999000    1.4870213   -5.4597534    4531.9105            1 
 1000000    1.4881148   -5.4977907     4494.715            3 
 1001000    1.4867451   -5.4760362    4533.0796            4 
 1002000    1.4964124    -5.482166    4535.7234            1 
 1003000    1.4762442   -5.5109115    4515.7871            1 
 1004000    1.5133744   -5.4774368    4506.3123            1 
Loop time of 2030.56 on 48 procs for 1000000 steps with 4000 atoms

Performance: 85099.777 tau/day, 492.476 timesteps/s
99.4% CPU use with 48 MPI tasks x no OpenMP threads

MPI task timing breakdown:
Section |  min time  |  avg time  |  max time  |%varavg| %total
---------------------------------------------------------------
Pair    | 111.28     | 120.61     | 129.42     |  41.5 |  5.94
Neigh   | 17.779     | 18.001     | 18.436     |   2.9 |  0.89
Comm    | 110.85     | 118.48     | 127.91     |  33.3 |  5.84
Output  | 1.1688     | 1.1697     | 1.1853     |   0.2 |  0.06
Modify  | 1750.4     | 1757       | 1762.9     |   7.6 | 86.53
Other   |            | 15.33      |            |       |  0.75

Nlocal:        83.3333 ave          91 max          73 min
Histogram: 1 1 0 5 6 12 13 4 3 3
Nghost:        1516.02 ave        1532 max        1488 min
Histogram: 1 1 2 3 4 9 10 5 6 7
Neighs:        8431.56 ave        9337 max        7122 min
Histogram: 1 0 1 3 9 13 8 7 2 4
FullNghs:      16861.8 ave       18450 max       14491 min
Histogram: 1 1 0 3 11 9 9 6 4 4

Total # of neighbors = 809368
Ave neighs/atom = 202.34200
Neighbor list builds = 72311
Dangerous builds = 33

#clear
#
#next RN
#
#jump SELF
Total wall time: 0:33:51
