
units lj                  # Use reduced LJ style units
atom_style atomic         # Uncharged point particles
atom_modify map hash      # Needed for indexing of clusters etc
                          # Used to be able to find where atoms are in relation to each other.

# Define a lattice with which to populate the simulation cell. With units
# set to 'lj' the second argument to the lattice command is the reduced
# density rho* and the spacings are multiples of that required to acheive
# that density. Also define a simulation cell called 'box' in lattice units
# and fill it with atoms. Here we're creating a box which is ten lattice
# constants in each direction.
lattice fcc 1.0 spacing 1 1 1                 # All equal sizes - gives the right reduced density.
Lattice spacing in x,y,z = 1.5874011 1.5874011 1.5874011

region box block 0 10 0 10 0 10 units lattice # Defines a region, "box", in lattice units
create_box 1 box                              # Creates a simulation box as specified above,
Created orthogonal box = (0.0000000 0.0000000 0.0000000) to (15.874011 15.874011 15.874011)
  2 by 3 by 3 MPI processor grid
                                              # with one type of atom
create_atoms 1 box                            # Creates particles on lattice points
Created 4000 atoms
  using lattice units in orthogonal box = (0.0000000 0.0000000 0.0000000) to (15.874011 15.874011 15.874011)
  create_atoms CPU = 0.002 seconds


# Set the mass of the first (and only) atom type.
mass 1 1.0

# Lennard-Jones interactions between particles, 3.5 sigma cut-off. Apply
# long range tail corrections to energy and pressure and set all coefficients
# to unity since we work in reduced units here. Note that this doesn't shift
# the potential such that it goes to zero at the cutoff. That would require
# pair_modify('shift', 'yes').
pair_style lj/cut  3.5      # non-GPU version
pair_modify tail  yes
pair_coeff 1  1  1.0  1.0   # Intearaction between 1 and 1 set with epsilon = 1 and sigma = 1

write_data data.*
System init for write_data ...
Neighbor list info ...
  update every 1 steps, delay 10 steps, check yes
  max neighbors/atom: 2000, page size: 100000
  master list distance cutoff = 3.8
  ghost atom cutoff = 3.8
  binsize = 1.9, bins = 9 9 9
  1 neighbor lists, perpetual/occasional/extra = 1 0 0
  (1) pair lj/cut, perpetual
      attributes: half, newton on
      pair build: half/bin/atomonly/newton
      stencil: half/bin/3d
      bin: standard

#############################
#   M E L T   S Y S T E M   #
#############################

velocity all create 2.4 9580093 mom yes dist gaussian # Assign velocities
                                                    # Temperature 2.4, random number seed, zero linear momentum
						                                                        # Gaussian distribution

timestep 0.002   # simulation timestep
thermo 100       # output thermodynamic data every 100 steps

# Define a fix  in this case with index 1 applied to all
# particles in the simulation. This fix is for simulations
# in the anisotropic NPT ensemble. Note that we use the MTK
# correction.
fix 1 all npt temp 2.4 2.4 0.1 iso 5.68 5.68 0.5 mtk yes tchain 5 pchain 5 # Use NPT ensemble
                                                                         # Set temperature and pressure and damping
                                                                         # Numbers of thermostats in chain and in barostat
run 1000         # run for 10000 steps
Per MPI rank memory allocation (min/avg/max) = 3.680 | 3.683 | 3.691 Mbytes
Step Temp E_pair E_mol TotEng Press Volume 
       0          2.4   -8.3859253            0   -4.7868253   -2.2405722         4000 
     100     1.259173   -6.5129234            0   -4.6246361    5.4934905    4087.7331 
     200    1.4428249   -6.2687115            0   -4.1050152    6.0785122    4146.9382 
     300    1.5891892   -6.0266188            0   -3.6434309    5.7981853    4270.6634 
     400    1.6864341   -5.7131876            0   -3.1841689    5.8606885    4403.8234 
     500    1.7726955   -5.3925361            0   -2.7341577    6.0308441    4545.5702 
     600    1.8621927   -5.1101682            0   -2.3175776     5.891941    4707.0977 
     700    2.0370972   -4.9322753            0   -1.8773933    5.7586815    4836.4856 
     800     2.148017   -4.7251145            0   -1.5038945     5.695937    4973.8339 
     900    2.2849312   -4.5953229            0    -1.168783    5.5901698    5080.7682 
    1000    2.3668384   -4.4671643            0  -0.91779423    5.6325458    5159.4021 
Loop time of 0.563589 on 18 procs for 1000 steps with 4000 atoms

Performance: 306606.624 tau/day, 1774.344 timesteps/s
99.4% CPU use with 18 MPI tasks x no OpenMP threads

MPI task timing breakdown:
Section |  min time  |  avg time  |  max time  |%varavg| %total
---------------------------------------------------------------
Pair    | 0.32348    | 0.34473    | 0.36617    |   2.1 | 61.17
Neigh   | 0.062011   | 0.064786   | 0.067566   |   0.6 | 11.50
Comm    | 0.10468    | 0.12588    | 0.14648    |   3.5 | 22.33
Output  | 0.00023168 | 0.00024177 | 0.00034798 |   0.0 |  0.04
Modify  | 0.022024   | 0.025034   | 0.028466   |   1.2 |  4.44
Other   |            | 0.002921   |            |       |  0.52

Nlocal:        222.222 ave         234 max         215 min
Histogram: 2 2 2 5 2 2 0 2 0 1
Nghost:        2027.72 ave        2047 max        2008 min
Histogram: 2 2 2 2 0 1 3 3 1 2
Neighs:        19701.2 ave       20972 max       19058 min
Histogram: 4 2 5 1 2 0 1 0 2 1

Total # of neighbors = 354621
Ave neighs/atom = 88.655250
Neighbor list builds = 86
Dangerous builds = 13

# Equilibrate just above the melting temperature to avoid step fn in T

fix 1 all npt temp 1.25 1.25 0.1 iso 5.68 5.68 0.5 mtk yes tchain 5 pchain 5
run 1000
Per MPI rank memory allocation (min/avg/max) = 3.680 | 3.684 | 3.691 Mbytes
Step Temp E_pair E_mol TotEng Press Volume 
    1000    2.3668384   -4.4671643            0  -0.91779423    5.6325458    5159.4021 
    1100    1.9574321   -4.6876242            0   -1.7522101     5.742239    4978.1866 
    1200    1.7073045   -4.9488657            0   -2.3885491    5.6650364    4816.0505 
    1300    1.5538685   -5.2008727            0   -2.8706526    5.5388719    4686.2818 
    1400    1.4591125   -5.3988943            0   -3.2107727    5.7038561    4562.2733 
    1500    1.3734001   -5.5325252            0     -3.47294    5.7668218    4485.3709 
    1600    1.3312993   -5.6768418            0    -3.680392    5.7740875    4414.4243 
    1700    1.2798366    -5.761926            0    -3.842651    5.6016442    4388.0724 
    1800    1.2633462   -5.8402242            0   -3.9456787    5.5372513    4356.6355 
    1900    1.2453639    -5.852051            0   -3.9844721    5.6853926     4338.989 
    2000     1.269018    -5.839491            0   -3.9364398    5.7926253    4334.2464 
Loop time of 0.542515 on 18 procs for 1000 steps with 4000 atoms

Performance: 318516.591 tau/day, 1843.267 timesteps/s
99.7% CPU use with 18 MPI tasks x no OpenMP threads

MPI task timing breakdown:
Section |  min time  |  avg time  |  max time  |%varavg| %total
---------------------------------------------------------------
Pair    | 0.32631    | 0.3441     | 0.36338    |   1.6 | 63.43
Neigh   | 0.055038   | 0.056834   | 0.058466   |   0.4 | 10.48
Comm    | 0.095135   | 0.11194    | 0.12887    |   2.5 | 20.63
Output  | 0.00024821 | 0.00026354 | 0.00036056 |   0.0 |  0.05
Modify  | 0.022837   | 0.026041   | 0.031388   |   1.6 |  4.80
Other   |            | 0.003336   |            |       |  0.61

Nlocal:        222.222 ave         232 max         213 min
Histogram: 1 1 3 3 0 4 2 2 1 1
Nghost:        2247.39 ave        2263 max        2230 min
Histogram: 2 1 1 3 2 0 1 4 3 1
Neighs:        23426.6 ave       25065 max       21406 min
Histogram: 1 1 1 3 1 4 2 2 1 2

Total # of neighbors = 421679
Ave neighs/atom = 105.41975
Neighbor list builds = 75
Dangerous builds = 6


# Small amount of linear quench

fix 1 all npt temp 1.25 ${temp} 0.1 iso 5.68 5.68 0.5 mtk yes tchain 5 pchain 5
fix 1 all npt temp 1.25 1.87 0.1 iso 5.68 5.68 0.5 mtk yes tchain 5 pchain 5
run 2000
Per MPI rank memory allocation (min/avg/max) = 3.680 | 3.684 | 3.691 Mbytes
Step Temp E_pair E_mol TotEng Press Volume 
    2000     1.269018    -5.839491            0   -3.9364398    5.7926253    4334.2464 
    2100    1.2679284   -5.8413154            0   -3.9398982     5.670578    4346.0263 
    2200    1.2780088   -5.7776055            0   -3.8610715    5.7698406    4361.0364 
    2300    1.3070444   -5.7491973            0   -3.7891208    5.6634806    4386.3266 
    2400     1.324694   -5.7073781            0    -3.720834    5.5622241      4418.14 
    2500    1.3820402   -5.6898724            0   -3.6173304    5.5529871    4428.4639 
    2600    1.4282139   -5.6274142            0   -3.4856289    6.0902297    4414.4936 
    2700     1.418271   -5.5464045            0   -3.4195299    6.0201488    4456.0871 
    2800    1.4462999   -5.5113968            0   -3.3424894    5.6857322    4501.5523 
    2900    1.4796234   -5.4544525            0   -3.2355723    5.6852649    4532.9438 
    3000    1.5525144   -5.4634419            0   -3.1352525    5.6409286    4540.3019 
    3100    1.5499608   -5.3848564            0   -3.0604964    5.7317594    4565.6019 
    3200    1.5998638   -5.3364465            0   -2.9372508    5.8285843    4587.7026 
    3300    1.6146991   -5.2605421            0    -2.839099    5.8749122    4614.9559 
    3400    1.6540435   -5.2474315            0   -2.7669864    5.6757807    4646.7622 
    3500    1.6686453   -5.2029986            0   -2.7006564    5.7519972    4669.6383 
    3600    1.6980076   -5.1270518            0   -2.5806772    5.7240472    4705.3638 
    3700    1.7596643   -5.1092248            0   -2.4703882    5.8167253    4715.7214 
    3800      1.80059   -5.0604645            0   -2.3602547    5.9926167    4725.6973 
    3900      1.82732   -5.0286101            0   -2.2883153    5.7405275    4771.4224 
    4000    1.8651181   -4.9972239            0   -2.2002462    5.7791654    4783.4827 
Loop time of 1.08399 on 18 procs for 2000 steps with 4000 atoms

Performance: 318822.301 tau/day, 1845.036 timesteps/s
99.7% CPU use with 18 MPI tasks x no OpenMP threads

MPI task timing breakdown:
Section |  min time  |  avg time  |  max time  |%varavg| %total
---------------------------------------------------------------
Pair    | 0.6558     | 0.69147    | 0.73512    |   2.3 | 63.79
Neigh   | 0.11124    | 0.11394    | 0.11716    |   0.4 | 10.51
Comm    | 0.18309    | 0.22102    | 0.25354    |   3.5 | 20.39
Output  | 0.00043177 | 0.0004484  | 0.00057241 |   0.0 |  0.04
Modify  | 0.043512   | 0.050509   | 0.061774   |   2.5 |  4.66
Other   |            | 0.006596   |            |       |  0.61

Nlocal:        222.222 ave         232 max         214 min
Histogram: 2 2 1 3 0 3 4 2 0 1
Nghost:        2120.06 ave        2138 max        2099 min
Histogram: 1 2 2 2 1 1 3 2 1 3
Neighs:        21189.0 ave       22293 max       19653 min
Histogram: 2 0 0 2 1 5 2 1 4 1

Total # of neighbors = 381402
Ave neighs/atom = 95.350500
Neighbor list builds = 148
Dangerous builds = 2

#############################
# F R E E Z E  S Y S T E M  #
#############################

# Define solid atoms. This closely follows ten Wolde  Ruiz-Montero and Frenkel  Faraday Discuss  1996  104  93-110
# Compute components of the per-atom q6 vector
compute q6 all orientorder/atom degrees 1 6 components 6 nnn NULL cutoff 1.3 # compute the Q6 parameter.
                                                                             # Use all neighbours within 1.3 unit cell.

# get number of connections
compute coord_number all coord/atom orientorder q6 0.5

# An atom is solid if it has 8 or more connections (of a possible 14)
variable is_solid atom c_coord_number>=8
group solid dynamic all var is_solid    # Must be dynamic to update
dynamic group solid defined

# do clustering
compute cluster solid cluster/atom 1.3 # Create a cluster where all atoms within are solid and max 1.3 units from another member

# define chunks one chunk per cluster
compute clus_chunks solid chunk/atom c_cluster nchunk every compress yes  # Says which atoms are in which chunk

# count the size of each chunk
compute size_chunks solid property/chunk clus_chunks count


# Find the maximum entry in the vector of chunk sizes
variable max_n equal max(c_size_chunks)


# Thermo style which includes this variable
thermo_style custom step temp pe vol v_max_n

thermo ${N}  # Print the thermo information every 100 steps
thermo 100  

# Reset the npt fix at a lower temperature (below freezing)
fix 1  all npt temp  ${temp} ${temp}  0.1  iso  5.68  5.68  0.5  mtk yes tchain  5  pchain  5
fix 1  all npt temp  1.87 ${temp}  0.1  iso  5.68  5.68  0.5  mtk yes tchain  5  pchain  5
fix 1  all npt temp  1.87 1.87  0.1  iso  5.68  5.68  0.5  mtk yes tchain  5  pchain  5

dump dmp2 all dcd ${N} traj_${rand}.dcd
dump dmp2 all dcd 100 traj_${rand}.dcd
dump dmp2 all dcd 100 traj_462431.dcd


# fix rnuntil all halt ${N} v_max_n >= 3980 error soft message no   # Stop when solidified


run 100000 # 5000000  # Run for this many steps
Neighbor list info ...
  update every 1 steps, delay 10 steps, check yes
  max neighbors/atom: 2000, page size: 100000
  master list distance cutoff = 3.8
  ghost atom cutoff = 3.8
  binsize = 1.9, bins = 9 9 9
  4 neighbor lists, perpetual/occasional/extra = 1 3 0
  (1) pair lj/cut, perpetual
      attributes: half, newton on
      pair build: half/bin/atomonly/newton
      stencil: half/bin/3d
      bin: standard
  (2) compute orientorder/atom, occasional
      attributes: full, newton on
      pair build: full/bin/atomonly
      stencil: full/bin/3d
      bin: standard
  (3) compute coord/atom, occasional
      attributes: full, newton on
      pair build: full/bin/atomonly
      stencil: full/bin/3d
      bin: standard
  (4) compute cluster/atom, occasional
      attributes: full, newton on
      pair build: full/bin/atomonly
      stencil: full/bin/3d
      bin: standard
Per MPI rank memory allocation (min/avg/max) = 9.457 | 9.460 | 9.464 Mbytes
Step Temp PotEng Volume v_max_n 
    4000    1.8651181   -4.9972239    4783.4827            1 
    4100    1.8923027   -4.9792767    4816.1298            1 
    4200    1.8528421   -4.9323659    4840.7137            1 
    4300    1.8441769   -4.9493926    4804.1957            1 
    4400    1.8830594   -4.9452509    4804.1124            1 
    4500    1.8544818   -4.9263436    4854.6339            1 
    4600    1.8457612   -4.9368119    4841.5899            1 
    4700    1.8791653   -4.9123764    4797.9215            1 
    4800    1.8503512   -4.9579181     4828.073            1 
    4900    1.8452263   -4.9692902    4823.1446            1 
    5000    1.8828133    -4.958323    4776.9761            1 
    5100    1.8670596   -4.9393681    4841.1263            1 
    5200    1.8729089   -4.9508411    4826.5122            2 
    5300    1.8649812   -4.9519631    4804.1867            2 
    5400    1.8916787   -4.9193604    4827.2652            1 
    5500    1.8403791   -4.9277149    4848.9949            1 
    5600    1.9070587   -4.9466951    4836.8527            1 
    5700    1.8885468   -4.9135169    4851.3354            1 
    5800    1.8627348   -4.9307861     4817.237            1 
    5900    1.8355184   -4.9924839    4811.1195            1 
    6000    1.8815079   -4.9537899    4793.5613            1 
    6100    1.8635722   -4.9641299    4814.3141            1 
    6200    1.8821605   -4.9593804    4816.8282            1 
    6300    1.8810714   -4.9710864    4810.1623            1 
    6400    1.8059283    -4.929868    4797.1786            4 
    6500    1.8903213   -4.9821648    4820.6571            2 
    6600     1.833558   -4.9351227    4831.1018            1 
    6700    1.9081543   -4.9261912    4840.0222            1 
    6800    1.8674707    -4.948939    4834.1202            1 
    6900    1.8501623   -4.9805427    4794.6797            1 
    7000     1.842094   -4.9358178    4815.1539       -1e+20 
    7100    1.8625853   -4.9410511    4818.6739            1 
    7200    1.8918738   -4.9414649    4817.9605            1 
    7300    1.8744128   -4.9564529    4846.7643            1 
    7400    1.8339836   -4.9319916    4814.8379            1 
    7500     1.904823   -4.9443749    4826.8534            1 
    7600    1.8414298   -4.9389495    4829.4251            1 
    7700    1.9569493     -5.01073    4831.0041            2 
    7800    1.8544728   -4.9924046    4841.1395            1 
    7900    1.8805547   -4.9537761    4830.0957            1 
    8000    1.9458483   -4.9093604     4814.898            1 
    8100     1.845518   -4.9345533    4854.6971            1 
    8200    1.9010768   -4.9561382    4820.1251            2 
    8300    1.8331087   -4.9239401    4798.6738            2 
    8400    1.8767037   -4.9395203    4830.1186            1 
    8500     1.877962   -4.9393354    4845.5429            1 
    8600    1.8955067   -4.9953951    4762.6542            1 
    8700    1.8459026    -4.947813    4823.2393       -1e+20 
    8800    1.8328076   -4.9298499     4825.709            1 
    8900    1.9018259   -4.9287267    4827.1263            1 
    9000    1.8875492   -4.9662988    4833.5642            3 
    9100    1.8328194   -4.9323274    4834.1993            1 
    9200    1.8915487   -4.9187935    4829.6904            1 
    9300    1.8653078   -4.9555522    4819.9015            1 
    9400    1.8314899   -4.9591513    4798.5456            1 
    9500    1.8775061   -4.9353229    4816.4989            1 
    9600    1.8802545   -4.9387527    4836.4374            1 
    9700    1.8330761   -4.9440699    4832.1924       -1e+20 
    9800    1.8960304   -4.9788284    4783.4051            2 
    9900     1.852886   -4.9660931    4821.2656            1 
   10000    1.8897053   -5.0129857    4840.9727            1 
   10100    1.8830126    -4.986724    4803.9253            1 
   10200    1.8408608    -4.925477     4803.869            1 
   10300    1.8685491   -4.9413898    4837.7998            1 
   10400    1.8438218   -4.9596472    4823.8341            1 
   10500    1.8758289   -4.9513535    4815.7707            1 
   10600    1.8788096   -4.9407532    4831.9706            1 
   10700    1.8407732   -4.9323726    4858.7973       -1e+20 
   10800     1.902878   -4.9106269    4816.2555            1 
   10900    1.9020705   -4.9794362    4822.6033            2 
   11000    1.8379347   -4.9637332    4821.9531            2 
   11100    1.8730898   -4.9841591    4809.9281            3 
   11200    1.8919692   -4.9308616     4821.996            1 
   11300    1.8407067   -4.9461869    4818.7354            1 
   11400    1.8093597   -4.9756957    4814.9753       -1e+20 
   11500    1.8766509   -4.9502137    4816.6378            1 
   11600    1.9214294   -4.9571841    4803.5363            1 
   11700    1.8543289    -5.003247    4828.3152            1 
   11800    1.8793582   -5.0134681    4818.2816            1 
   11900    1.8837095   -4.9816011    4772.9762            5 
   12000    1.8848205   -4.9667961    4854.0633            1 
   12100    1.8605265    -4.943274    4835.2609       -1e+20 
   12200    1.8608036    -4.913089    4828.7953            2 
   12300    1.8839885   -4.9465797    4829.6459            1 
   12400    1.8186876   -4.9500429    4820.1489            1 
   12500    1.8581076   -4.8990269     4838.312            1 
   12600    1.8566204   -4.9415013    4834.2289            1 
   12700    1.8484897   -4.9821459    4790.6893            1 
   12800    1.8819689    -4.963277    4807.5964            1 
   12900    1.8638048   -4.9380323    4848.1365            2 
   13000    1.8629804   -4.9656068    4827.1625            1 
   13100    1.8885498   -4.9672537    4797.8685       -1e+20 
   13200    1.8483197   -4.9145326    4834.4986            1 
   13300    1.8706372   -4.9247548    4838.8694       -1e+20 
   13400    1.8470134   -4.9152886    4812.1365            1 
   13500     1.883922   -4.9472042    4828.9098            1 
   13600    1.8521243   -4.9125123    4832.5343            1 
   13700    1.8657979   -4.9652421    4812.7845            1 
   13800    1.8886606   -4.9571471    4809.4596            2 
   13900     1.819675   -4.9126447    4838.3267            1 
   14000    1.9026391   -4.9461806    4827.8696            1 
   14100    1.8477005   -4.9372514      4796.57            2 
   14200     1.856543   -4.9393475    4828.6884            1 
   14300    1.8546812   -4.9698651    4830.4498            1 
   14400     1.881541   -4.9459428    4798.0511            2 
   14500    1.8680677   -4.9169498    4841.3128            1 
   14600    1.8545216   -4.9500427    4817.8881            2 
   14700    1.8921921    -4.988925    4794.6609            2 
   14800    1.8583345   -4.9843456    4821.2924            1 
   14900    1.9152657   -5.0076757    4800.6843            1 
   15000    1.8424769   -4.9530021    4823.6392            1 
   15100     1.865954   -4.9645283    4801.9424            1 
   15200    1.8842954   -4.9947687    4780.3128            1 
   15300    1.8653922   -4.9684337    4837.6815            1 
   15400    1.8979896   -4.9596957    4821.4046            1 
   15500    1.8579458   -4.9788594    4811.6548            1 
   15600    1.9057911   -4.9742076    4825.3866            1 
   15700    1.8599008   -4.9359401    4819.5741            2 
   15800    1.8657611   -4.9570478    4807.1069            2 
   15900     1.872713   -4.9431488     4823.173            1 
   16000     1.848467   -4.9126931    4836.6647            1 
   16100    1.8698932   -4.9289999    4811.6226            1 
   16200    1.8650016   -4.9455481    4834.2908       -1e+20 
   16300     1.889878    -4.987975    4808.1333            1 
   16400    1.8934436   -4.9692364    4846.3078            1 
   16500    1.8633574   -4.9741739    4806.4134            1 
   16600    1.8933689   -4.9754635    4810.5452            1 
   16700    1.8482151   -4.9207721    4870.2887            2 
   16800    1.9303622    -4.916738    4835.1546            1 
   16900    1.8789922   -4.9263679    4815.8337            1 
   17000    1.8618823   -5.0021812    4825.0756            2 
   17100    1.8505881   -4.9666984    4806.3291            1 
   17200    1.8958733   -4.9418598    4799.6844            1 
   17300    1.8107396   -4.9407092    4836.4372            2 
   17400    1.9067124   -5.0268549    4807.8751            1 
   17500    1.8543147   -4.9420856    4812.6961            1 
   17600    1.9020401   -4.9482268    4828.5347            1 
   17700    1.8774613   -4.9501488    4855.9654            1 
   17800     1.854863   -4.9599646    4809.7201            1 
   17900     1.850157   -4.9513444    4802.1802            1 
   18000    1.8959165   -4.9503082    4854.0758            1 
   18100    1.8637354   -4.9328392    4816.3477            1 
   18200    1.8830693   -4.9623562    4829.3933            1 
   18300    1.8344448   -4.8957139    4848.8137            2 
   18400    1.9067363    -4.958552    4815.9975            1 
   18500    1.8749307   -4.9566907    4839.9124            1 
   18600    1.8614865   -4.9762071    4815.6285            1 
   18700    1.9060351    -4.953912    4811.8828            1 
   18800    1.8290898   -4.9561492    4825.4659            1 
   18900    1.8959812   -4.9720746    4802.8247            2 
   19000    1.8359451   -4.9584443     4808.838            1 
   19100    1.8654977   -4.9516535    4833.0732            3 
   19200     1.869175   -4.9746847    4828.0584            3 
   19300     1.903163   -5.0158513    4785.2731            1 
   19400     1.856277   -5.0221768    4804.7242            1 
   19500    1.8833855    -5.014745    4802.4138            3 
   19600    1.8610989   -4.9291862    4806.3652            1 
   19700     1.843186   -4.9541199    4826.1738            1 
   19800    1.8957506   -4.9131452    4812.8239            1 
   19900    1.8460364    -4.912594    4830.4907            1 
   20000    1.8495657   -5.0002228    4826.4517            1 
   20100    1.8749969   -4.9550881    4805.2361            1 
   20200    1.8416533   -4.9265982     4826.891            1 
   20300    1.8884482   -4.9376258    4830.1096            1 
   20400     1.850073   -4.9221523    4803.4668       -1e+20 
   20500    1.8550088    -4.961702    4859.2735            1 
   20600    1.9036721   -4.9146591    4824.7398            1 
   20700    1.8736219   -4.9451095    4817.2459            1 
   20800    1.8360148   -5.0108594    4824.9858            2 
   20900    1.8703659   -4.9575048    4807.9785            1 
   21000    1.9089966   -4.9861239    4812.4939       -1e+20 
   21100    1.8378743   -4.9586457     4873.002            1 
   21200    1.8871086   -4.9062983    4792.0302            2 
   21300    1.8547142   -4.9700519    4812.6268            1 
   21400    1.8369968   -4.9581585    4827.5987            2 
   21500    1.8958121   -4.9469421    4799.7488            2 
   21600    1.8342748   -4.9446266     4837.777            2 
   21700    1.9108228   -4.9615326     4827.366            1 
   21800    1.8806716   -4.9343139    4835.3312            1 
   21900    1.8635143   -4.9609535    4834.9249            1 
   22000    1.8670247   -4.9261263    4812.3933            1 
   22100    1.8698754   -4.9353126    4836.0918            1 
   22200    1.8448302   -4.9189038    4844.8202       -1e+20 
   22300    1.8880663   -4.9515069    4792.8098            3 
   22400    1.8670452   -4.9499391    4830.9263            1 
   22500    1.8731389    -4.966096    4838.8661            1 
   22600     1.876174   -4.9557117    4793.5399            1 
   22700    1.8949157   -5.0523213    4803.8038            4 
   22800    1.8879022   -4.9944784    4810.2595            1 
   22900    1.8506118   -4.9294266    4836.3799            1 
   23000     1.853824    -4.963235    4799.9538            1 
   23100      1.89142   -4.9731685    4816.0752            1 
   23200    1.8983249    -4.988554    4835.9472       -1e+20 
   23300    1.8663004   -4.9570409    4815.4063            1 
   23400    1.8732598   -4.9636537    4811.0744            2 
   23500    1.9007582   -4.9552277    4830.5359       -1e+20 
   23600    1.8535021   -4.9738381    4808.8376            1 
   23700    1.8545768   -4.9662144    4801.0946            2 
   23800    1.8722535   -4.9431367    4821.9821       -1e+20 
   23900    1.8779795   -4.9658406    4836.3399            1 
   24000    1.8133764    -4.933557    4804.7311            1 
   24100    1.8972002   -5.0030979    4769.8086            2 
   24200    1.8043193   -4.9567574    4807.8842            4 
   24300     1.871159   -4.9735083    4815.4562            1 
   24400    1.8874334   -4.9365395    4834.2377            1 
   24500    1.8843869   -4.9402587    4848.7832            1 
   24600    1.8615342   -4.9857657      4830.04            1 
   24700     1.898781   -4.9465438    4797.7603            2 
   24800    1.9001833   -4.9246889    4849.2029            1 
   24900    1.8539347   -4.9744561    4825.9738            1 
   25000     1.903568    -4.974152    4807.3503            1 
   25100    1.8516527   -4.9692547    4821.1733            2 
   25200    1.8458086   -4.9535173    4823.3403            1 
   25300    1.8568091   -4.9441486    4788.8637            1 
   25400    1.8574568   -4.9277232    4851.7946            1 
   25500    1.9006284   -4.9840238    4828.4403            2 
   25600     1.850942   -4.9327739    4818.9982            1 
   25700    1.8716015   -4.9460002     4810.071            1 
   25800    1.8212972   -4.9388137    4798.1474            1 
   25900    1.8661508   -4.9686476    4812.1125            1 
   26000    1.8596888   -4.9289955     4818.904            1 
   26100    1.8630806   -4.9691996    4796.7428            2 
   26200    1.8184819   -4.9757373    4809.3924            1 
   26300    1.8659041   -4.9434359    4820.6963       -1e+20 
   26400    1.9038798    -4.951752    4829.9525            1 
   26500    1.8578268   -4.9776185    4823.8294            1 
   26600    1.8450809   -4.9902221    4815.0655            1 
   26700    1.8797856   -4.9079683    4813.1402            2 
   26800    1.8194351   -4.8986012    4829.5324            3 
   26900    1.8424938    -4.979088    4819.6507            1 
   27000    1.9095978   -4.9932718     4803.671            1 
   27100     1.873072   -4.9428461    4846.2016            1 
   27200    1.8737237   -4.9144904    4857.2083            1 
   27300    1.8667648   -4.9267405    4799.0744            1 
   27400    1.8874595   -4.9738601    4832.2596            2 
   27500    1.8633903   -4.9659625    4842.3196            1 
   27600    1.8995443   -4.9223253    4805.9223            1 
   27700    1.8685516   -4.9466217    4848.7972            1 
   27800    1.8419002   -4.9520501     4797.881            1 
   27900    1.8283701   -4.9552996    4797.7663            3 
   28000    1.8807279   -4.9491997    4838.1426            2 
   28100    1.8508971   -4.9737527    4810.3729            1 
   28200    1.8679197   -4.9775497    4799.4765            2 
   28300    1.8955188   -4.9519387     4833.486            1 
   28400    1.8643387   -4.9526321    4838.2199            1 
   28500    1.8647689   -4.9921796    4783.8904            2 
   28600    1.8680146   -4.9822394    4814.9732            1 
   28700    1.8404992   -4.9068757    4836.3838            1 
   28800    1.9070153   -4.9291085    4832.1516            2 
   28900    1.8533268   -4.9401493    4823.3151            1 
   29000     1.859144    -4.941443    4836.4877            1 
   29100     1.862476   -4.9828326    4782.4362       -1e+20 
   29200    1.8640604   -4.9498828     4842.092            1 
   29300    1.8576138   -4.9739893    4844.7997            1 
   29400    1.9153968   -4.9342581    4799.1072            1 
   29500    1.8601197   -4.9729566    4847.8249            1 
   29600    1.8382321   -4.9698564    4796.3647            1 
   29700    1.8829961   -4.9680366    4811.8239            1 
   29800    1.9072067    -5.001351    4825.1574            2 
   29900    1.8316782   -4.9484106    4817.1491            1 
   30000    1.8900496   -4.9530969    4849.3494            1 
   30100    1.8877206   -4.9171053    4806.9358            1 
   30200    1.8638716   -4.9545168    4821.8427            1 
   30300    1.8387044   -4.9912224    4818.8741            3 
   30400    1.8788882   -4.9920004     4813.631            1 
   30500    1.8946412   -4.9724429    4814.7068            1 
   30600    1.8545697   -5.0151173    4811.8975            1 
   30700    1.8652279   -4.9876838    4797.9429            1 
   30800    1.8733339   -4.9347412    4806.6529            1 
   30900    1.8565441   -4.9590243    4823.2997            1 
   31000    1.8947495   -4.9331007    4814.9592            2 
   31100    1.8729049   -4.9467185    4847.7574            1 
   31200    1.8178588   -4.9406375     4828.841            1 
   31300    1.8891709   -4.9367703    4793.7721            1 
   31400    1.8673772   -4.9896598    4825.6928            1 
   31500    1.8953288   -4.9678578    4824.2732            1 
   31600     1.836885   -4.9636575    4803.3582            2 
   31700    1.8893131   -4.9645098    4813.5451            1 
   31800    1.8465883   -5.0224985    4800.6887            1 
   31900    1.8383981   -4.9802012    4810.6487            1 
   32000    1.8999821   -4.9674666    4807.2281            1 
   32100    1.8390672   -4.9387017    4809.8948            2 
   32200    1.9131785   -4.9545826    4818.1275            1 
   32300    1.8696694   -4.9751209    4831.1802            1 
   32400    1.8183637   -4.9831708    4808.9768            2 
   32500    1.9042229   -4.9779231    4811.6739            2 
   32600    1.8585801   -4.9425156    4831.2542            2 
   32700    1.8930554   -4.9577488    4848.1387       -1e+20 
   32800    1.8783204   -4.9446201    4819.4585            2 
   32900    1.8617177   -4.9934561    4794.5439            1 
   33000    1.8565724   -4.9788098    4816.2042            1 
   33100    1.8891059   -4.9392436    4829.1223            1 
   33200    1.8833957   -4.9861883     4819.918            3 
   33300    1.8125146   -4.9673931    4816.0138            2 
   33400    1.8990459   -4.9720185    4819.3691            1 
   33500    1.8703885   -4.9707973    4815.6713            1 
   33600    1.8346182   -5.0023774    4819.7604            1 
   33700    1.9093935   -4.9808615    4810.8143       -1e+20 
   33800    1.8287989   -4.9247309    4816.0943            2 
   33900    1.9037471   -4.9408687    4821.4837            1 
   34000    1.8829165    -4.995226     4788.716            1 
   34100    1.8477449   -4.9948954    4801.6417            2 
   34200    1.8935531   -4.9633794    4814.3506            1 
   34300    1.8440765   -4.9288701    4807.1973            1 
   34400    1.8521882   -4.9310385    4831.2416            1 
   34500    1.9122027   -4.9494171    4841.9589            1 
   34600    1.8452643   -4.9334397    4823.7098            1 
   34700    1.8822781   -4.9446491    4851.4853            1 
   34800    1.8985478   -4.9151336    4818.0691            1 
   34900    1.8721544   -4.9815084     4818.453            1 
   35000    1.8675333   -4.9348923    4827.7345            1 
   35100     1.900293   -4.9782397    4836.8361            1 
   35200    1.8453794   -4.9353722    4823.6758            1 
   35300    1.8746098   -4.9202217    4829.4506            2 
   35400    1.8654182   -4.9953756    4828.1324            1 
   35500    1.8575406   -4.9264746    4813.6276            2 
   35600    1.8947455   -4.9105071     4826.298       -1e+20 
   35700    1.8434555   -4.9328261    4839.6611            1 
   35800    1.8619513   -4.9320042    4812.9813            1 
   35900    1.8503692   -4.9607763     4794.411            1 
   36000    1.8390057   -4.9850736    4809.3962            1 
   36100    1.8505077   -4.9293992    4795.3461            1 
   36200    1.8399342   -4.9248036    4824.6304            2 
   36300    1.8641199   -4.9569252    4815.2609            1 
   36400    1.8774869    -4.952076    4808.3363            1 
   36500    1.8605624    -4.958043    4828.4245            1 
   36600    1.8472662    -4.978683    4789.0393            1 
   36700     1.899543   -4.9597524    4811.4143            2 
   36800    1.8614286   -4.9679051    4835.4757            1 
   36900    1.8605706    -4.941125    4805.8123            1 
   37000    1.8774685   -4.9461743    4809.9164            2 
   37100    1.8538746    -4.964929    4842.2418            1 
   37200    1.9251734   -4.9854038     4823.249            2 
   37300     1.855966   -4.9545023    4800.5203            3 
   37400     1.829373   -5.0130321    4801.4086            1 
   37500    1.8656512   -5.0049073    4783.5364            1 
   37600    1.8692028    -4.965404    4816.6708       -1e+20 
   37700    1.8556337   -4.9845614    4815.6285            2 
   37800    1.8641625   -4.9757676    4790.3589            1 
   37900    1.8931012   -5.0084527    4832.3147            1 
   38000    1.8009534   -4.9725545    4820.3412            3 
   38100    1.8927082   -4.9590149    4790.5283            1 
   38200    1.8674024   -4.9317518    4826.4782            1 
   38300    1.8895066   -4.9553516    4846.1823            1 
   38400    1.8592445   -4.9722253     4820.772            1 
   38500    1.8760522   -5.0099941     4795.757            2 
   38600    1.8515078   -4.9458568    4784.1933       -1e+20 
   38700    1.8656689   -4.9215923    4851.7613            1 
   38800    1.8877932   -5.0007183    4806.8753            1 
   38900    1.8551396    -4.957516    4805.6011       -1e+20 
   39000    1.8430805   -4.9225283    4833.3983            1 
   39100    1.8726149   -4.8940589    4822.4954            1 
   39200    1.9064992   -4.9284722    4815.6672            1 
   39300     1.829355   -4.9383649    4857.6691            2 
   39400    1.9231755   -4.9866261    4808.5674            3 
   39500    1.8636273   -4.9730214    4799.2867            1 
   39600    1.8422593   -4.9344622    4846.2299            1 
   39700    1.8936856   -4.9197653    4825.5295            3 
   39800    1.8541341   -4.9441923    4810.8657            1 
   39900    1.8864473   -4.9803898    4818.3114            1 
   40000    1.8547019   -4.9890427    4828.5138            2 
   40100    1.8774697   -4.9524893     4804.732            1 
   40200    1.8674685   -4.8999086    4854.0954            1 
   40300    1.8832094   -4.9536835    4820.0187            1 
   40400    1.8601494   -4.9837578    4825.2909            2 
   40500     1.903615   -4.9405852    4822.1974            1 
   40600     1.902493   -4.9156956    4849.0158            1 
   40700    1.8874869    -4.982557    4826.2277            1 
   40800    1.8416826   -4.9516087    4809.0192            1 
   40900    1.8487133   -4.9695388    4778.9969            1 
   41000    1.8969689   -4.9938681    4815.3165            1 
   41100    1.9063048   -4.9555009    4832.6923            1 
   41200    1.8614675   -4.9761227     4822.187            1 
   41300    1.8845735   -4.9839287    4786.1865            1 
   41400    1.8184032   -4.9498895    4814.7303            1 
   41500     1.886934   -4.9384098    4808.4835       -1e+20 
   41600    1.8343921   -4.9786466    4865.7479            1 
   41700    1.8806349   -4.9176647     4817.902       -1e+20 
   41800    1.8988941   -4.9527739    4801.5122            1 
   41900     1.815622    -4.966141    4815.0398            1 
   42000    1.8642391   -4.9580429    4805.8965            2 
   42100    1.8712621   -4.9763333    4807.8657            1 
   42200    1.8693142   -4.9561118    4818.4071            1 
   42300    1.8764021    -4.905513    4823.0909            4 
   42400    1.8600076   -4.9623944    4856.6788       -1e+20 
   42500    1.8877024   -4.8907583    4820.5554            1 
   42600    1.9083596   -4.9354344    4834.2405            2 
   42700    1.8363094   -4.9572525    4841.5886            1 
   42800    1.9093143   -4.9541634    4827.5874            1 
   42900    1.8521248   -4.9622348    4829.1365            2 
   43000     1.900455   -4.9693676    4822.5339            1 
   43100    1.8959232   -4.9229458     4841.119            2 
   43200    1.8484096   -4.9330347    4815.8958            1 
   43300    1.8825588   -5.0110256    4831.1083            1 
   43400    1.8875437   -4.9494697     4839.859            1 
   43500    1.8668585   -4.9160624    4811.1146            1 
   43600    1.8793151   -4.9669171    4810.2188            1 
   43700    1.8346154   -4.9899683     4797.815            2 
   43800    1.8750365   -5.0154166      4808.16            1 
   43900     1.854932   -4.9424188    4811.1076            1 
   44000    1.9027151   -4.9111057     4830.868            2 
   44100    1.8607015   -4.9625782    4838.8762            1 
   44200    1.8774165   -5.0033677    4823.7018            2 
   44300    1.8781624   -4.9961055    4776.0231            2 
   44400    1.8552089   -4.9616515    4793.2822            1 
   44500    1.8550065   -4.9613597    4853.0013            1 
   44600    1.9160053   -4.9276758    4837.2318            2 
   44700     1.876382   -4.9404857     4831.466            1 
   44800     1.861976   -4.9881884    4803.4264       -1e+20 
   44900    1.8568376   -4.9357196    4811.8859            1 
   45000    1.8895681   -4.9604982    4834.5285            1 
   45100    1.8557811   -4.9719507    4826.4697            1 
   45200    1.9150427   -4.9749966    4821.7661            1 
   45300    1.8491664    -4.966365    4829.6767            2 
   45400    1.8889714     -5.00149    4804.5217            2 
   45500    1.8936142   -4.9236798    4832.5774            1 
   45600    1.8495984   -4.9445679    4843.7888       -1e+20 
   45700     1.848859   -4.9805374    4781.7216            1 
   45800    1.8884676   -4.9658445    4805.6374            2 
   45900    1.8785578   -4.9768966    4827.8782            2 
   46000    1.8230948   -5.0098149     4799.798            1 
   46100    1.8602016   -4.9877146     4789.741            1 
   46200    1.8728765   -4.9815594    4816.8928            1 
   46300    1.8946889   -4.9671422    4837.0106            1 
   46400    1.8847766   -4.9588931    4825.9864            2 
   46500    1.8603385   -4.9525298    4795.9331            1 
   46600    1.8691065   -4.9213825    4835.5012            1 
   46700    1.8659171   -4.9132804     4818.595            1 
   46800    1.8623521   -4.9708136    4807.0702            1 
   46900    1.8409658   -4.9782746    4806.3012            1 
   47000    1.8847423   -4.9517483    4814.5711            1 
   47100     1.918781    -4.965252     4839.963            1 
   47200    1.8534192   -4.9394575    4854.1561            1 
   47300    1.8849899   -4.9137575    4827.8001            1 
   47400    1.8959907   -4.9641612    4818.5599            1 
   47500    1.8535576   -4.9888518    4839.6913            1 
   47600    1.9099272     -4.94882    4833.5546            1 
   47700    1.9005877   -4.9731068    4817.4067            1 
   47800     1.858485   -4.9796528     4832.484            3 
   47900    1.8601462   -4.9506666    4825.4393            1 
   48000    1.8927119   -4.9505471    4819.7566            2 
   48100    1.8702615   -4.9362246    4840.2634            1 
   48200    1.8839646   -4.9726375     4835.493            1 
   48300    1.8666964   -4.9890008    4784.4654            1 
   48400    1.8907325   -4.9978242    4820.1438            1 
   48500    1.8516482   -4.9318927    4841.1136            2 
   48600    1.9040306   -4.8966539    4832.0881            1 
   48700    1.8896848   -4.9411961    4850.4713            1 
   48800    1.8698439   -4.9767708     4821.023       -1e+20 
   48900    1.8812111   -4.9726892    4797.9989            1 
   49000    1.8433745   -5.0038586    4819.7651            1 
   49100    1.8787748   -4.9752396    4792.2645            1 
   49200    1.8648123   -4.9676964    4810.2124            1 
   49300    1.8887598   -4.9779344    4836.0549            1 
   49400    1.8729415   -4.9897838    4813.9112            1 
   49500    1.8450819   -4.9788205    4794.1113            3 
   49600    1.8938614   -4.9555892    4819.2849            1 
   49700    1.8448513   -4.9726604    4843.2732       -1e+20 
   49800    1.9172794   -4.9295717    4812.6468            1 
   49900    1.9027068   -4.9517885    4818.4892            2 
   50000    1.8386823   -4.9903947     4836.473            1 
   50100    1.8969964   -4.9797546     4800.268            2 
   50200     1.846939   -4.9571763    4821.8343            3 
   50300     1.891181   -4.9696174    4841.7187            1 
   50400    1.8548946   -4.9671527    4798.4493            1 
   50500    1.8510494   -4.9725493     4807.978            2 
   50600    1.8949796    -4.958287    4816.1946            1 
   50700    1.8645055   -4.9616862    4816.6397            1 
   50800    1.8373435   -5.0131709    4810.8963            1 
   50900    1.9116667   -4.9963631    4777.7617            2 
   51000    1.8629301   -4.9822017    4838.6446            1 
   51100    1.8681196   -4.9921654    4839.2445            1 
   51200    1.9236162   -4.9254105    4806.9426            1 
   51300    1.8644202   -4.9365346    4842.0172            1 
   51400    1.8526682     -4.91816    4829.8327            1 
   51500    1.8957369   -4.9879625    4802.8823            1 
   51600    1.8671834   -4.9732623    4823.9626       -1e+20 
   51700    1.8479465   -4.9900618    4793.4014            1 
   51800    1.9019476   -4.9766056    4822.6207            1 
   51900     1.837976   -4.9591835    4830.4615            1 
   52000     1.923733   -4.9668818    4795.2442            1 
   52100    1.8608825   -4.9912624    4810.8671            1 
   52200    1.8794486   -4.9593185     4827.459            1 
   52300    1.8612131   -4.9552948    4802.0224            1 
   52400    1.8583017   -4.9541363    4806.8169            2 
   52500    1.8956178   -4.9483183    4837.5293            2 
   52600    1.9113655   -4.9629041    4839.8679            2 
   52700    1.8855615   -4.9907987    4809.4489            1 
   52800    1.8581081   -4.9551065    4834.5691            3 
   52900    1.8978943   -4.9439472    4837.9804            2 
   53000    1.8614243   -4.9634789    4812.2522            1 
   53100    1.8798638   -5.0025998    4791.7326            1 
   53200    1.8684318    -4.992549    4804.5359            1 
   53300    1.8545011   -4.9327801     4835.555            1 
   53400    1.9411679   -4.9490278     4831.092            2 
   53500    1.8636248   -4.9639462    4849.3844            1 
   53600    1.9045093   -4.9476972    4813.1427            1 
   53700    1.8629055   -4.9717787    4797.2077            1 
   53800    1.8558648   -5.0494598    4822.1828            1 
   53900    1.8867242   -4.9700369    4808.7705            1 
   54000    1.8890811   -4.9513401    4820.8213            1 
   54100     1.845287   -4.9804546    4825.0461            2 
   54200    1.8842075   -4.9658087    4793.5254            2 
   54300     1.894117   -4.9455838    4811.1606            1 
   54400    1.8392025   -4.9869574    4814.8051            1 
   54500    1.8865843    -4.974483    4806.6445            3 
   54600    1.8584701   -4.9389414    4818.5021            2 
   54700    1.8386505    -4.965187    4828.1551            1 
   54800    1.9008501   -4.9366576    4791.9931            2 
   54900    1.8680782   -4.9424336     4851.684            1 
   55000    1.8738469    -4.956804    4842.0809            2 
   55100    1.8709577   -4.9463468     4799.077            1 
   55200    1.8788929   -5.0301161    4803.5598            1 
   55300     1.822456   -5.0128563    4818.8785            3 
   55400     1.893613   -4.9714686    4806.7036            1 
   55500    1.8436381   -4.9449961    4802.0287            1 
   55600    1.8433327    -4.970563    4825.4533            1 
   55700    1.8522924   -4.9148714    4838.2037            1 
   55800    1.9217863   -4.8925923    4821.3078            2 
   55900    1.8645504   -4.9578271    4828.2589            1 
   56000    1.8763502   -4.9682647    4843.2743            1 
   56100    1.8878323   -4.9230487    4837.4295            1 
   56200    1.8877917   -4.9537763      4817.39            1 
   56300    1.8512521   -4.9939466     4828.637            1 
   56400    1.8613825   -4.9752425    4791.1111            1 
   56500    1.9273698   -4.9952346    4788.0013            2 
   56600      1.84814   -5.0126292     4846.277            5 
   56700     1.877476   -4.9756397    4812.2649            1 
   56800     1.875095   -4.9695925     4792.285            1 
   56900    1.8810806   -4.9490878    4848.3442            3 
   57000    1.8878205   -4.9800765    4830.0836            1 
   57100    1.8707273   -4.9607136    4807.3921            1 
   57200    1.8593307   -4.9549334    4813.3147            1 
   57300    1.8683405   -5.0036396    4802.6471            1 
   57400    1.8503015   -4.9834025    4796.5433            2 
   57500    1.8696001   -4.9502271    4817.1396            1 
   57600    1.8902663   -4.8698588    4841.0519            1 
   57700    1.8783012   -4.9264143    4845.1074            1 
   57800    1.8050005   -4.9196612    4846.0474            1 
   57900    1.8979409   -4.9343032    4816.5291            3 
   58000    1.8503051   -4.9080468    4820.8624            1 
   58100    1.8256939    -4.977517    4816.1763            3 
   58200    1.8740963   -4.9664386    4824.8182            1 
   58300    1.8754073   -4.9422649    4835.5354            1 
   58400    1.8866131   -4.9027339    4838.3544            1 
   58500    1.8644757   -4.9323556    4849.2025            1 
   58600    1.8590716   -4.9249469    4851.4688       -1e+20 
   58700    1.9075162   -4.9398594    4789.9666            1 
   58800    1.7986946   -4.9241437    4817.2666            1 
   58900    1.8694057   -4.9469343    4804.0782            1 
   59000    1.8536469   -4.9870012    4807.1473            1 
   59100    1.8584518   -4.9215001     4838.253            1 
   59200    1.8600984   -4.9219167    4798.9923            1 
   59300    1.8541643   -4.9452412    4817.0204            1 
   59400    1.8694822   -4.9812991    4841.4756            2 
   59500    1.9068497   -4.9859928    4805.1349            2 
   59600    1.8521558   -4.9697662    4834.8006            1 
   59700    1.9131899   -4.9664496    4824.2348            1 
   59800    1.8511152   -4.9229379    4820.5988            1 
   59900    1.9017947   -4.9456066    4857.2158            1 
   60000    1.8847093   -5.0011551    4807.5331            1 
   60100    1.8358471   -4.9724208    4827.0706            1 
   60200     1.866672   -4.9232551    4824.9639            1 
   60300    1.8437199   -4.8962936     4826.789            1 
   60400    1.8621906   -4.9478454    4818.6546            1 
   60500    1.8513291   -4.9428261    4785.3978            1 
   60600     1.810501    -4.993834    4805.0501            1 
   60700    1.8493306   -4.9581586    4832.5202            1 
   60800    1.9095047    -4.936143    4823.1132            1 
   60900    1.8477973   -4.9436219    4839.2269            1 
   61000    1.8443897   -4.9587639    4815.4282            2 
   61100    1.8661485   -4.9468262    4808.1504       -1e+20 
   61200    1.8559652   -4.9560901    4837.3038            1 
   61300    1.8875757   -4.9340578    4820.5992            1 
   61400    1.8657534   -4.9306086    4804.5583            1 
   61500    1.8764487   -4.9968444    4848.3754            1 
   61600    1.8739094   -4.9378185    4830.6964            1 
   61700    1.8650607   -4.9601147    4803.0599            1 
   61800    1.8919157     -4.89951    4824.7216            1 
   61900    1.8289096   -4.8752949    4847.6945            2 
   62000    1.8684831   -4.9803129    4787.3901            1 
   62100    1.8467947   -4.9589241    4832.4011            1 
   62200     1.866505   -4.9336534    4819.4141            1 
   62300     1.874055   -5.0071657    4811.8446            1 
   62400    1.8453531   -4.9932645    4825.6879            1 
   62500    1.8765254    -4.920476    4815.7223            1 
   62600    1.8685446   -4.9461434     4824.079            1 
   62700    1.8207642   -4.8972484    4842.6564            1 
   62800    1.9104634     -4.92505    4840.1979            2 
   62900    1.8666288   -4.9262044    4826.3846            1 
   63000     1.907164   -4.9616297    4850.2967            1 
   63100    1.8500164   -4.9701585     4843.253            1 
   63200    1.8793389   -4.9296575    4801.9934            1 
   63300    1.8679031   -4.9363927    4825.2464            2 
   63400     1.928362   -4.9642511    4853.2277            1 
   63500    1.8689524   -4.9682768    4826.4629            1 
   63600    1.8817987   -4.9474126    4829.5705            1 
   63700    1.9182786   -4.9372465    4855.3344            1 
   63800    1.8425882   -4.9252039    4833.1842            1 
   63900     1.859567   -4.8839239     4819.868       -1e+20 
   64000     1.839297   -4.9632149    4828.9632            2 
   64100    1.8387149   -4.9585113    4796.5641            1 
   64200    1.8642098   -5.0051356     4775.455            2 
   64300    1.8576213   -4.9506809    4810.8443            1 
   64400    1.8627465   -4.9360992    4837.6103            1 
   64500    1.9112595    -4.943906    4824.4068            1 
   64600    1.8700163   -4.9704786    4807.0424            1 
   64700    1.8913072   -4.9604332    4817.7137            1 
   64800    1.8732635   -4.9475243    4850.9636            2 
   64900    1.8758021   -4.9828911    4772.5664            1 
   65000    1.8520187   -5.0019768    4813.3642            1 
   65100      1.89697   -5.0049904    4814.4855            1 
   65200    1.8638084   -5.0107904    4797.0056            1 
   65300    1.8819037   -4.9488522    4827.5174            1 
   65400    1.9043578   -4.9593726    4822.0252            2 
   65500    1.8585814   -4.9981005    4815.4151            1 
   65600    1.8244834   -4.9478044    4814.0512            1 
   65700    1.8929365   -4.9098489    4804.7224            1 
   65800    1.8528294    -4.938602     4836.858            1 
   65900    1.8395603   -4.9793452    4815.0239            1 
   66000    1.8814668   -4.9468648    4804.8745            3 
   66100    1.8651218   -4.9694866    4827.8209            1 
   66200    1.8805578   -4.9241124    4829.0171            1 
   66300    1.8183016   -4.9577232    4821.7203            1 
   66400    1.8690953   -4.9872439    4796.4183            2 
   66500    1.8939382   -4.9559473    4825.8604            1 
   66600    1.8581197   -4.9591198    4814.4525            1 
   66700    1.9036406   -4.9716738    4809.9524            1 
   66800    1.7973601   -4.9647351    4841.3194            3 
   66900    1.8736703   -4.9550416    4825.9638            1 
   67000    1.8845158   -4.9455529    4797.6142            1 
   67100    1.8425033   -4.9988522    4802.6631            2 
   67200     1.872603   -4.9744259    4811.3014            1 
   67300    1.8790905   -4.9392285     4809.371            1 
   67400    1.8357697   -4.9685681    4830.9694            1 
   67500    1.8846502   -4.9171104    4807.5148       -1e+20 
   67600    1.8958127   -4.9246713    4836.8619            1 
   67700    1.8271456   -4.9246014    4844.5581            1 
   67800    1.8836133   -4.9445856    4829.1317            1 
   67900    1.8814801   -4.9229261    4837.8116       -1e+20 
   68000    1.8726826   -4.9186118    4858.3864            1 
   68100    1.8851399   -4.9534855    4794.7244            1 
   68200    1.8521742   -4.9891961    4799.2643            2 
   68300    1.8319556   -4.9229848    4816.0698            1 
   68400     1.885608   -4.9440125    4821.7341            1 
   68500    1.8545504   -4.9402782    4834.9087            1 
   68600    1.8581989   -4.8958919    4826.9371            1 
   68700     1.905588   -4.9013317     4840.092            1 
   68800    1.8587656   -4.9522961    4831.8254            3 
   68900    1.8839805   -4.9726083    4811.2202            1 
   69000    1.8323045   -4.9535566    4797.0108            1 
   69100    1.8427984    -4.938686    4856.7586            1 
   69200    1.8643589   -4.9245608    4828.1868            1 
   69300    1.9218812   -4.9418276    4790.1739            1 
   69400    1.8446601    -4.971954    4868.9037            1 
   69500    1.8758915   -4.9471007    4805.4767            1 
   69600    1.8813265    -4.931806    4820.4134            1 
   69700    1.8796842   -4.9478912    4825.6412            1 
   69800    1.8281757   -4.9353085    4819.1947            1 
   69900    1.8672948   -4.9039458    4844.2697            1 
   70000    1.8885172   -4.9313768    4835.7725            2 
   70100    1.8439324   -4.9350164    4832.5146            1 
   70200    1.8502669   -4.9885403    4794.3919            1 
   70300    1.8697334   -4.9826097    4795.5372            1 
   70400     1.856489   -4.9475042    4831.3018       -1e+20 
   70500    1.8188836   -4.9077036     4837.166            2 
   70600    1.9233181   -4.9096069    4819.4739            1 
   70700    1.8594798   -4.9515849    4858.4766            2 
   70800     1.846252   -4.9993913    4825.1269            2 
   70900    1.9006223   -4.9800143    4780.7806            1 
   71000    1.8309258   -4.9931296    4807.6347            1 
   71100    1.8896676   -4.9907239    4816.4234            2 
   71200     1.847973   -4.9273798    4805.6934            1 
   71300    1.9019041   -4.9783987    4856.6055            1 
   71400    1.8319598   -4.9646381     4815.766            1 
   71500     1.860829   -4.9622988    4804.4542            1 
   71600    1.9004584   -4.9925337    4810.2889            1 
   71700    1.8303047   -4.9955725    4794.7738            1 
   71800    1.8650265   -4.9497378    4818.4157            1 
   71900    1.8734468   -4.9411999    4810.9182            1 
   72000    1.8414718    -4.952523    4804.2889            1 
   72100    1.8879969   -4.9662612    4846.5503       -1e+20 
   72200    1.9037049   -4.9080932    4820.9652            3 
   72300    1.8485109   -4.9141916      4837.43            2 
   72400    1.8572495    -4.937064    4838.5247            2 
   72500    1.8533257    -4.943877    4821.4774            1 
   72600    1.8451806   -4.9338788    4834.1113            1 
   72700    1.9067548   -4.9852738    4801.0515            1 
   72800    1.8533355   -4.9806191    4814.3481            1 
   72900    1.8885988   -4.9664202    4847.5862            3 
   73000    1.8978275    -4.924709    4810.7279            1 
   73100    1.8649076   -4.9707381    4838.5428            1 
   73200    1.8924908   -4.9411977    4839.0849            2 
   73300    1.8767157   -4.9274409    4826.7435            2 
   73400    1.9064036    -4.993734     4830.906       -1e+20 
   73500    1.8673412   -4.9941177    4835.4409            1 
   73600     1.878564   -4.9399305    4804.7094            1 
   73700    1.8825979   -4.8969896    4868.5101            1 
   73800    1.9071964   -4.9676103    4819.8035            2 
   73900    1.8325884   -4.9513311    4818.4461       -1e+20 
   74000    1.8824663    -4.931835    4827.9512       -1e+20 
   74100    1.8855413   -4.9579108    4828.4857            1 
   74200    1.8456348   -4.9693934    4810.9922            1 
   74300    1.8676805   -4.9937302    4807.7571            1 
   74400    1.8859623   -4.9789241    4828.9192            1 
   74500    1.8285294   -4.9648846    4797.8312            1 
   74600    1.8391591   -4.9486072    4814.1307            1 
   74700    1.8881241   -4.9487105     4806.587            1 
   74800    1.8751404   -5.0191409    4805.6716            2 
   74900    1.8708622    -4.997956    4838.5108            1 
   75000    1.8701193   -4.9131625    4828.7809            1 
   75100    1.8758116      -4.9773    4792.3207            1 
   75200    1.8686884   -5.0096148    4798.1638            1 
   75300    1.8658322   -4.9265891    4831.1945       -1e+20 
   75400    1.9146654   -4.9425692    4812.6682            1 
   75500    1.8463345   -4.9729169    4874.2724            1 
   75600    1.8796906   -4.8898037    4794.4551            1 
   75700    1.8772068   -4.9339681    4837.2103            1 
   75800    1.8428998   -4.9258952    4829.2369            1 
   75900    1.9075596   -4.9516405    4821.6427            1 
   76000    1.8601791   -4.9386415    4836.6325            1 
   76100    1.9047252   -5.0034565    4807.7909            2 
   76200    1.8508724   -4.9822641     4811.145            1 
   76300    1.8701769   -4.9484608     4822.049            1 
   76400    1.8580033   -4.9832858    4795.8744            2 
   76500    1.8473524   -4.9548056    4797.8287            1 
   76600    1.8496432   -4.9783122    4842.2401       -1e+20 
   76700    1.9528019   -4.9879404    4817.3347       -1e+20 
   76800    1.8728738   -4.9858904    4821.3244            1 
   76900    1.8535948   -4.9949915    4837.9384            1 
   77000    1.8918002   -4.9685159    4802.6204            1 
   77100    1.8819909   -4.8924459    4816.1397            1 
   77200     1.819183   -4.9348926    4837.0903            1 
   77300    1.9284199   -5.0110745    4800.3971            1 
   77400    1.8656161   -4.9817259    4819.3111            1 
   77500    1.8481106   -4.9098003    4828.2882            1 
   77600    1.8988567   -4.9005175     4818.674       -1e+20 
   77700    1.8602354   -4.9574866    4809.1151            1 
   77800    1.8469442   -5.0068623    4791.0446            1 
   77900    1.8650511   -5.0045468    4802.4228            1 
   78000    1.8747079   -4.9543571      4814.92            2 
   78100    1.9107685   -4.9898315    4834.1627            1 
   78200    1.8760046   -4.9367459    4865.2397            1 
   78300    1.8873204   -4.9443531    4786.9578       -1e+20 
   78400    1.8676558   -4.9896407    4789.1522            1 
   78500    1.8325193   -4.9721319    4813.8728            2 
   78600    1.9110904    -4.970908    4800.2097            2 
   78700    1.8601369   -4.9556269    4804.3579            1 
   78800    1.8409533   -4.9670444    4819.6803       -1e+20 
   78900    1.8944405   -4.9470879    4827.4481            3 
   79000    1.8742275   -4.9434469    4800.3686       -1e+20 
   79100    1.8749097    -5.039269    4821.6408       -1e+20 
   79200    1.8718626   -4.9842897    4815.3704            1 
   79300    1.8855504   -4.9220413    4814.0085            1 
   79400    1.8497633   -4.9386899    4832.7201            1 
   79500     1.873587   -4.9718947    4797.6481            3 
   79600     1.846378   -4.9475317    4815.6468            2 
   79700    1.8773226   -4.9594352    4841.0969            1 
   79800    1.8981729   -4.9439633    4816.1142            1 
   79900    1.8627794   -4.9172279    4857.3571            1 
   80000    1.8550538   -4.8980781    4825.6652            1 
   80100    1.8714506   -4.9331642    4805.0838            1 
   80200    1.8319519   -4.9901834    4832.1766            3 
   80300    1.8857219   -4.9672438    4820.4177            1 
   80400    1.8820772   -4.9025721    4824.9786            1 
   80500      1.83738   -4.9454516      4833.21            2 
   80600    1.8697916   -4.9525779    4807.7846            1 
   80700    1.8535192    -5.024571    4797.8922            1 
   80800    1.8819499   -4.9743169    4791.7698            2 
   80900    1.8913202   -4.9432412    4828.6716            1 
   81000    1.8640634   -4.9158333    4852.8999            1 
   81100     1.857429   -4.9481662    4797.4445            1 
   81200    1.8562288   -4.9422505    4812.0276            1 
   81300    1.8926795   -4.9673945    4841.1506            3 
   81400    1.8454645    -4.969387    4809.4051            2 
   81500    1.8699813   -4.9381828    4813.6228            3 
   81600    1.8457155    -4.933134    4832.2429            1 
   81700    1.8725461   -4.9403227    4853.8751            1 
   81800    1.8932436   -4.9512019    4833.8325            1 
   81900    1.8646598   -4.9646201    4826.3197            1 
   82000    1.8988749   -4.9672026     4824.951            1 
   82100    1.8293303   -4.9692545    4820.2766            1 
   82200    1.8774478   -4.9638844    4804.2095            1 
   82300    1.8920703   -4.9854014    4820.3048            1 
   82400    1.8508456   -4.9606437    4831.1374            1 
   82500    1.9132498   -4.9435394    4825.3401            1 
   82600    1.8660832   -4.9558868    4828.8145            1 
   82700    1.8575251   -5.0243511    4819.3661            1 
   82800    1.9081725   -4.9525131    4813.3631            2 
   82900    1.8820429   -4.9559697    4799.7439            2 
   83000    1.8522082   -4.9816975    4834.6754            1 
   83100    1.8854448   -4.9884779    4814.8306            1 
   83200     1.854763   -4.9429486    4795.4507            1 
   83300    1.8508997   -4.9178558    4851.8341            1 
   83400    1.8634293   -4.9256591    4824.1564            1 
   83500    1.8844992   -4.9477639     4813.065            2 
   83600    1.8592692   -4.9819725     4813.655            1 
   83700    1.8564177    -4.955701    4823.0775            2 
   83800    1.8705498   -4.9292207    4833.1259       -1e+20 
   83900    1.8502042   -4.9129293    4836.2345            1 
   84000    1.9224922   -4.9270922    4828.4145            1 
   84100    1.8629491   -4.9553489    4850.5821            1 
   84200    1.8567806   -4.9689077    4813.0916            1 
   84300    1.8944432   -4.9426313    4794.3074            1 
   84400    1.8683427   -4.9563132    4843.8451            1 
   84500    1.8353228   -4.9609604    4812.8279       -1e+20 
   84600    1.8768954   -4.9438273    4810.0458            1 
   84700     1.852967   -4.9644298    4847.1112            3 
   84800    1.9123023   -4.9483875    4839.7034            1 
   84900    1.8492482   -4.9430643    4806.6336            1 
   85000     1.868176   -5.0351905    4805.3047            2 
   85100    1.8887197    -4.997136    4804.6132            1 
   85200    1.8427865   -4.9261887    4820.2607            1 
   85300    1.8980137   -4.9524751    4853.6246            1 
   85400    1.8761165   -4.9582441    4815.9927       -1e+20 
   85500      1.86225   -4.9420257    4829.6881            1 
   85600    1.8885565   -4.9670533    4848.4559            1 
   85700    1.8877338    -4.927979    4857.2988            1 
   85800    1.8636819   -4.9262504    4806.9012            1 
   85900    1.8788545   -4.9903042    4812.5407            1 
   86000     1.839767   -4.9857369    4793.1279       -1e+20 
   86100    1.8573564   -4.9707843    4802.2152            1 
   86200    1.8525786   -4.9451924    4834.8105            1 
   86300    1.9014519   -4.9143569    4824.0552            1 
   86400     1.844899   -4.9298592    4800.1329            1 
   86500    1.8185713   -4.9528567    4812.6649            2 
   86600    1.9143409   -4.9961951    4787.5387            1 
   86700    1.8823273   -4.9842238    4844.5106            1 
   86800     1.890054   -4.9499329    4854.5519            1 
   86900    1.8661214   -4.9126184     4790.377            1 
   87000    1.7936708   -4.9098611    4824.7423            1 
   87100    1.8753781   -4.9310496    4832.6827            3 
   87200    1.8802947   -4.9371337    4835.6726            3 
   87300    1.8564117   -4.9442277    4841.8265            1 
   87400    1.9011729   -4.9973978    4804.5982            1 
   87500    1.8474405   -4.9962629    4819.7971            2 
   87600    1.8930121    -4.973267    4829.2537            1 
   87700    1.8707728   -4.9805639    4809.9999            2 
   87800    1.8441122   -4.9660637    4805.2238            1 
   87900    1.9040899    -4.967576    4820.5417            1 
   88000    1.8474217   -4.9640894    4836.0314            2 
   88100    1.8290183   -4.9673415    4806.6983            1 
   88200    1.9010552   -4.9648006    4819.5804            1 
   88300    1.8619152   -4.9832466    4823.0122       -1e+20 
   88400    1.8463886   -4.9598904    4809.9189            1 
   88500    1.8842592   -4.9211391    4837.7085            1 
   88600    1.8790324   -4.9305086    4832.4825            1 
   88700    1.8577448   -4.9651995    4821.8624            1 
   88800    1.8770405   -4.9375937    4824.8103            1 
   88900    1.8869134   -4.9331951    4842.9941            1 
   89000    1.8678907   -4.9544742     4828.758            3 
   89100    1.8727063   -4.9521465    4809.7759            1 
   89200    1.8437954   -4.9615455    4816.2677            2 
   89300    1.8885228   -5.0009748    4823.7312            1 
   89400    1.8690891   -4.9625018     4793.479            1 
   89500    1.8611284   -4.9481435    4829.6644            1 
   89600    1.8854743   -4.9615464    4832.2221            2 
   89700     1.890201   -4.9717247    4812.5732            1 
   89800    1.8364972   -5.0177753    4801.1351            1 
   89900     1.876592    -4.986832    4801.1583            2 
   90000    1.8737724   -4.9215626    4816.8373            1 
   90100    1.8717056   -5.0008114      4820.49            1 
   90200    1.8544876   -4.9685614    4804.0075            1 
   90300    1.9044428   -4.9558138    4830.6365            1 
   90400    1.8605785   -4.9649821    4818.3242            1 
   90500    1.8616447   -4.9253336    4825.3512            1 
   90600    1.8650528   -4.9296137    4822.0409            1 
   90700     1.824416   -4.9524563    4820.0183            1 
   90800    1.9080341   -4.9828894    4801.2534            3 
   90900    1.8389525   -4.9738697    4801.3472            2 
   91000    1.8774235   -4.9904087    4816.5986            1 
   91100     1.895659   -4.9275615    4846.9255            1 
   91200     1.881866   -4.9131094    4826.7019            1 
   91300    1.8369912   -4.9201877    4809.2347            1 
   91400    1.8657306   -4.9591477    4821.6311            1 
   91500    1.9161061   -4.9535896    4816.3352            3 
   91600    1.8730483   -4.9911563    4815.8251            1 
   91700    1.8089988    -4.961489    4815.4844            1 
   91800    1.8838208   -4.9934236    4733.4643            2 
   91900    1.8908434   -4.9968495     4838.692            1 
   92000    1.8934535   -4.9709507    4814.9232            1 
   92100     1.858608   -4.9518986    4811.9041            2 
   92200    1.8714108   -4.9404367    4855.4765            1 
   92300    1.8487897   -4.9092586    4825.7838            2 
   92400      1.87371   -4.9958496    4788.9151            1 
   92500    1.8938102   -4.9678135    4847.8424            1 
   92600    1.8678108   -4.9444453    4810.9161            1 
   92700    1.8652775   -4.9467796    4812.1962            1 
   92800    1.8473726   -4.9754874    4817.7627            1 
   92900    1.8531619    -4.950637    4802.6931       -1e+20 
   93000    1.8388358   -4.8992426     4834.258            2 
   93100    1.8565707   -4.9442756    4831.7361            1 
   93200    1.8143142   -4.9173057    4789.2935            1 
   93300    1.8963447   -4.9710495    4824.2531            1 
   93400    1.8505169   -4.9668036    4830.3342            1 
   93500    1.8968012   -4.9632495    4809.1916            2 
   93600    1.8724289    -4.935041      4847.25            1 
   93700    1.8880173   -4.9736943    4823.4633            3 
   93800    1.8467657   -4.9651181    4803.5421            2 
   93900    1.8851005   -4.9364784    4824.6556            1 
   94000    1.8435673   -4.8986009    4835.3101            2 
   94100    1.9285279   -4.9451413    4813.7992            1 
   94200    1.8471849   -4.9784619    4844.7902            1 
   94300    1.8485265   -4.9805293    4820.2953            2 
   94400    1.9066458   -4.9497942    4771.5478            1 
   94500    1.8375868   -4.9898482     4849.964            2 
   94600    1.8897137   -4.9792994    4816.1034            1 
   94700    1.8939125   -5.0134677     4813.805            1 
   94800    1.8446276   -5.0083403    4822.5742            1 
   94900    1.8898225   -4.9632901    4795.1703            1 
   95000    1.8082319   -4.9652112    4803.8339            1 
   95100    1.8847263   -4.9736795    4830.1916            1 
   95200    1.8822651   -4.9256565    4805.4839            1 
   95300    1.8680142   -4.9924001    4827.5151            1 
   95400    1.8505987   -4.9197666    4854.5744            2 
   95500    1.9115851   -4.9449593    4821.2623            1 
   95600    1.8591412   -4.9634854    4851.6985       -1e+20 
   95700    1.8502516   -5.0032389    4826.5425            1 
   95800    1.8964034   -4.9681453    4785.7255            1 
   95900     1.827409   -4.9300463    4831.0367            2 
   96000    1.9116792   -4.9787574    4804.9487       -1e+20 
   96100    1.8408136   -4.9760971    4824.7747            1 
   96200    1.8561197   -4.9200654    4834.0909            1 
   96300    1.8987051   -4.8954391    4824.6092            1 
   96400    1.8506879   -4.9435031    4829.7567            1 
   96500    1.8635117   -4.9771986    4817.8318            1 
   96600    1.8444973   -4.9749208    4808.0517            2 
   96700    1.8661247   -4.9574611    4827.0453            1 
   96800    1.8678602   -5.0175301    4786.3478            1 
   96900    1.8606252   -4.9775859    4799.2401            1 
   97000    1.8490061   -4.9365857    4817.5509            1 
   97100    1.9246742   -4.9661642     4814.081            2 
   97200    1.8388205   -4.9394691    4822.2977            1 
   97300    1.8640232    -4.924916    4836.4278            1 
   97400    1.8847894    -4.950744    4834.6602            1 
   97500    1.8453654   -4.9629884    4793.0635            1 
   97600     1.890906   -4.9797734    4816.6622            1 
   97700    1.8640635   -4.9700747     4817.765            1 
   97800    1.8718045   -4.9595633    4808.4313            1 
   97900    1.8957834   -4.9481543     4849.108            1 
   98000    1.8493773     -4.93218    4837.0812            1 
   98100    1.9088947   -4.9524705    4829.0795            2 
   98200    1.8683612   -4.9549367    4824.5989            1 
   98300    1.8394227   -4.9984599    4823.4544            1 
   98400    1.8995443   -4.9536994     4817.931            1 
   98500    1.8386684   -4.9171455    4812.8697            1 
   98600    1.8899912   -4.9090178    4849.3867            2 
   98700    1.8834569   -4.9350023    4822.6391            2 
   98800    1.8596005   -4.9682675    4800.5479            2 
   98900    1.8506187   -5.0236051     4805.697            1 
   99000     1.932958   -5.0054858    4779.5006            1 
   99100    1.8143417   -4.9379998     4842.281            2 
   99200    1.8627681   -4.9578725    4835.2383            1 
   99300    1.9020671   -4.9405011    4815.4196            1 
   99400    1.8361972   -4.9344136    4854.0001            1 
   99500    1.8892849   -4.9983816    4789.6252            1 
   99600    1.8476607   -4.9675556    4799.1804            1 
   99700    1.8765823    -4.968774    4830.1475       -1e+20 
   99800    1.8492885   -4.9348163    4819.0665            1 
   99900     1.880874   -4.9973076    4773.5168            1 
  100000    1.8545893   -4.9806236    4801.3171            2 
  100100    1.8621589   -4.9403956     4833.127            1 
  100200    1.9119908   -4.9216343    4825.6316            2 
  100300    1.8625953   -4.9682836    4853.7693            1 
  100400    1.8572777   -4.9404592    4831.3843            1 
  100500    1.8773792    -5.028129    4781.1921            1 
  100600    1.8346545   -4.9937613    4796.8805            1 
  100700    1.8267824   -4.9339435    4824.0574            1 
  100800    1.8844004   -4.9246781    4825.9085            2 
  100900    1.8548959   -4.9630029    4823.7249            1 
  101000    1.8707354   -5.0351758    4804.4237            1 
  101100     1.894848   -4.9985375    4794.8348            2 
  101200    1.8661583   -4.9341364    4837.1835            1 
  101300    1.9089812   -4.9033941    4849.2349            1 
  101400    1.8725104   -4.9403282    4841.8662            1 
  101500    1.8813348   -5.0102441    4822.6454            2 
  101600     1.874571   -4.9497283    4826.7941            1 
  101700    1.8663921   -4.9283413    4845.7489            1 
  101800    1.8826057   -4.9909526    4806.0685            1 
  101900    1.8764691   -4.9856421    4795.1443            2 
  102000    1.8646633   -4.9553631    4833.9727            1 
  102100    1.8711509    -4.946453    4830.2049            1 
  102200    1.8602832   -4.9561174    4811.7072            1 
  102300    1.9028274    -4.928364     4833.777            1 
  102400    1.8714574   -4.9486588    4834.6362            1 
  102500    1.8475392   -4.9487535    4828.6845            2 
  102600    1.9086851   -4.9522324    4802.1177            1 
  102700    1.8844847   -4.9682809    4851.5202       -1e+20 
  102800    1.8487002   -4.9961849    4818.3836            1 
  102900    1.9152921   -4.9695823    4813.0846            1 
  103000    1.8523527   -4.9511757    4833.6349            1 
  103100    1.8489788   -5.0056696    4810.0935            1 
  103200    1.8820321   -4.9612501    4808.2517            1 
  103300    1.8665509   -4.9828299    4819.8102            1 
  103400    1.8139094   -4.9926871    4796.8553       -1e+20 
  103500    1.8962016   -4.9929761    4792.1407            1 
  103600    1.8249133   -4.9475065    4821.7643            1 
  103700     1.891826   -4.9732209    4837.1774            2 
  103800    1.8759995   -4.9338832    4804.3606            2 
  103900    1.8347037   -4.9846552    4803.2214            1 
  104000     1.854207   -5.0615783    4798.1725            1 
Loop time of 267.692 on 18 procs for 100000 steps with 4000 atoms

Performance: 64551.798 tau/day, 373.564 timesteps/s
99.6% CPU use with 18 MPI tasks x no OpenMP threads

MPI task timing breakdown:
Section |  min time  |  avg time  |  max time  |%varavg| %total
---------------------------------------------------------------
Pair    | 32.033     | 33.354     | 35.185     |  14.8 | 12.46
Neigh   | 6.0237     | 6.1669     | 6.2688     |   2.7 |  2.30
Comm    | 11.91      | 14.758     | 17.711     |  48.5 |  5.51
Output  | 5.6092     | 5.6105     | 5.6257     |   0.2 |  2.10
Modify  | 203.38     | 205.7      | 209.06     |  13.2 | 76.84
Other   |            | 2.106      |            |       |  0.79

Nlocal:        222.222 ave         229 max         217 min
Histogram: 5 1 2 2 1 0 1 2 2 2
Nghost:        2121.56 ave        2134 max        2109 min
Histogram: 1 3 1 1 3 1 4 0 2 2
Neighs:        21169.4 ave       22776 max       20140 min
Histogram: 5 1 0 4 3 2 0 1 0 2
FullNghs:      42340.7 ave       43845 max       41206 min
Histogram: 4 3 3 0 1 1 1 1 0 4

Total # of neighbors = 762132
Ave neighs/atom = 190.53300
Neighbor list builds = 8093
Dangerous builds = 125

#clear
#
#next RN
#
#jump SELF
Total wall time: 0:04:29
