
units lj                  # Use reduced LJ style units
atom_style atomic         # Uncharged point particles
atom_modify map hash      # Needed for indexing of clusters etc
                          # Used to be able to find where atoms are in relation to each other.

# Define a lattice with which to populate the simulation cell. With units
# set to 'lj' the second argument to the lattice command is the reduced
# density rho* and the spacings are multiples of that required to acheive
# that density. Also define a simulation cell called 'box' in lattice units
# and fill it with atoms. Here we're creating a box which is ten lattice
# constants in each direction.
lattice fcc 1.0 spacing 1 1 1                 # All equal sizes - gives the right reduced density.
Lattice spacing in x,y,z = 1.5874011 1.5874011 1.5874011

region box block 0 10 0 10 0 10 units lattice # Defines a region, "box", in lattice units
create_box 1 box                              # Creates a simulation box as specified above,
Created orthogonal box = (0.0000000 0.0000000 0.0000000) to (15.874011 15.874011 15.874011)
  2 by 3 by 4 MPI processor grid
                                              # with one type of atom
create_atoms 1 box                            # Creates particles on lattice points
Created 4000 atoms
  using lattice units in orthogonal box = (0.0000000 0.0000000 0.0000000) to (15.874011 15.874011 15.874011)
  create_atoms CPU = 0.005 seconds


# Set the mass of the first (and only) atom type.
mass 1 1.0

# Lennard-Jones interactions between particles, 3.5 sigma cut-off. Apply
# long range tail corrections to energy and pressure and set all coefficients
# to unity since we work in reduced units here. Note that this doesn't shift
# the potential such that it goes to zero at the cutoff. That would require
# pair_modify('shift', 'yes').
pair_style lj/cut  3.5      # non-GPU version
pair_modify tail  yes
pair_coeff 1  1  1.0  1.0   # Intearaction between 1 and 1 set with epsilon = 1 and sigma = 1

write_data data.*
System init for write_data ...
Neighbor list info ...
  update every 1 steps, delay 10 steps, check yes
  max neighbors/atom: 2000, page size: 100000
  master list distance cutoff = 3.8
  ghost atom cutoff = 3.8
  binsize = 1.9, bins = 9 9 9
  1 neighbor lists, perpetual/occasional/extra = 1 0 0
  (1) pair lj/cut, perpetual
      attributes: half, newton on
      pair build: half/bin/atomonly/newton
      stencil: half/bin/3d
      bin: standard

#############################
#   M E L T   S Y S T E M   #
#############################

velocity all create 2.4 1741580 mom yes dist gaussian # Assign velocities
                                                    # Temperature 2.4, random number seed, zero linear momentum
						                                                        # Gaussian distribution

timestep 0.002   # simulation timestep
thermo 100       # output thermodynamic data every 100 steps

# Define a fix  in this case with index 1 applied to all
# particles in the simulation. This fix is for simulations
# in the anisotropic NPT ensemble. Note that we use the MTK
# correction.
fix 1 all npt temp 2.4 2.4 0.1 iso 5.68 5.68 0.5 mtk yes tchain 5 pchain 5 # Use NPT ensemble
                                                                         # Set temperature and pressure and damping
                                                                         # Numbers of thermostats in chain and in barostat
run 1000         # run for 10000 steps
Per MPI rank memory allocation (min/avg/max) = 3.676 | 3.679 | 3.684 Mbytes
Step Temp E_pair E_mol TotEng Press Volume 
       0          2.4   -8.3859253            0   -4.7868253   -2.2405722         4000 
     100    1.2552531   -6.5115672            0   -4.6291582     5.497081    4088.0579 
     200    1.4628633    -6.289567            0   -4.0958206    6.0903972    4138.0466 
     300    1.5904925   -6.0345783            0   -3.6494359    5.7376042    4272.4771 
     400    1.6850752   -5.7072351            0   -3.1802542    5.9705826    4399.2373 
     500    1.7895599   -5.4225046            0   -2.7388358     5.865757    4546.8704 
     600    1.8965854   -5.1442855            0   -2.3001186     5.865539    4691.2751 
     700    2.0304439     -4.92263            0   -1.8777256    5.8141752    4830.4151 
     800    2.1710171   -4.7567122            0   -1.5010006    5.6106115    4968.6247 
     900    2.2247838   -4.5230698            0   -1.1867284    5.8051376    5086.8715 
    1000     2.364264   -4.4348938            0  -0.88938446    5.9115751    5144.0032 
Loop time of 0.318887 on 24 procs for 1000 steps with 4000 atoms

Performance: 541884.454 tau/day, 3135.905 timesteps/s
99.7% CPU use with 24 MPI tasks x no OpenMP threads

MPI task timing breakdown:
Section |  min time  |  avg time  |  max time  |%varavg| %total
---------------------------------------------------------------
Pair    | 0.17652    | 0.1859     | 0.19618    |   1.1 | 58.30
Neigh   | 0.033777   | 0.035284   | 0.037366   |   0.5 | 11.06
Comm    | 0.063632   | 0.073449   | 0.082891   |   1.9 | 23.03
Output  | 0.00021786 | 0.00022451 | 0.00029045 |   0.0 |  0.07
Modify  | 0.01879    | 0.021846   | 0.024206   |   1.2 |  6.85
Other   |            | 0.00218    |            |       |  0.68

Nlocal:        166.667 ave         176 max         152 min
Histogram: 1 0 2 0 3 4 6 4 3 1
Nghost:        1840.88 ave        1857 max        1826 min
Histogram: 3 1 3 4 1 2 4 4 0 2
Neighs:        14784.9 ave       15702 max       13755 min
Histogram: 2 1 1 5 1 3 5 0 4 2

Total # of neighbors = 354837
Ave neighs/atom = 88.709250
Neighbor list builds = 86
Dangerous builds = 16

# Equilibrate just above the melting temperature to avoid step fn in T

fix 1 all npt temp 1.25 1.25 0.1 iso 5.68 5.68 0.5 mtk yes tchain 5 pchain 5
run 1000
Per MPI rank memory allocation (min/avg/max) = 3.677 | 3.680 | 3.685 Mbytes
Step Temp E_pair E_mol TotEng Press Volume 
    1000     2.364264   -4.4348938            0  -0.88938446    5.9115751    5144.0032 
    1100    1.9499649   -4.6617779            0   -1.7375618    5.8205171    4978.7844 
    1200    1.7213197   -4.9482774            0   -2.3669434    5.7402188    4808.4294 
    1300    1.5721809   -5.1954201            0   -2.8377383    5.7003773    4667.9329 
    1400    1.4692769   -5.4052033            0   -3.2018389    5.6740098     4560.708 
    1500    1.3897296   -5.5637068            0   -3.4796336    5.6667574    4476.2103 
    1600    1.2963572   -5.6470084            0   -3.7029588    5.6441736    4434.9383 
    1700    1.2716936   -5.7363737            0   -3.8293102    5.7159049    4387.6158 
    1800    1.2561313   -5.8008832            0   -3.9171572    5.6027564    4366.0004 
    1900     1.242552   -5.8327759            0   -3.9694139    5.6800198    4347.3872 
    2000    1.2686809   -5.8614487            0   -3.9589031    5.5394068    4347.1855 
Loop time of 0.310416 on 24 procs for 1000 steps with 4000 atoms

Performance: 556673.139 tau/day, 3221.488 timesteps/s
99.7% CPU use with 24 MPI tasks x no OpenMP threads

MPI task timing breakdown:
Section |  min time  |  avg time  |  max time  |%varavg| %total
---------------------------------------------------------------
Pair    | 0.18067    | 0.18466    | 0.19031    |   0.6 | 59.49
Neigh   | 0.030635   | 0.031257   | 0.032098   |   0.2 | 10.07
Comm    | 0.064275   | 0.070655   | 0.075745   |   1.1 | 22.76
Output  | 0.00020942 | 0.00021407 | 0.00026394 |   0.0 |  0.07
Modify  | 0.019663   | 0.021172   | 0.02237    |   0.5 |  6.82
Other   |            | 0.002453   |            |       |  0.79

Nlocal:        166.667 ave         176 max         159 min
Histogram: 1 1 7 1 4 5 1 3 0 1
Nghost:        2035.25 ave        2048 max        2013 min
Histogram: 1 0 2 0 4 2 5 1 6 3
Neighs:        17526.7 ave       18387 max       16728 min
Histogram: 3 2 3 3 2 3 1 2 2 3

Total # of neighbors = 420641
Ave neighs/atom = 105.16025
Neighbor list builds = 76
Dangerous builds = 5


# Small amount of linear quench

fix 1 all npt temp 1.25 ${temp} 0.1 iso 5.68 5.68 0.5 mtk yes tchain 5 pchain 5
fix 1 all npt temp 1.25 0.18 0.1 iso 5.68 5.68 0.5 mtk yes tchain 5 pchain 5
run 2000
Per MPI rank memory allocation (min/avg/max) = 3.677 | 3.680 | 3.685 Mbytes
Step Temp E_pair E_mol TotEng Press Volume 
    2000    1.2686809   -5.8614487            0   -3.9589031    5.5394068    4347.1855 
    2100    1.2128704   -5.8555089            0   -4.0366581    5.6426319    4336.3943 
    2200    1.1822196   -5.9094806            0   -4.1365945    5.5464847    4322.6573 
    2300    1.1514462   -5.9686914            0   -4.2419539     5.524112    4297.8476 
    2400    1.1158306   -6.0216986            0   -4.3483712    5.7144057    4256.1363 
    2500    1.0695144   -6.0881782            0   -4.4843077    5.7949677    4221.7876 
    2600    1.0151253   -6.1685146            0   -4.6462073    5.6358157    4195.7901 
    2700   0.95910371   -6.2474984            0   -4.8092025    5.5860286    4168.5825 
    2800   0.91146165   -6.3273802            0   -4.9605295     5.623118    4132.2302 
    2900    0.8694415    -6.405055            0   -5.1012188    5.7802683    4088.0936 
    3000   0.79994305   -6.4724889            0   -5.2728743    5.7036243    4064.9768 
    3100   0.76736567   -6.5642481            0   -5.4134874    5.8571973    4020.6594 
    3200   0.72383165   -6.6615289            0   -5.5760529    5.7352139    3991.4877 
    3300   0.66130644   -6.7420999            0   -5.7503883    5.6354363    3967.6785 
    3400   0.61546285   -6.8299165            0    -5.906953    5.6679788    3933.7966 
    3500   0.56381032    -6.913264            0   -6.0677599    5.6588159    3904.5292 
    3600   0.50641934   -6.9883517            0   -6.2289126    5.5872769    3879.8542 
    3700   0.45764684   -7.0691932            0   -6.3828946    5.5819751     3852.935 
    3800   0.40682661   -7.1387382            0   -6.5286509    5.6588371    3824.7275 
    3900   0.35176303   -7.2088734            0   -6.6813608      5.64678    3800.9647 
    4000   0.30419393   -7.2838524            0   -6.8276756    5.6342674    3777.5845 
Loop time of 0.657551 on 24 procs for 2000 steps with 4000 atoms

Performance: 525586.626 tau/day, 3041.589 timesteps/s
99.7% CPU use with 24 MPI tasks x no OpenMP threads

MPI task timing breakdown:
Section |  min time  |  avg time  |  max time  |%varavg| %total
---------------------------------------------------------------
Pair    | 0.39875    | 0.41636    | 0.42786    |   1.1 | 63.32
Neigh   | 0.043724   | 0.045204   | 0.046114   |   0.3 |  6.87
Comm    | 0.13417    | 0.14682    | 0.16283    |   2.1 | 22.33
Output  | 0.00041837 | 0.00043207 | 0.00054878 |   0.0 |  0.07
Modify  | 0.03888    | 0.042163   | 0.045141   |   0.9 |  6.41
Other   |            | 0.006573   |            |       |  1.00

Nlocal:        166.667 ave         173 max         161 min
Histogram: 2 5 1 1 4 2 3 1 3 2
Nghost:        2226.12 ave        2238 max        2207 min
Histogram: 1 1 1 2 3 3 2 4 4 3
Neighs:        20372.8 ave       21238 max       19677 min
Histogram: 3 3 4 2 2 2 3 1 2 2

Total # of neighbors = 488946
Ave neighs/atom = 122.23650
Neighbor list builds = 105
Dangerous builds = 0

#############################
# F R E E Z E  S Y S T E M  #
#############################

# Define solid atoms. This closely follows ten Wolde  Ruiz-Montero and Frenkel  Faraday Discuss  1996  104  93-110
# Compute components of the per-atom q6 vector
compute q6 all orientorder/atom degrees 1 6 components 6 nnn NULL cutoff 1.3 # compute the Q6 parameter.
                                                                             # Use all neighbours within 1.3 unit cell.

# get number of connections
compute coord_number all coord/atom orientorder q6 0.5

# An atom is solid if it has 8 or more connections (of a possible 14)
variable is_solid atom c_coord_number>=8
group solid dynamic all var is_solid    # Must be dynamic to update
dynamic group solid defined

# do clustering
compute cluster solid cluster/atom 1.3 # Create a cluster where all atoms within are solid and max 1.3 units from another member

# define chunks one chunk per cluster
compute clus_chunks solid chunk/atom c_cluster nchunk every compress yes  # Says which atoms are in which chunk

# count the size of each chunk
compute size_chunks solid property/chunk clus_chunks count


# Find the maximum entry in the vector of chunk sizes
variable max_n equal max(c_size_chunks)


# Thermo style which includes this variable
thermo_style custom step temp pe vol v_max_n

thermo ${N}  # Print the thermo information every 100 steps
thermo 100  

# Reset the npt fix at a lower temperature (below freezing)
fix 1  all npt temp  ${temp} ${temp}  0.1  iso  5.68  5.68  0.5  mtk yes tchain  5  pchain  5
fix 1  all npt temp  0.18 ${temp}  0.1  iso  5.68  5.68  0.5  mtk yes tchain  5  pchain  5
fix 1  all npt temp  0.18 0.18  0.1  iso  5.68  5.68  0.5  mtk yes tchain  5  pchain  5

dump dmp2 all dcd ${N} traj_${rand}.dcd
dump dmp2 all dcd 100 traj_${rand}.dcd
dump dmp2 all dcd 100 traj_462431.dcd


# fix rnuntil all halt ${N} v_max_n >= 3980 error soft message no   # Stop when solidified


run 100000 # 5000000  # Run for this many steps
Neighbor list info ...
  update every 1 steps, delay 10 steps, check yes
  max neighbors/atom: 2000, page size: 100000
  master list distance cutoff = 3.8
  ghost atom cutoff = 3.8
  binsize = 1.9, bins = 9 9 9
  4 neighbor lists, perpetual/occasional/extra = 1 3 0
  (1) pair lj/cut, perpetual
      attributes: half, newton on
      pair build: half/bin/atomonly/newton
      stencil: half/bin/3d
      bin: standard
  (2) compute orientorder/atom, occasional
      attributes: full, newton on
      pair build: full/bin/atomonly
      stencil: full/bin/3d
      bin: standard
  (3) compute coord/atom, occasional
      attributes: full, newton on
      pair build: full/bin/atomonly
      stencil: full/bin/3d
      bin: standard
  (4) compute cluster/atom, occasional
      attributes: full, newton on
      pair build: full/bin/atomonly
      stencil: full/bin/3d
      bin: standard
Per MPI rank memory allocation (min/avg/max) = 9.523 | 9.525 | 9.528 Mbytes
Step Temp PotEng Volume v_max_n 
    4000   0.30419393   -7.2838524    3777.5845          197 
    4100   0.27025237   -7.3333911    3755.0151           93 
    4200   0.23338853   -7.3754639    3746.7814           68 
    4300   0.21380617   -7.4078844    3734.0308          147 
    4400   0.20176857   -7.4349454    3724.2002          132 
    4500   0.19047615   -7.4519104    3719.8707          153 
    4600   0.18304381   -7.4660303    3718.1864          157 
    4700   0.17727692   -7.4641153    3711.4185          246 
    4800   0.17770951   -7.4825544    3717.8955          305 
    4900   0.18097655   -7.4771169    3709.7275          303 
    5000   0.18074424   -7.4876363     3709.257          336 
    5100   0.18526992   -7.4951741    3710.4315          283 
    5200    0.1773699   -7.4886565     3705.613          175 
    5300   0.18053969   -7.4922914    3710.6935          312 
    5400   0.17734157   -7.4910774    3708.2393          292 
    5500   0.18043908   -7.4945958    3707.8753          228 
    5600   0.17826007   -7.4940483    3708.3459          144 
    5700   0.17791294   -7.4996371    3704.5325          200 
    5800   0.17958168   -7.5065185     3708.243          258 
    5900   0.18168405   -7.4949508    3701.7191          254 
    6000   0.18059531   -7.5085046    3707.0283          276 
    6100   0.17949517   -7.5067839    3705.0942          237 
    6200   0.18260895   -7.4968474     3703.714          199 
    6300   0.18252099   -7.5083646    3709.3641          237 
    6400   0.18122169   -7.5031592    3699.6891          243 
    6500   0.17856804    -7.516175    3705.8292          264 
    6600   0.18471338   -7.5088557    3701.5566          290 
    6700   0.18364704   -7.5051313    3703.0301          196 
    6800   0.17843161   -7.5174975    3704.6684          199 
    6900   0.17446018   -7.5112413    3700.3533          258 
    7000   0.18270186   -7.5149407    3700.7661          261 
    7100   0.17732913   -7.5183044    3703.0733          280 
    7200    0.1816529   -7.5196973    3695.3272          303 
    7300   0.17571352   -7.5334526    3704.0639          301 
    7400   0.17830321   -7.5139011    3697.3198          294 
    7500   0.18113398    -7.523558    3701.9168          311 
    7600   0.17932971   -7.5242674    3697.5804          260 
    7700   0.17915073   -7.5195412    3698.5908          297 
    7800    0.1824369   -7.5235495    3702.2351          286 
    7900   0.18054953     -7.52304    3695.9618          199 
    8000   0.17635456    -7.530229    3701.5659          162 
    8100   0.18226354   -7.5207681    3696.5947          182 
    8200   0.17874582   -7.5287186    3701.7571          174 
    8300   0.18209594   -7.5278084    3695.5153          132 
    8400   0.17959476   -7.5361673    3699.1118          145 
    8500   0.17708089   -7.5313879    3694.0307          140 
    8600   0.18202458   -7.5368071    3698.8938          178 
    8700   0.17811333   -7.5371207    3695.1897          142 
    8800   0.18172807   -7.5340411    3694.1066          162 
    8900    0.1798248   -7.5403955    3699.3813          130 
    9000   0.17682954   -7.5320796    3690.3563          141 
    9100   0.18116818    -7.539764    3697.5675          165 
    9200   0.18121843   -7.5346467    3692.7821          189 
    9300   0.17986808   -7.5448032    3693.7755          322 
    9400   0.18155123   -7.5458107     3695.368          326 
    9500   0.18334717   -7.5374055    3691.6159          385 
    9600   0.17699199   -7.5426364    3696.6798          384 
    9700    0.1817616   -7.5431934    3691.7676          256 
    9800   0.17794979   -7.5461061    3692.7706          367 
    9900   0.17779164   -7.5505609    3693.7331          356 
   10000   0.18408481   -7.5464233    3691.4305          366 
   10100   0.17994155   -7.5462285    3693.7393          194 
   10200   0.17867759   -7.5508596    3692.1402          346 
   10300   0.18002879   -7.5441461    3694.4725          424 
   10400   0.17955295   -7.5436714      3691.15          464 
   10500   0.18149723   -7.5555814     3692.366          379 
   10600     0.176046    -7.550316    3690.2918          335 
   10700   0.17897122   -7.5450371    3692.1089          266 
   10800   0.18188436   -7.5492957    3694.7672          286 
   10900   0.17653326   -7.5443638    3689.6158          282 
   11000    0.1800393   -7.5533495    3695.3699          319 
   11100   0.18104906   -7.5450314    3689.0847          304 
   11200   0.18190444   -7.5563523    3691.4862          408 
   11300   0.17951409   -7.5531089    3691.0059          252 
   11400    0.1838305   -7.5456945    3687.7294          473 
   11500   0.18024325   -7.5636808    3696.8695          345 
   11600   0.17970912    -7.542652    3683.0133          432 
   11700    0.1807046   -7.5619308    3695.6409          480 
   11800    0.1825641   -7.5489772    3691.0558          394 
   11900   0.18068957   -7.5522502    3689.1659          481 
   12000   0.17997492    -7.558297    3691.5314          524 
   12100   0.18407014   -7.5515859    3686.8245          396 
   12200    0.1809065   -7.5558449    3692.3135          507 
   12300     0.178594   -7.5539669    3686.6815          423 
   12400    0.1839454   -7.5593813    3691.3974          439 
   12500   0.17939644   -7.5519041    3690.2041          516 
   12600   0.17658935   -7.5591616    3690.3029          418 
   12700   0.18036758   -7.5561404    3688.1214          511 
   12800   0.18029616   -7.5548411    3692.5743          540 
   12900   0.18148974   -7.5577805    3688.9938          529 
   13000   0.18191515   -7.5548084    3687.8287          527 
   13100   0.18472916   -7.5631304    3692.6116          455 
   13200   0.17787677   -7.5513711    3686.7287          541 
   13300   0.18251096   -7.5621284    3691.6029          535 
   13400   0.17955721   -7.5512303    3687.4946          506 
   13500   0.17832727   -7.5648584    3692.4545          566 
   13600   0.18217411   -7.5531173    3689.3541          577 
   13700   0.17704152   -7.5558441    3690.1386          504 
   13800   0.18153154   -7.5634161     3691.421          589 
   13900   0.18356367   -7.5492733    3686.3048          592 
   14000   0.18148652   -7.5664485    3692.2567          564 
   14100   0.18217492    -7.560497    3687.2572          618 
   14200   0.17653415   -7.5602003    3688.1021          558 
   14300    0.1813241   -7.5634779    3688.7446          644 
   14400   0.17944177   -7.5562983    3688.2085          627 
   14500   0.17920169   -7.5623286    3690.7005          591 
   14600   0.17686047   -7.5587639    3685.7503          610 
   14700   0.18231266   -7.5645265    3691.1417          515 
   14800   0.17925824   -7.5545714    3688.2848          612 
   14900   0.18139661   -7.5670003    3687.0649          532 
   15000   0.18224679   -7.5626292    3690.6718          588 
   15100   0.18067348    -7.557528    3685.6442          595 
   15200   0.17882427   -7.5653299    3691.2403          583 
   15300   0.18215247   -7.5570679    3687.0241          543 
   15400   0.18513567   -7.5659958    3687.4191          607 
   15500   0.18424646   -7.5662257    3684.8259          618 
   15600   0.17870088    -7.560978    3693.5903          575 
   15700   0.18175075   -7.5545475    3687.6699          490 
   15800    0.1788957   -7.5647231    3689.0292          617 
   15900   0.18262977   -7.5632502    3685.6878          568 
   16000   0.18164011   -7.5617191     3691.691          554 
   16100   0.17812472   -7.5590069     3687.207          548 
   16200    0.1802787   -7.5653465    3688.8066          460 
   16300   0.17751044   -7.5652212    3689.4204          429 
   16400   0.18224376   -7.5616024    3683.5049          558 
   16500   0.17999572    -7.569279    3694.2492          513 
   16600   0.17769104   -7.5579071     3683.075          525 
   16700   0.17945234   -7.5638128    3691.7478          544 
   16800   0.18062541   -7.5658264    3686.8897          587 
   16900   0.18216298   -7.5669896    3685.9631          584 
   17000    0.1812239   -7.5651077    3687.6735          536 
   17100   0.18042602   -7.5703287    3685.7962          524 
   17200   0.18315097   -7.5647438    3686.5734          557 
   17300   0.18014175   -7.5667878    3687.0505          588 
   17400   0.17838175   -7.5644869    3686.7478          516 
   17500   0.17979806   -7.5587409    3689.8907          535 
   17600   0.18069211    -7.567959    3688.1544          532 
   17700   0.17896181   -7.5624343    3686.4426          516 
   17800   0.18255169   -7.5621688    3689.6478          557 
   17900   0.18058068     -7.57135    3688.0036          617 
   18000   0.17946459   -7.5638699    3685.0404          582 
   18100   0.18204745   -7.5671801    3689.9878          517 
   18200   0.17908775   -7.5630087    3686.1044          611 
   18300   0.17995458    -7.569748     3687.522          515 
   18400   0.17933263   -7.5586659    3688.0864          497 
   18500   0.17973545   -7.5629346    3687.8823          533 
   18600   0.18127341   -7.5686319    3687.8339          598 
   18700   0.18004684   -7.5630288    3686.3321          582 
   18800   0.18130206    -7.566643    3690.3781          496 
   18900   0.17822588   -7.5652888    3687.2542          556 
   19000   0.18171108   -7.5623491     3686.582          563 
   19100   0.17658648   -7.5645441    3688.1654          643 
   19200   0.17950963   -7.5678495    3686.3996          569 
   19300   0.18127511    -7.565238    3687.0009          533 
   19400   0.17838094    -7.568152    3688.3319          601 
   19500   0.17610776   -7.5663668      3685.05          633 
   19600   0.17559531   -7.5650506    3690.2043          625 
   19700   0.18180629   -7.5633618    3686.5261          619 
   19800   0.17533411   -7.5693295    3690.0309          556 
   19900   0.18168874   -7.5588066    3683.3898          561 
   20000   0.18138255   -7.5709337     3692.259          630 
   20100   0.17879797   -7.5615961    3683.7334          657 
   20200   0.17644327    -7.566309    3689.4419          602 
   20300    0.1833749   -7.5687002    3687.3024          600 
   20400   0.17693609   -7.5639143    3686.0656          628 
   20500   0.18438078   -7.5673242    3689.9543          655 
   20600   0.18083327   -7.5643595    3684.9894          623 
   20700   0.18303011   -7.5678164    3685.2509          620 
   20800   0.18109031   -7.5675667    3687.2649          593 
   20900   0.17863778   -7.5625064     3687.851          647 
   21000   0.17667078    -7.566257    3686.5673          641 
   21100   0.17828336   -7.5687589    3686.1078          620 
   21200   0.18314444   -7.5664117     3689.038          631 
   21300   0.17720255   -7.5585972    3684.6066          639 
   21400   0.17741434   -7.5795981      3692.56          577 
   21500   0.18060485   -7.5589791    3679.7324          630 
   21600   0.17818114   -7.5664789    3688.6362          620 
   21700   0.18051018   -7.5685208    3688.4008          633 
   21800   0.17660084   -7.5609229    3685.1345          605 
   21900   0.18171012   -7.5683952    3688.8519          598 
   22000   0.18310376   -7.5629331    3684.9522          591 
   22100    0.1787783   -7.5698006     3686.656          589 
   22200   0.17925692   -7.5630848    3686.4018          618 
   22300   0.18127994   -7.5641929    3688.5764          529 
   22400   0.18016891    -7.570098    3686.5335          606 
   22500   0.17809853     -7.56583    3685.9683          639 
   22600    0.1804747   -7.5657095    3688.8089          595 
   22700   0.18079943   -7.5689672    3685.1984          664 
   22800   0.17759233   -7.5695557    3690.4978          649 
   22900   0.18038984   -7.5584711    3684.6707          689 
   23000   0.18160376   -7.5736304      3690.88          658 
   23100   0.17776271   -7.5629958    3683.0194          633 
   23200   0.17934771   -7.5630399    3689.5771          664 
   23300   0.17969102   -7.5669064    3687.7892          685 
   23400   0.17815509   -7.5652735    3686.3911          655 
   23500   0.17914989   -7.5674295    3686.6534          677 
   23600   0.17937552   -7.5681135      3686.94          664 
   23700   0.18139344   -7.5605116    3685.6371          618 
   23800   0.17819846   -7.5756208    3689.8034          607 
   23900   0.17718022   -7.5592833    3683.0024          618 
   24000    0.1834918   -7.5750803    3690.5446          618 
   24100   0.18066742   -7.5641247    3684.4617          635 
   24200   0.18112694   -7.5679839    3686.8615          597 
   24300   0.17850425   -7.5704791    3687.3405          585 
   24400   0.18001449   -7.5635692    3685.1023          621 
   24500    0.1798273   -7.5744076    3692.2025          646 
   24600   0.18138916    -7.564246    3682.5668          660 
   24700   0.17926133   -7.5723414    3688.8197          652 
   24800   0.18492151   -7.5664251    3686.2659          655 
   24900   0.18202847    -7.567441    3685.1559          661 
   25000    0.1778893   -7.5687579    3688.7726          634 
   25100   0.18290952   -7.5625061    3684.8276          640 
   25200   0.17751634    -7.572414    3690.2378          635 
   25300   0.18151286   -7.5660208    3684.7655          645 
   25400   0.18469426   -7.5686991    3686.9482          675 
   25500   0.18313609   -7.5686562    3686.2564          674 
   25600   0.18084824   -7.5710066    3685.1382          696 
   25700   0.18076403   -7.5652257    3688.4981          663 
   25800   0.18099398    -7.567155    3685.1931          671 
   25900   0.18009535   -7.5733412     3685.884          673 
   26000   0.18064941   -7.5690018     3687.748          633 
   26100   0.18054978   -7.5675891    3683.4164          650 
   26200   0.17673137   -7.5747415     3689.624          646 
   26300   0.17879294   -7.5577444    3684.1011          704 
   26400   0.17878572   -7.5732033    3690.9868          662 
   26500   0.17883982   -7.5669577    3685.5124          726 
   26600   0.17948882    -7.564621    3684.4996          676 
   26700   0.18164303   -7.5807925    3691.4825          682 
   26800   0.17471863   -7.5615749     3676.848          653 
   26900    0.1788151   -7.5788434    3692.8888          674 
   27000   0.17845964   -7.5645958    3684.5143          658 
   27100    0.1758844   -7.5702572    3686.8248          582 
   27200   0.17489105   -7.5700128    3689.3951          658 
   27300   0.18241994   -7.5646559    3684.2012          657 
   27400   0.17768999   -7.5710377    3688.0936          645 
   27500   0.17943997   -7.5700294    3685.5982          591 
   27600   0.17723033   -7.5754971    3683.6247          682 
   27700   0.17895207   -7.5744499    3686.8452          670 
   27800   0.18212674   -7.5679715    3685.6856          640 
   27900   0.18455761   -7.5713971    3685.3841          655 
   28000   0.17827547   -7.5756629    3686.6698          650 
   28100   0.18150494   -7.5671057    3684.4108          654 
   28200     0.181531   -7.5746625    3689.7874          688 
   28300   0.18121722    -7.569954    3679.9223          675 
   28400   0.18085794   -7.5714976    3688.5961          647 
   28500   0.17914782   -7.5678026     3686.291          655 
   28600   0.18075479   -7.5680352    3684.8399          648 
   28700   0.17982005   -7.5789976    3688.4017          655 
   28800   0.18270526   -7.5631672    3680.7084          641 
   28900   0.18043897    -7.577464    3692.8396          668 
   29000   0.17931692    -7.566187     3678.568          662 
   29100   0.18272296   -7.5742317    3688.6801          590 
   29200   0.18132035   -7.5691098    3684.8689          606 
   29300    0.1782714   -7.5737678    3684.9159          606 
   29400   0.18279659   -7.5707331    3687.5729          622 
   29500   0.17928329   -7.5700447     3683.901          647 
   29600   0.18398393   -7.5757355    3685.6389          648 
   29700   0.18217308   -7.5645744    3689.0378          620 
   29800   0.18201761   -7.5695745    3684.3111          626 
   29900   0.18050334   -7.5740435    3685.6325          632 
   30000   0.17818345   -7.5618069     3688.267          587 
   30100   0.18269454   -7.5657378    3687.5633          529 
   30200   0.18109465   -7.5729341    3685.4368          579 
   30300   0.17858541   -7.5738959    3686.6307          530 
   30400   0.18181512   -7.5626162    3683.9545          549 
   30500   0.17816313   -7.5770115    3690.8674          613 
   30600   0.17984638   -7.5649421    3679.5543          670 
   30700   0.18063175    -7.574712    3690.8201          627 
   30800   0.17932096   -7.5673885    3684.7146          628 
   30900   0.17780193   -7.5698117    3685.2909          601 
   31000   0.18408282   -7.5748024    3686.8171          645 
   31100   0.18479346   -7.5687729    3682.5948          614 
   31200   0.17857478   -7.5753397    3686.8589          588 
   31300   0.17952747   -7.5717857    3682.6534          582 
   31400   0.18004784   -7.5688142    3689.4984          617 
   31500   0.18283066   -7.5722167    3684.9329          588 
   31600   0.17694812   -7.5703589    3684.4541          591 
   31700   0.17998667   -7.5715606     3688.447          621 
   31800    0.1771392   -7.5696712     3683.263          603 
   31900   0.18108707   -7.5759241    3685.8547          550 
   32000   0.18158545   -7.5674638    3687.6294          625 
   32100    0.1816332   -7.5676216    3683.6977          616 
   32200   0.18112963   -7.5773489    3686.7487          645 
   32300   0.18305162    -7.572193    3683.2352          606 
   32400   0.17923807   -7.5666959    3688.3939          647 
   32500   0.18137258   -7.5751183    3687.2892          680 
   32600   0.17683992   -7.5677982    3682.7426          625 
   32700    0.1801673   -7.5732728    3688.3251          605 
   32800   0.18025929   -7.5699086    3684.6995          643 
   32900   0.17965015   -7.5766493     3684.684          624 
   33000   0.18070416   -7.5729146    3687.1807          581 
   33100   0.18003765   -7.5644991    3685.6294          634 
   33200   0.18205971   -7.5813163    3686.3826          614 
   33300   0.17779916   -7.5682781    3682.6941          584 
   33400   0.18316831   -7.5750778    3687.0973          592 
   33500   0.17843092   -7.5716985    3685.6483          611 
   33600   0.17894425   -7.5704697    3683.0816          611 
   33700   0.17990524   -7.5732094    3690.1043          650 
   33800   0.17679324   -7.5649248    3681.4579          640 
   33900   0.17948029   -7.5790232     3689.656          515 
   34000   0.18223232   -7.5690533    3682.7582          614 
   34100   0.18272811   -7.5715911    3683.4445          663 
   34200   0.18043123   -7.5767068    3688.4133          686 
   34300   0.18376696   -7.5665144    3682.1743          657 
   34400   0.18251106   -7.5739302    3688.3559          682 
   34500   0.17890102   -7.5702263    3682.2947          623 
   34600   0.18276097    -7.574704    3687.5707          620 
   34700   0.18141618   -7.5685381     3683.669          644 
   34800    0.1775208    -7.574816    3685.3705          670 
   34900   0.17954275   -7.5754831    3685.9246          647 
   35000   0.18028536   -7.5694656    3685.1415          675 
   35100   0.18021863   -7.5658177    3687.2915          651 
   35200   0.17983917   -7.5674056    3687.4462          674 
   35300   0.17981614   -7.5750454    3685.6861          688 
   35400   0.18121291    -7.571371    3684.9252          682 
   35500   0.18133513   -7.5699894     3684.099          654 
   35600   0.17747309   -7.5756161    3686.3345          665 
   35700   0.17939632   -7.5717109    3683.7451          672 
   35800   0.18231971   -7.5749281    3688.5486          656 
   35900   0.17939394   -7.5697977    3683.0098          690 
   36000   0.17760859   -7.5653963    3687.1657          709 
   36100   0.18046945   -7.5725327    3689.7931          668 
   36200   0.17812784   -7.5647595    3681.5931          683 
   36300   0.17942875   -7.5758191     3689.686          675 
   36400   0.18205707   -7.5681199    3685.0366          679 
   36500   0.17686134   -7.5724004    3686.7186          649 
   36600   0.18288989   -7.5739914    3686.2155          660 
   36700   0.17744852    -7.566736    3683.5746          648 
   36800   0.17986176   -7.5778079    3687.8272          697 
   36900   0.18043149   -7.5698024    3683.0758          715 
   37000   0.18101847   -7.5697956    3686.8641          660 
   37100   0.17659624   -7.5762112     3686.567          684 
   37200   0.18088561   -7.5686026    3683.0292          685 
   37300   0.17933495   -7.5752695    3688.3873          603 
   37400   0.17966822    -7.568205    3681.2817          669 
   37500   0.17697416   -7.5729283    3688.3491          647 
   37600   0.18441556   -7.5730762    3685.9032          672 
   37700   0.17767557    -7.567918    3683.1236          600 
   37800   0.17644813   -7.5785808    3689.9053          655 
   37900   0.18150499   -7.5656026    3681.7721          651 
   38000   0.17929494   -7.5750184    3689.9368          639 
   38100   0.17963662   -7.5748353    3683.4913          625 
   38200   0.18085581   -7.5713669    3683.2186          618 
   38300   0.17730844   -7.5712097    3688.2377          676 
   38400   0.17841989   -7.5731186    3684.4285          703 
   38500     0.180272   -7.5724577    3682.6573          644 
   38600   0.17721883   -7.5756826    3689.5873          681 
   38700    0.1804917     -7.56139    3683.7777          694 
   38800   0.18249039   -7.5712065    3689.0147          712 
   38900   0.17693573   -7.5693818    3685.9611          697 
   39000   0.18052979   -7.5721094    3684.4834          694 
   39100   0.17878024   -7.5732055    3687.6375          654 
   39200   0.18195224   -7.5738346    3682.8605          701 
   39300   0.17750138   -7.5779732    3687.5248          645 
   39400   0.17887005    -7.561907    3683.0521          644 
   39500   0.18057664   -7.5758196    3690.1402          687 
   39600   0.17877004   -7.5667406    3682.0975          690 
   39700    0.1800463   -7.5756041    3684.0682          710 
   39800   0.17697851   -7.5802567    3687.7436          678 
   39900   0.17967356   -7.5667276    3680.4482          710 
   40000   0.17963298   -7.5744378    3690.8783          729 
   40100   0.18293879   -7.5753025    3682.3212          709 
   40200   0.17915904   -7.5765385    3683.6874          715 
   40300    0.1816273     -7.57237    3686.8873          707 
   40400   0.17955614   -7.5692335    3683.7144          716 
   40500   0.18229644   -7.5736719    3686.4421          646 
   40600   0.18124876   -7.5692175    3684.1477          674 
   40700   0.18041674   -7.5791782    3686.0488          654 
   40800   0.18245615   -7.5720362    3682.1747          654 
   40900   0.17694305   -7.5693742    3687.5379          653 
   41000   0.17571487   -7.5791599    3686.0492          721 
   41100   0.17787194   -7.5702094    3681.6457          710 
   41200   0.18019724   -7.5815602    3689.3218          665 
   41300   0.17792776    -7.567259    3682.9865          656 
   41400    0.1801637   -7.5717464    3689.2546          618 
   41500   0.18002257    -7.576611    3685.3043          648 
   41600   0.17856802   -7.5691868    3682.5541          678 
   41700    0.1802192   -7.5759553    3690.5471          660 
   41800   0.18363023   -7.5669108     3682.838          686 
   41900   0.17697785   -7.5740473    3686.7663          602 
   42000   0.17682423   -7.5718905    3686.1303          686 
   42100   0.17728855    -7.568711    3686.9547          621 
   42200   0.18158344   -7.5691025    3685.9843          620 
   42300   0.18018282   -7.5769898    3684.2586          685 
   42400   0.17864981    -7.576453    3687.1091          651 
   42500   0.18083841   -7.5640616    3684.6019          633 
   42600   0.18121272   -7.5764621     3687.579          677 
   42700   0.18120214   -7.5775559     3683.684          643 
   42800   0.18102101   -7.5691147    3683.7202          647 
   42900   0.18137773   -7.5750284    3687.9007          686 
   43000   0.17904299   -7.5696767    3682.2879          616 
   43100   0.18063857   -7.5809687    3686.3805          649 
   43200   0.18036776   -7.5743248     3684.533          635 
   43300   0.18099576   -7.5699619    3686.7512          643 
   43400   0.17586939   -7.5748544    3686.4971          657 
   43500   0.18184669   -7.5762761    3685.3207          647 
   43600   0.18141039   -7.5747098    3684.0207          649 
   43700     0.178031   -7.5735539    3684.0463          635 
   43800   0.18018472   -7.5741711     3688.186          717 
   43900   0.18239864    -7.568437    3684.2085          695 
   44000   0.17869927   -7.5748659    3685.4641          633 
   44100   0.18400667   -7.5720069    3683.5327          620 
   44200   0.18460387   -7.5756762    3689.3074          655 
   44300   0.17818691   -7.5685937    3682.0558          656 
   44400   0.17921901   -7.5748601    3686.0007          678 
   44500   0.17824513   -7.5777137    3688.0061          666 
   44600   0.18098889   -7.5698872    3681.6016          620 
   44700   0.18164237   -7.5764809     3689.222          656 
   44800   0.18155499   -7.5729872     3680.876          644 
   44900   0.18338028   -7.5806932    3686.5417          651 
   45000   0.17892849   -7.5695023    3685.5053          659 
   45100    0.1792887   -7.5712129    3685.4207          650 
   45200   0.17796926   -7.5795978    3684.9774          658 
   45300   0.18017831   -7.5743079    3682.3801          635 
   45400   0.18014803   -7.5770445    3687.5921          690 
   45500   0.18631752   -7.5697229    3682.8671          639 
   45600   0.18004761   -7.5759872    3685.6353          653 
   45700   0.17934447   -7.5776661     3685.821          666 
   45800   0.17905885   -7.5760835    3681.6829          712 
   45900   0.18399104   -7.5790326     3686.699          651 
   46000   0.17513813   -7.5701398    3685.1463          554 
   46100   0.17783453   -7.5752302    3684.4941          636 
   46200   0.18141487   -7.5755085     3688.117          628 
   46300   0.18330662   -7.5697117     3683.379          563 
   46400    0.1812709   -7.5785986    3687.7449          654 
   46500   0.17822753    -7.572098    3679.7806          655 
   46600   0.17890418   -7.5820988    3685.9644          587 
   46700   0.17862075   -7.5727914    3683.5107          626 
   46800   0.18121593   -7.5704104    3684.4533          601 
   46900   0.17821679   -7.5759065    3687.2352          640 
   47000   0.17457742   -7.5696912    3682.5061          655 
   47100   0.17625697    -7.584088    3687.2814          658 
   47200   0.17902847    -7.566948    3681.4757          646 
   47300   0.17983506   -7.5827612    3687.4142          596 
   47400   0.17877504   -7.5760591    3679.9432          668 
   47500   0.17952673   -7.5756779    3685.9595          597 
   47600   0.18414486    -7.573738    3683.7013          641 
   47700   0.18093148   -7.5743242     3683.975          664 
   47800   0.17739128   -7.5752761    3685.5984          634 
   47900   0.18151464   -7.5708122    3686.0618          609 
   48000   0.18371723   -7.5779601     3684.895          598 
   48100   0.18309212   -7.5781163    3682.6873          613 
   48200   0.18120115   -7.5794067    3683.4305          662 
   48300   0.17953863   -7.5769236    3684.5016          684 
   48400   0.18287465    -7.572634    3683.5009          596 
   48500   0.17979599    -7.579521    3685.8068          643 
   48600    0.1785287   -7.5755423    3683.1004          613 
   48700   0.18237099    -7.574082    3687.1565          584 
   48800   0.17961739   -7.5723369    3682.4176          633 
   48900   0.18022741   -7.5779124    3684.7996          652 
   49000   0.17803709   -7.5730984    3684.7179          627 
   49100   0.18078155   -7.5748883    3686.1226          614 
   49200   0.18141038   -7.5794323    3682.6358          535 
   49300     0.180362   -7.5747566    3684.0195          686 
   49400   0.18242851   -7.5760297     3686.393          583 
   49500   0.17709059   -7.5739458    3683.5983          630 
   49600   0.17678358   -7.5764786    3685.8045          549 
   49700    0.1794517   -7.5740317    3684.7639          562 
   49800   0.18210898    -7.575013    3685.9113          617 
   49900   0.17893272   -7.5801383    3684.3944          610 
   50000   0.18367454    -7.571433    3678.9375          654 
   50100    0.1772885    -7.580824    3690.8089          596 
   50200   0.17996138   -7.5728436     3681.368          607 
   50300   0.17649609   -7.5807899    3686.2316          661 
   50400   0.18191601   -7.5758199    3683.4894          668 
   50500   0.18337538    -7.578418    3682.6199          671 
   50600   0.17782086   -7.5765534     3687.594          649 
   50700   0.18082871   -7.5716508    3684.2318          625 
   50800   0.18017407   -7.5817843    3684.1582          618 
   50900   0.17975559   -7.5740656    3684.9666          579 
   51000   0.18429469   -7.5746065    3684.5431          607 
   51100   0.17658147   -7.5782738    3687.5814          606 
   51200   0.17803999   -7.5719555     3681.955          645 
   51300   0.18358314   -7.5839301    3688.5557          615 
   51400   0.17845491   -7.5730576    3680.1457          671 
   51500    0.1759101   -7.5815711    3685.2493          647 
   51600   0.18250579    -7.581191    3685.7994          671 
   51700   0.17639832   -7.5718049    3682.3758          652 
   51800   0.17443971   -7.5792282    3686.2961          674 
   51900   0.18199345   -7.5753167    3683.4865          631 
   52000   0.17915349   -7.5750183    3685.1269          564 
   52100   0.17947403   -7.5761419    3683.7651          558 
   52200   0.18047979   -7.5773911    3683.6466          570 
   52300   0.18452958   -7.5741997    3682.2832          625 
   52400   0.17736863   -7.5777418    3684.9692          621 
   52500   0.17971569   -7.5759284    3683.8194          653 
   52600   0.18326555   -7.5744446    3685.8749          700 
   52700   0.18332235   -7.5779649    3680.8466          620 
   52800   0.17895569   -7.5816303    3687.7376          592 
   52900   0.18293065   -7.5655312    3684.0844          661 
   53000   0.18409723   -7.5810943    3686.1876          673 
   53100   0.17564743   -7.5713316    3683.3482          649 
   53200   0.18526606   -7.5765981    3685.6001          621 
   53300    0.1822589   -7.5774131    3684.8936          654 
   53400   0.17961321   -7.5759779    3682.5618          657 
   53500   0.18061938   -7.5789453    3685.1825          607 
   53600   0.18189681   -7.5748289    3683.8673          606 
   53700   0.17701354   -7.5788817     3684.066          656 
   53800   0.17938539   -7.5748915    3683.5218          592 
   53900   0.18060576   -7.5781455    3684.7609          584 
   54000   0.18274161   -7.5765671    3684.1163          539 
   54100   0.17829982   -7.5801978    3683.5492          710 
   54200   0.17889971   -7.5770498     3683.401          617 
   54300   0.17757211   -7.5771883    3686.3623          621 
   54400   0.18219457   -7.5714715    3683.5787          588 
   54500   0.17954951   -7.5746953    3683.1717          640 
   54600   0.17888939   -7.5822605    3686.2083          560 
   54700   0.18070466   -7.5719553    3684.1448          505 
   54800   0.17767494   -7.5757911    3686.5499          600 
   54900   0.17981262   -7.5790825    3684.2302          641 
   55000   0.17584738   -7.5746836    3680.7411          627 
   55100   0.18152948   -7.5831246      3686.36          589 
   55200    0.1769877   -7.5698595    3682.5065          619 
   55300   0.18299122   -7.5812103    3685.3299          632 
   55400    0.1760851    -7.576938     3684.533          632 
   55500   0.18157028   -7.5726803    3682.4616          633 
   55600   0.18378522    -7.582446    3684.9374          660 
   55700   0.17888689   -7.5776097    3680.7578          712 
   55800   0.18243706   -7.5822744    3686.4733          626 
   55900   0.17901713   -7.5718943    3679.5684          682 
   56000   0.18200975   -7.5863383    3686.1484          695 
   56100   0.18063387    -7.570548    3683.4693          653 
   56200   0.17858479   -7.5768425    3684.3253          629 
   56300   0.17715862   -7.5791127    3685.6457          623 
   56400   0.18041824   -7.5720228    3684.1845          577 
   56500   0.17866745   -7.5731988    3685.7813          538 
   56600   0.17878533   -7.5818881    3683.7073          628 
   56700   0.18092276   -7.5763356    3683.9204          626 
   56800   0.18234501   -7.5727782    3688.3621          626 
   56900    0.1790026   -7.5753445    3682.9183          583 
   57000   0.17804289   -7.5792845    3684.1422          624 
   57100   0.18339333   -7.5784483     3686.538          633 
   57200   0.17876356   -7.5721341    3681.2976          671 
   57300    0.1784098   -7.5828551    3686.6327          616 
   57400   0.18226839   -7.5752901     3682.918          648 
   57500   0.18225702    -7.577143    3683.5418          622 
   57600   0.17776173   -7.5804749    3686.4414          673 
   57700   0.18058665   -7.5706244    3681.2086          636 
   57800   0.18191438   -7.5801164    3688.5131          665 
   57900   0.17898811   -7.5746528    3680.9991          679 
   58000   0.17690187   -7.5783832    3685.8153          554 
   58100   0.18003473   -7.5747322    3684.8357          603 
   58200   0.17496283   -7.5768649    3683.9282          560 
   58300   0.17846913   -7.5780239    3684.4781          620 
   58400   0.18021096    -7.572816    3683.8154          674 
   58500   0.18116189   -7.5783225    3685.9496          601 
   58600   0.18005297   -7.5764765    3681.7606          653 
   58700    0.1789319   -7.5761069    3686.7914          596 
   58800   0.18136346   -7.5727281    3684.3428          672 
   58900   0.18097404   -7.5791217    3684.8787          701 
   59000   0.17844713   -7.5804032    3685.1081          637 
   59100   0.18075389   -7.5774639    3681.4951          682 
   59200   0.18186576   -7.5768724    3686.7376          660 
   59300   0.18035522   -7.5776208    3681.6832          603 
   59400   0.17997427   -7.5809412    3684.5282          620 
   59500   0.18444862   -7.5759678    3684.2152          593 
   59600   0.18233236   -7.5703082    3683.0736          591 
   59700   0.17947261   -7.5823971    3687.6281          578 
   59800   0.18048896   -7.5750753    3678.8996          590 
   59900   0.18269428   -7.5839547    3688.3881          693 
   60000    0.1790266   -7.5735214      3678.76          695 
   60100   0.17985692   -7.5816947    3687.7684          593 
   60200   0.18212327   -7.5720659    3683.6126          683 
   60300   0.17682965   -7.5757129     3684.238          572 
   60400   0.18147618   -7.5793302    3684.0784          665 
   60500   0.18287876    -7.573613    3683.7112          670 
   60600    0.1752574   -7.5750093    3684.1007          623 
   60700   0.18085576    -7.578878    3682.6369          642 
   60800   0.17927447   -7.5736215    3684.9384          546 
   60900     0.182042   -7.5808596    3684.6686          605 
   61000   0.18114994   -7.5794585     3681.688          558 
   61100   0.17840566   -7.5753701    3685.3388          636 
   61200    0.1807048    -7.578173    3686.8604          661 
   61300   0.18127865   -7.5766524    3681.7021          569 
   61400   0.18133156   -7.5857988    3683.4622          612 
   61500   0.18076138   -7.5813397    3680.6732          567 
   61600   0.17954403   -7.5786364     3685.085          686 
   61700    0.1799777   -7.5786315    3685.8367          717 
   61800   0.17995508   -7.5739793    3680.1957          573 
   61900   0.17772435   -7.5874985    3687.2914          576 
   62000   0.17801586   -7.5715628    3680.8782          656 
   62100   0.18110817   -7.5814671    3687.2677          665 
   62200   0.18176512   -7.5808033    3682.7317          633 
   62300   0.17801071   -7.5812147     3681.525          545 
   62400   0.18495266   -7.5824126    3684.5261          654 
   62500    0.1796758   -7.5752421    3679.7406          633 
   62600    0.1803032   -7.5875697    3687.0748          637 
   62700    0.1799197   -7.5733924    3683.2899          663 
   62800   0.17904614   -7.5772296     3681.923          625 
   62900   0.17649562   -7.5857915    3685.2208          639 
   63000   0.18088268   -7.5753234     3679.794          677 
   63100   0.18037576    -7.583119    3686.8509          611 
   63200   0.17753248   -7.5805585    3681.7506          689 
   63300   0.18236072   -7.5772977    3681.5898          687 
   63400   0.18013872   -7.5800319    3686.9793          652 
   63500   0.17801682   -7.5758316    3680.8392          662 
   63600   0.18003925   -7.5879316    3684.3611          711 
   63700   0.17993243   -7.5779626    3680.7025          683 
   63800   0.18035274   -7.5792425    3685.8999          646 
   63900   0.17900121   -7.5828525     3680.189          648 
   64000   0.17827963    -7.581568    3682.8824          692 
   64100   0.17929225    -7.575931    3682.6525          718 
   64200   0.18169812   -7.5798333    3685.8147          694 
   64300   0.18226812   -7.5741002    3684.0852          716 
   64400   0.18278369   -7.5817779    3682.7961          656 
   64500   0.17783424   -7.5828796    3684.1219          687 
   64600   0.18404706   -7.5800808    3680.7574          727 
   64700   0.18351547   -7.5812713     3685.853          741 
   64800   0.18259666   -7.5744301    3684.4626          733 
   64900   0.18056815   -7.5791235    3682.4515          655 
   65000   0.17734577   -7.5806771    3682.7304          704 
   65100   0.18120565   -7.5777363    3684.9928          765 
   65200   0.17875218   -7.5768845    3683.1089          736 
   65300   0.17858867   -7.5843799    3683.0735          702 
   65400   0.17477761   -7.5784192    3681.8889          748 
   65500   0.17849108   -7.5781164    3687.2109          736 
   65600   0.17674901   -7.5750443    3681.4673          736 
   65700   0.17896764   -7.5821581    3685.0026          793 
   65800   0.17958189   -7.5749153    3682.0044          726 
   65900   0.17836504   -7.5849588    3686.0618          682 
   66000   0.18244502   -7.5786167    3679.6181          753 
   66100   0.18222662   -7.5785323    3685.6556          695 
   66200   0.18238817   -7.5775846    3684.0764          706 
   66300   0.18070511   -7.5798097     3682.243          721 
   66400   0.17627559   -7.5820662    3685.6706          709 
   66500   0.17483405   -7.5767714     3681.917          719 
   66600   0.18198111   -7.5779754    3684.1522          814 
   66700   0.18089582   -7.5798779    3683.9427          762 
   66800   0.17739204   -7.5802565    3682.7158          717 
   66900   0.18202138   -7.5797078    3683.5049          688 
   67000   0.18017868   -7.5768183    3684.8669          670 
   67100   0.17885149   -7.5833832    3682.8766          782 
   67200   0.18032623   -7.5844892    3684.6358          706 
   67300   0.18405749   -7.5760251    3680.1925          711 
   67400   0.18597347   -7.5910448     3686.176          761 
   67500   0.18146225   -7.5771875    3677.1967          710 
   67600   0.17970815   -7.5850002    3688.0486          700 
   67700    0.1811715   -7.5725982    3682.2311          743 
   67800   0.18115944   -7.5824615    3684.7773          698 
   67900   0.17995084   -7.5833475    3681.6852          713 
   68000   0.17630413   -7.5763034    3683.3294          705 
   68100   0.17919259   -7.5812389    3686.2582          707 
   68200   0.17656307   -7.5802182    3680.1497          731 
   68300   0.17803534   -7.5844761    3682.9975          715 
   68400   0.17721567    -7.579607    3683.7293          716 
   68500   0.18024042   -7.5768539     3684.085          706 
   68600    0.1786828    -7.585104    3682.5788          713 
   68700   0.17707742   -7.5803492    3683.0037          768 
   68800   0.18008384   -7.5809507    3684.6521          784 
   68900   0.17727119   -7.5821544    3681.6053          751 
   69000   0.17769802    -7.585987    3681.6986          746 
   69100   0.18004321    -7.585557    3685.0477          722 
   69200   0.18350023   -7.5763531    3678.6066          756 
   69300   0.17673384   -7.5839255     3688.595          785 
   69400    0.1792641   -7.5856473    3678.8293          805 
   69500   0.18005389   -7.5859032    3682.4103          735 
   69600   0.18307691    -7.585624    3684.0974          785 
   69700   0.17797917   -7.5784094    3681.5642          741 
   69800   0.17908748   -7.5890081    3683.4221          771 
   69900   0.18120639   -7.5798321    3681.3764          718 
   70000   0.18337752   -7.5825907    3681.4617          729 
   70100   0.17844333   -7.5940234    3685.9506          688 
   70200    0.1807245   -7.5739754     3676.079          769 
   70300   0.17962789   -7.5908038    3688.0253          749 
   70400    0.1801308   -7.5776092    3682.3186          785 
   70500   0.17973025   -7.5851013    3681.6031          712 
   70600   0.17954364   -7.5898192    3684.7972          735 
   70700   0.17743598   -7.5764876    3678.1865          751 
   70800    0.1854748   -7.5949949    3686.0712          770 
   70900   0.17965432   -7.5830163    3677.9164          743 
   71000   0.17655942   -7.5933531    3681.4684          807 
   71100   0.17845258   -7.5832452    3680.0688          798 
   71200   0.18013121   -7.5864203    3683.4142          771 
   71300   0.17692892   -7.5873076    3683.3041          804 
   71400   0.18198019   -7.5806119    3678.6963          784 
   71500   0.17977616   -7.5863661    3687.1469          826 
   71600   0.17675694    -7.583163    3679.9066          813 
   71700   0.18094584   -7.5871367    3683.4057          805 
   71800   0.18602205    -7.580147    3681.9481          764 
   71900   0.18093384   -7.5856001    3682.7218          766 
   72000   0.18015207   -7.5873172    3682.9381          735 
   72100   0.17682804   -7.5848652    3679.9608          753 
   72200   0.17849742   -7.5938493    3682.3629          733 
   72300   0.18046055   -7.5835743    3680.7459          719 
   72400   0.18231179    -7.582343    3680.2439          768 
   72500   0.17965006   -7.5957254    3687.4223          772 
   72600   0.18136125   -7.5816408    3674.2439          783 
   72700   0.17886944    -7.590092    3686.1944          745 
   72800   0.18351054   -7.5844426    3679.9479          773 
   72900   0.17911776    -7.587155    3679.3237          774 
   73000   0.18400703   -7.5908179    3681.5991          712 
   73100   0.17984385   -7.5852186    3681.8205          718 
   73200   0.18075625   -7.5825225    3683.8966          754 
   73300   0.17823667   -7.5848946     3680.547          750 
   73400   0.17933257    -7.590137    3684.0208          609 
   73500    0.1844364    -7.581325     3677.255          751 
   73600    0.1782609   -7.5901627    3685.3552          800 
   73700   0.18268747   -7.5873305    3680.5982          766 
   73800   0.18115526   -7.5830603    3680.7588          767 
   73900   0.17805758   -7.5937154    3683.2145          724 
   74000   0.18030173   -7.5797644    3674.7893          752 
   74100   0.18118038   -7.5945315    3689.4236          798 
   74200   0.18023294   -7.5841595    3678.1108          740 
   74300   0.17879183   -7.5870119    3680.3398          744 
   74400   0.18339259   -7.5847303    3683.7766          821 
   74500   0.17991637   -7.5861807    3681.3647          744 
   74600   0.17980258   -7.5851232    3679.8218          752 
   74700   0.18011231    -7.586798    3684.7446          682 
   74800    0.1815858   -7.5822198    3679.8858          694 
   74900   0.18027237   -7.5909476    3681.4744          738 
   75000   0.17426955    -7.591298    3681.4317          775 
   75100   0.17796372   -7.5837683     3681.387          770 
   75200    0.1806398   -7.5886367    3683.6861          746 
   75300   0.17695089   -7.5853132    3678.5087          724 
   75400   0.18157683   -7.5924873    3684.9501          777 
   75500   0.18429003   -7.5824499    3678.7342          790 
   75600   0.18558643   -7.5840688    3681.6994          767 
   75700   0.17853655   -7.5892241    3683.3107          824 
   75800    0.1761343   -7.5827838    3680.8475          780 
   75900   0.17983425   -7.5863434    3684.6501          757 
   76000   0.18211682    -7.582542    3682.5568          776 
   76100   0.17756727   -7.5848015    3680.3337          763 
   76200   0.17859568   -7.5876165    3683.6679          758 
   76300    0.1742691   -7.5864336    3681.4599          787 
   76400   0.18089597   -7.5876819    3682.5201          741 
   76500   0.18208215   -7.5843418    3680.3348          729 
   76600   0.17823721   -7.5879782    3682.2815          772 
   76700   0.17755246    -7.591944    3678.7922          782 
   76800   0.18176504   -7.5878228    3682.5674          753 
   76900   0.17995069   -7.5848244    3683.6878          763 
   77000   0.18123572   -7.5856507    3676.3595          738 
   77100   0.17827856   -7.5954288    3685.8486          760 
   77200   0.18050765   -7.5785403    3678.6351          726 
   77300   0.18082493   -7.5920945    3682.1818          745 
   77400   0.17947701   -7.5861921     3681.437          843 
   77500   0.17993454   -7.5835921     3681.857          816 
   77600   0.17813913   -7.5920544    3685.4588          747 
   77700   0.17555968   -7.5786897    3679.2449          775 
   77800   0.17877841   -7.5906984    3684.9844          757 
   77900   0.17994398       -7.582    3679.0753          794 
   78000   0.18309816   -7.5884469    3680.6622          752 
   78100   0.17920857   -7.5930424    3682.4082          784 
   78200   0.18535202   -7.5838433    3677.8389          695 
   78300   0.17990116   -7.5917084    3686.7542          782 
   78400   0.18011493   -7.5807672    3676.9588          800 
   78500   0.18156592   -7.5878775    3683.7741          794 
   78600    0.1777338   -7.5868838    3681.4006          822 
   78700   0.17702688   -7.5878405    3679.5307          763 
   78800   0.18314246    -7.593757     3684.871          735 
   78900   0.18154523   -7.5782033    3676.7447          777 
   79000   0.18134879   -7.5895272    3686.7213          805 
   79100   0.17879923   -7.5849958    3679.9768          763 
   79200    0.1819179   -7.5840899    3681.4706          765 
   79300   0.18191882   -7.5868733    3681.9133          636 
   79400   0.18144893   -7.5862219    3680.9316          765 
   79500   0.17710062   -7.5881877    3679.7259          757 
   79600   0.17790855   -7.5916088    3682.4476          752 
   79700   0.18257478   -7.5841715    3679.5548          756 
   79800   0.18204895   -7.5905565    3682.5946          828 
   79900   0.17977939   -7.5848387    3679.3035          778 
   80000   0.17661562   -7.5935744     3682.812          755 
   80100   0.18104356   -7.5834053    3680.3347          789 
   80200   0.18095341   -7.5874782    3681.4009          769 
   80300   0.17556461   -7.5895808    3682.0026          789 
   80400   0.18251242   -7.5832326    3678.0842          740 
   80500   0.18159174   -7.5944907    3686.3239          729 
   80600   0.18033913   -7.5828519    3674.1059          736 
   80700   0.17958777    -7.599073    3686.1466          735 
   80800   0.18153254   -7.5825599    3677.9818          778 
   80900   0.17741348    -7.586773    3684.9592          769 
   81000   0.17668263   -7.5866301    3680.3525          729 
   81100   0.18181994   -7.5905825    3680.4962          773 
   81200    0.1811633   -7.5852337    3684.3309          758 
   81300   0.17686969   -7.5854971     3680.094          800 
   81400   0.18111441   -7.5913996    3683.6614          735 
   81500   0.17998544   -7.5822327    3681.0379          757 
   81600   0.17797248   -7.5920818    3681.0564          703 
   81700   0.18054792   -7.5893917    3682.3521          742 
   81800   0.17587623   -7.5802144    3681.2293          811 
   81900   0.18115646   -7.5916649    3685.5067          744 
   82000   0.18283435   -7.5827787     3678.934          820 
   82100   0.17917564    -7.591592    3682.6142          776 
   82200   0.18034973   -7.5887435    3681.9473          777 
   82300   0.17940841   -7.5783578    3679.6555          774 
   82400    0.1789553   -7.5962367    3683.4564          776 
   82500   0.17988479   -7.5841797    3677.8714          742 
   82600   0.18144929   -7.5905829    3682.4933          740 
   82700   0.17600601   -7.5917113     3680.089          768 
   82800   0.17971308   -7.5845188    3679.2292          764 
   82900   0.18336173   -7.5910513    3684.2261          746 
   83000   0.17989291   -7.5841664     3677.186          778 
   83100   0.17812892   -7.5908365    3683.8798          756 
   83200   0.17948313   -7.5852537    3684.1154          779 
   83300   0.18122069   -7.5731585    3679.4007          769 
   83400    0.1803009   -7.5930181    3686.0187          773 
   83500   0.17848597   -7.5813923    3676.4637          741 
   83600   0.18103273    -7.585828    3686.1104          763 
   83700   0.17880039   -7.5797599    3681.9244          736 
   83800     0.179846   -7.5885409    3682.6269          742 
   83900   0.17727476   -7.5891774      3678.93          763 
   84000   0.17967108   -7.5840368    3682.4087          747 
   84100   0.18331608   -7.5883641    3682.2937          743 
   84200   0.17810676   -7.5877334    3679.5296          768 
   84300   0.17812163   -7.5847863    3684.6599          767 
   84400    0.1822401   -7.5832162    3679.5906          731 
   84500   0.18036872   -7.5895827    3680.7422          770 
   84600   0.18136279   -7.5896949    3683.5142          714 
   84700   0.18150342   -7.5829506    3678.3106          730 
   84800   0.17476852   -7.5960404    3685.2116          783 
   84900   0.17838296   -7.5823731    3678.7595          836 
   85000   0.17711995   -7.5891519    3683.5655          793 
   85100   0.18235011   -7.5837743    3681.4868          764 
   85200   0.17861589   -7.5827809    3683.3588          749 
   85300   0.18007433   -7.5885826     3680.232          762 
   85400   0.18101449   -7.5865231    3681.7666          789 
   85500    0.1844818   -7.5827803    3682.6709          795 
   85600   0.18106249   -7.5889618       3680.7          798 
   85700   0.17915969   -7.5859804    3680.1963          768 
   85800   0.17659372   -7.5835116     3684.711          803 
   85900   0.17933959   -7.5840187    3680.8776          784 
   86000   0.17680102   -7.5905008    3680.2244          722 
   86100   0.17880856    -7.587771    3681.0377          727 
   86200   0.18304916   -7.5861522    3680.8389          783 
   86300   0.17679062   -7.5894003    3683.0904          810 
   86400    0.1776863   -7.5904542    3677.0692          785 
   86500   0.17862787   -7.5883362    3683.6385          771 
   86600   0.18155083   -7.5846028    3681.8079          750 
   86700   0.17568812   -7.5831403    3679.2002          768 
   86800    0.1838628   -7.5941639    3685.5998          764 
   86900   0.17986464   -7.5814655    3676.1997          723 
   87000   0.18096101   -7.5927956      3683.77          728 
   87100   0.18069612   -7.5814574      3679.99          740 
   87200   0.17811996   -7.5860441    3683.1478          819 
   87300   0.17901023     -7.59336    3682.6919          805 
   87400   0.18068875   -7.5806149     3674.192          805 
   87500   0.17876809   -7.5950902    3689.6753          789 
   87600   0.18288655    -7.577438    3677.2886          765 
   87700   0.17955263   -7.5898602    3681.8914          800 
   87800   0.18100325   -7.5865157    3682.8296          752 
   87900   0.18122818   -7.5852661    3682.8235          730 
   88000   0.18110816   -7.5878703    3680.7949          777 
   88100   0.17913482   -7.5855668    3681.0123          748 
   88200   0.18125224   -7.5921348    3683.0461          761 
   88300   0.18125041   -7.5802083    3678.8991          723 
   88400   0.17906658   -7.5909413    3686.0927          806 
   88500   0.17962996   -7.5845546    3679.1129          755 
   88600   0.18218708    -7.587165    3685.7256          764 
   88700   0.18477428   -7.5847756     3681.105          799 
   88800   0.18055265   -7.5895042    3679.6176          759 
   88900   0.18038274   -7.5876771    3683.3832          815 
   89000   0.17820385   -7.5799637    3682.9047          747 
   89100   0.17874262   -7.5866996    3682.4476          797 
   89200   0.17662041   -7.5857989    3682.3062          790 
   89300   0.18237383    -7.585709    3681.8579          774 
   89400   0.17919118   -7.5831125    3681.4822          798 
   89500   0.17766066   -7.5880989    3681.5879          774 
   89600   0.17880198   -7.5874675    3682.2252          676 
   89700   0.18113755   -7.5850418     3680.458          744 
   89800   0.18526186      -7.5878    3683.9513          752 
   89900   0.17869193   -7.5822687    3679.7425          798 
   90000   0.17792379   -7.5964665    3685.7899          764 
   90100   0.17724563   -7.5840832    3674.6312          719 
   90200    0.1799428   -7.5902867     3683.495          741 
   90300   0.18175163   -7.5872507    3681.3864          796 
   90400   0.17698517    -7.586035    3680.0196          739 
   90500   0.18502652   -7.5885717    3681.7544          794 
   90600   0.18364284   -7.5815718    3681.4976          721 
   90700   0.17851105   -7.5897001    3683.8325          753 
   90800   0.18070077   -7.5799024    3681.0555          728 
   90900   0.18035543   -7.5885492    3681.4207          760 
   91000   0.17925966   -7.5914785    3680.8221          783 
   91100   0.17927555   -7.5797259    3680.1137          784 
   91200   0.17949935   -7.5911398    3685.8246          787 
   91300   0.18483729   -7.5843971    3679.2959          773 
   91400   0.17972481   -7.5795784    3681.7362          765 
   91500    0.1790933   -7.5961191    3686.2995          796 
   91600   0.18050331   -7.5804724    3675.7004          718 
   91700   0.18607196   -7.5928113    3685.7266          728 
   91800   0.18085603   -7.5835097     3678.163          763 
   91900   0.17835876   -7.5918973    3682.1505          749 
   92000    0.1814982   -7.5860133    3681.4201          793 
   92100    0.1801511    -7.583735    3680.1926          742 
   92200   0.17744379   -7.5962072    3682.0608          750 
   92300   0.18082138    -7.584128    3677.8171          778 
   92400   0.18176906   -7.5866716    3681.8196          790 
   92500   0.18170305   -7.5851675    3680.8263          775 
   92600   0.17736301   -7.5875649    3681.2151          775 
   92700   0.17975929   -7.5863046     3685.605          773 
   92800   0.17937433    -7.586484    3680.9894          769 
   92900   0.18217805   -7.5844167    3679.0222          777 
   93000    0.1831478   -7.5871697    3685.8112          796 
   93100   0.17791842   -7.5796105    3680.2206          791 
   93200   0.18182839   -7.5932003    3682.5987          749 
   93300   0.17924796   -7.5857056       3678.9          672 
   93400    0.1763605   -7.5846064     3682.976          778 
   93500   0.18041375   -7.5842256    3684.0736          812 
   93600   0.17676737   -7.5848114    3680.5994          747 
   93700    0.1798645   -7.5882345    3681.7952          794 
   93800   0.18393673   -7.5836063     3682.133          789 
   93900    0.1822365    -7.588349    3681.2373          787 
   94000   0.18416556   -7.5910076    3678.9568          798 
   94100   0.18174516   -7.5882484     3682.561          756 
   94200   0.18279099   -7.5768777    3677.0291          764 
   94300   0.18122359   -7.5986229    3688.7268          770 
   94400   0.17842322   -7.5802581    3674.3889          800 
   94500   0.17823354   -7.5940298     3682.282          783 
   94600   0.17739057   -7.5855232    3683.1799          751 
   94700   0.18152874   -7.5833816    3680.7144          773 
   94800   0.17975577    -7.588213    3684.3921          661 
   94900   0.17860187   -7.5854171    3678.5575          803 
   95000   0.18096099   -7.5870535    3684.3437          782 
   95100    0.1836464   -7.5819129    3683.1478          773 
   95200   0.18070895   -7.5841339    3680.0304          760 
   95300   0.18194492   -7.5892606    3682.5532          768 
   95400   0.18356176   -7.5870889    3681.4599          765 
   95500    0.1755649   -7.5861191    3682.3324          790 
   95600   0.17935428   -7.5872821    3682.1565          774 
   95700    0.1810269   -7.5820603    3683.3504          805 
   95800   0.17892463   -7.5871636     3683.044          791 
   95900   0.17848031   -7.5842377    3680.5164          743 
   96000   0.17594852   -7.5878925    3680.2707          761 
   96100   0.18126139   -7.5895825     3682.555          774 
   96200   0.18227568   -7.5822097    3680.6728          802 
   96300   0.17968174   -7.5888489    3682.8866          785 
   96400    0.1785213   -7.5902671    3680.3537          806 
   96500   0.18069104   -7.5854337    3680.9104          747 
   96600   0.17804092   -7.5873442     3684.505          799 
   96700   0.18127374   -7.5805038    3680.5024          784 
   96800   0.18007876   -7.5884467    3682.6804          772 
   96900   0.18041805   -7.5918969    3680.3068          815 
   97000   0.18210996      -7.5837    3680.4837          789 
   97100   0.18311644   -7.5905197    3683.2524          807 
   97200   0.17658099   -7.5819121    3680.7392          834 
   97300    0.1778415   -7.5915014    3683.2716          800 
   97400    0.1803558   -7.5901169    3679.5713          717 
   97500   0.17911215   -7.5833485    3684.0578          743 
   97600   0.17964418   -7.5875013     3681.027          777 
   97700   0.17920987   -7.5913136    3680.9253          791 
   97800    0.1792416   -7.5808249    3682.8819          802 
   97900   0.18040508   -7.5844736    3681.7906          760 
   98000   0.17913888   -7.5868128    3681.3969          774 
   98100   0.18499381   -7.5912692    3682.8406          700 
   98200   0.18008784   -7.5787184    3677.7274          714 
   98300     0.179736   -7.5915014    3685.5116          783 
   98400   0.17949583   -7.5861314    3678.2935          779 
   98500   0.17822237   -7.5897492    3681.7281          767 
   98600   0.18003715   -7.5856046    3681.8083          839 
   98700   0.18392281   -7.5875971    3679.7984          774 
   98800   0.17492214    -7.589873    3681.3132          807 
   98900   0.17707486   -7.5848012    3681.0199          824 
   99000   0.18050587    -7.588588     3682.444          821 
   99100   0.18248355   -7.5831512    3680.1214          877 
   99200   0.17925212   -7.5895402    3682.7687          792 
   99300   0.17981876   -7.5888146    3680.6674          775 
   99400   0.17691762    -7.582769     3680.568          786 
   99500   0.18366764   -7.5912376    3687.2246          814 
   99600   0.18168314   -7.5761229    3676.5644          788 
   99700    0.1794662   -7.5927468    3684.7282          711 
   99800   0.18142435    -7.581922    3679.8535          800 
   99900    0.1783798   -7.5805886    3685.4918          763 
  100000   0.17728572   -7.5822793    3681.9146          805 
  100100   0.17961088   -7.5905921    3680.7404          767 
  100200   0.18125711   -7.5858967    3682.8957          792 
  100300    0.1802997   -7.5851575    3679.5507          785 
  100400   0.18003213   -7.5928188    3684.4508          742 
  100500    0.1805294   -7.5833076    3680.7116          804 
  100600   0.17806479   -7.5902879    3681.2872          801 
  100700   0.18009754   -7.5906922    3680.9238          791 
  100800   0.17944044    -7.581995    3680.9312          790 
  100900   0.18428165   -7.5929355    3682.3958          800 
  101000   0.18238945   -7.5893839    3678.1745          762 
  101100   0.17930834   -7.5858117    3679.0677          766 
  101200   0.17761874   -7.5871955    3685.9166          803 
  101300    0.1773184   -7.5835089    3676.1355          797 
  101400   0.17990444   -7.5932746    3686.6231          747 
  101500   0.17913107   -7.5777742     3677.856          810 
  101600   0.17995376   -7.5920623    3682.5291          814 
  101700   0.17667139   -7.5888145    3682.5967          850 
  101800   0.18039455   -7.5805169    3680.0175          837 
  101900   0.18567176   -7.5928677    3682.0375          784 
  102000   0.17887551   -7.5890919    3681.7731          875 
  102100   0.18290267   -7.5844715    3681.3579          873 
  102200   0.18049654   -7.5936951    3681.4399          850 
  102300   0.17877283   -7.5882259    3681.1477          804 
  102400   0.18478343   -7.5890736    3679.3885          757 
  102500   0.18066962   -7.5913067    3682.9598          852 
  102600   0.17786846   -7.5839327    3676.7241          826 
  102700    0.1777679   -7.5978928    3687.1688          885 
  102800   0.18031806   -7.5789831    3676.8344          874 
  102900   0.17838964   -7.5973947    3684.3684          794 
  103000    0.1769017   -7.5858392    3679.7357          809 
  103100    0.1808089   -7.5896498     3680.799          902 
  103200   0.18312551   -7.5893294    3680.5132          902 
  103300   0.17793746   -7.5898582    3679.8746          927 
  103400     0.182755    -7.591902     3681.161          881 
  103500   0.18343612   -7.5896711    3680.0862          861 
  103600    0.1791909   -7.5942828    3680.1597          919 
  103700   0.17921808   -7.5893542    3679.5267          887 
  103800   0.17930535   -7.5824342    3683.2174          918 
  103900   0.18017094    -7.588862    3680.0642          910 
  104000   0.17744219   -7.5917063    3680.9912          888 
Loop time of 178.136 on 24 procs for 100000 steps with 4000 atoms

Performance: 97004.304 tau/day, 561.368 timesteps/s
99.6% CPU use with 24 MPI tasks x no OpenMP threads

MPI task timing breakdown:
Section |  min time  |  avg time  |  max time  |%varavg| %total
---------------------------------------------------------------
Pair    | 22.529     | 23.509     | 24.411     |   8.7 | 13.20
Neigh   | 0.93173    | 0.97424    | 1.0094     |   1.7 |  0.55
Comm    | 7.1704     | 8.3858     | 9.69       |  18.5 |  4.71
Output  | 6.6067     | 6.6079     | 6.6212     |   0.1 |  3.71
Modify  | 133.83     | 135.2      | 136.96     |   7.8 | 75.89
Other   |            | 3.464      |            |       |  1.94

Nlocal:        166.667 ave         174 max         157 min
Histogram: 1 0 0 2 8 6 0 2 4 1
Nghost:        2265.12 ave        2282 max        2247 min
Histogram: 1 2 0 4 4 2 7 3 0 1
Neighs:        21024.9 ave       22017 max       19590 min
Histogram: 1 0 0 2 6 3 6 2 1 3
FullNghs:      42049.4 ave       43936 max       39490 min
Histogram: 1 0 0 1 8 6 1 2 2 3

Total # of neighbors = 1009185
Ave neighs/atom = 252.29625
Neighbor list builds = 2201
Dangerous builds = 0

#clear
#
#next RN
#
#jump SELF
Total wall time: 0:02:59
