
units lj                  # Use reduced LJ style units
atom_style atomic         # Uncharged point particles
atom_modify map hash      # Needed for indexing of clusters etc
                          # Used to be able to find where atoms are in relation to each other.

# Define a lattice with which to populate the simulation cell. With units
# set to 'lj' the second argument to the lattice command is the reduced
# density rho* and the spacings are multiples of that required to acheive
# that density. Also define a simulation cell called 'box' in lattice units
# and fill it with atoms. Here we're creating a box which is ten lattice
# constants in each direction.
lattice fcc 1.0 spacing 1 1 1                 # All equal sizes - gives the right reduced density.
Lattice spacing in x,y,z = 1.5874011 1.5874011 1.5874011

region box block 0 10 0 10 0 10 units lattice # Defines a region, "box", in lattice units
create_box 1 box                              # Creates a simulation box as specified above,
Created orthogonal box = (0.0000000 0.0000000 0.0000000) to (15.874011 15.874011 15.874011)
  2 by 4 by 4 MPI processor grid
                                              # with one type of atom
create_atoms 1 box                            # Creates particles on lattice points
Created 4000 atoms
  using lattice units in orthogonal box = (0.0000000 0.0000000 0.0000000) to (15.874011 15.874011 15.874011)
  create_atoms CPU = 0.001 seconds


# Set the mass of the first (and only) atom type.
mass 1 1.0

# Lennard-Jones interactions between particles, 3.5 sigma cut-off. Apply
# long range tail corrections to energy and pressure and set all coefficients
# to unity since we work in reduced units here. Note that this doesn't shift
# the potential such that it goes to zero at the cutoff. That would require
# pair_modify('shift', 'yes').
pair_style lj/cut  3.5      # non-GPU version
pair_modify tail  yes
pair_coeff 1  1  1.0  1.0   # Intearaction between 1 and 1 set with epsilon = 1 and sigma = 1

write_data data.*
System init for write_data ...
Neighbor list info ...
  update every 1 steps, delay 10 steps, check yes
  max neighbors/atom: 2000, page size: 100000
  master list distance cutoff = 3.8
  ghost atom cutoff = 3.8
  binsize = 1.9, bins = 9 9 9
  1 neighbor lists, perpetual/occasional/extra = 1 0 0
  (1) pair lj/cut, perpetual
      attributes: half, newton on
      pair build: half/bin/atomonly/newton
      stencil: half/bin/3d
      bin: standard

#############################
#   M E L T   S Y S T E M   #
#############################

velocity all create 2.4 6583654 mom yes dist gaussian # Assign velocities
                                                    # Temperature 2.4, random number seed, zero linear momentum
						                                                        # Gaussian distribution

timestep 0.002   # simulation timestep
thermo 100       # output thermodynamic data every 100 steps

# Define a fix  in this case with index 1 applied to all
# particles in the simulation. This fix is for simulations
# in the anisotropic NPT ensemble. Note that we use the MTK
# correction.
fix 1 all npt temp 2.4 2.4 0.1 iso 5.68 5.68 0.5 mtk yes tchain 5 pchain 5 # Use NPT ensemble
                                                                         # Set temperature and pressure and damping
                                                                         # Numbers of thermostats in chain and in barostat
run 1000         # run for 10000 steps
Per MPI rank memory allocation (min/avg/max) = 3.660 | 3.660 | 3.660 Mbytes
Step Temp E_pair E_mol TotEng Press Volume 
       0          2.4   -8.3859253            0   -4.7868253   -2.2405722         4000 
     100    1.2691967   -6.5422289            0   -4.6389098    5.3378653    4090.7551 
     200    1.4787625   -6.3158233            0   -4.0982341    6.0374862    4137.2558 
     300    1.5708342   -6.0123056            0   -3.6566434    5.8269752    4273.6084 
     400    1.6935755   -5.7191311            0    -3.179403    5.9540602    4395.1747 
     500    1.7875886   -5.4095267            0   -2.7288141    6.0322401    4536.9038 
     600    1.8873111   -5.1521313            0   -2.3218724    5.7297832     4702.884 
     700    2.0258918   -4.9144312            0   -1.8763532    5.9082203    4824.8495 
     800    2.1522544   -4.7292823            0   -1.5017078    5.7781683    4963.9277 
     900     2.239714   -4.5446635            0   -1.1859323    5.7477122    5090.6319 
    1000    2.3765823   -4.4738755            0  -0.90989327    5.6796077     5154.488 
Loop time of 0.257381 on 32 procs for 1000 steps with 4000 atoms

Performance: 671379.451 tau/day, 3885.298 timesteps/s
99.2% CPU use with 32 MPI tasks x no OpenMP threads

MPI task timing breakdown:
Section |  min time  |  avg time  |  max time  |%varavg| %total
---------------------------------------------------------------
Pair    | 0.13463    | 0.13942    | 0.14415    |   0.6 | 54.17
Neigh   | 0.025731   | 0.026491   | 0.027387   |   0.3 | 10.29
Comm    | 0.06276    | 0.069237   | 0.07527    |   1.2 | 26.90
Output  | 0.00019632 | 0.00020202 | 0.00025181 |   0.0 |  0.08
Modify  | 0.018262   | 0.020089   | 0.021742   |   0.7 |  7.81
Other   |            | 0.001945   |            |       |  0.76

Nlocal:        125.000 ave         138 max         116 min
Histogram: 1 2 6 7 6 8 0 1 0 1
Nghost:        1666.91 ave        1703 max        1646 min
Histogram: 3 5 7 4 5 4 1 0 2 1
Neighs:        11088.0 ave       12468 max       10095 min
Histogram: 1 2 5 8 9 2 2 1 1 1

Total # of neighbors = 354817
Ave neighs/atom = 88.704250
Neighbor list builds = 86
Dangerous builds = 20

# Equilibrate just above the melting temperature to avoid step fn in T

fix 1 all npt temp 1.25 1.25 0.1 iso 5.68 5.68 0.5 mtk yes tchain 5 pchain 5
run 1000
Per MPI rank memory allocation (min/avg/max) = 3.661 | 3.661 | 3.661 Mbytes
Step Temp E_pair E_mol TotEng Press Volume 
    1000    2.3765823   -4.4738755            0  -0.90989327    5.6796077     5154.488 
    1100    1.9625951   -4.6989107            0   -1.7557541    5.6812496    4983.8841 
    1200    1.7289901   -4.9599136            0   -2.3670769    5.8142104    4790.1519 
    1300    1.5792657   -5.2249024            0   -2.8565961    5.6289859    4660.4039 
    1400    1.4517319   -5.4215948            0   -3.2445414    5.5197346    4561.4045 
    1500     1.364265   -5.5680033            0   -3.5221174    5.5958139    4483.3542 
    1600    1.3084699   -5.6759595            0   -3.7137453    5.6057769    4426.4503 
    1700    1.2550401   -5.7394736            0   -3.8573841    5.7381181    4381.4433 
    1800    1.2507956   -5.8140506            0   -3.9383263    5.7576039    4349.7766 
    1900    1.2205858   -5.8218536            0   -3.9914327    5.7234503    4347.2659 
    2000    1.2599896   -5.8219529            0    -3.932441    5.7139167    4350.4536 
Loop time of 0.249446 on 32 procs for 1000 steps with 4000 atoms

Performance: 692736.013 tau/day, 4008.889 timesteps/s
99.7% CPU use with 32 MPI tasks x no OpenMP threads

MPI task timing breakdown:
Section |  min time  |  avg time  |  max time  |%varavg| %total
---------------------------------------------------------------
Pair    | 0.13391    | 0.13816    | 0.14478    |   0.6 | 55.39
Neigh   | 0.022612   | 0.023168   | 0.024201   |   0.2 |  9.29
Comm    | 0.05731    | 0.066665   | 0.071507   |   1.2 | 26.73
Output  | 0.00019732 | 0.00020056 | 0.00024143 |   0.0 |  0.08
Modify  | 0.01726    | 0.018998   | 0.021352   |   0.9 |  7.62
Other   |            | 0.002253   |            |       |  0.90

Nlocal:        125.000 ave         130 max         115 min
Histogram: 1 0 0 2 4 3 6 7 4 5
Nghost:        1853.16 ave        1868 max        1832 min
Histogram: 1 0 2 6 2 5 3 6 3 4
Neighs:        13129.4 ave       13744 max       12058 min
Histogram: 1 0 2 3 3 2 5 8 5 3

Total # of neighbors = 420140
Ave neighs/atom = 105.03500
Neighbor list builds = 75
Dangerous builds = 9


# Small amount of linear quench

fix 1 all npt temp 1.25 ${temp} 0.1 iso 5.68 5.68 0.5 mtk yes tchain 5 pchain 5
fix 1 all npt temp 1.25 1.87 0.1 iso 5.68 5.68 0.5 mtk yes tchain 5 pchain 5
run 2000
Per MPI rank memory allocation (min/avg/max) = 3.661 | 3.662 | 3.662 Mbytes
Step Temp E_pair E_mol TotEng Press Volume 
    2000    1.2599896   -5.8219529            0    -3.932441    5.7139167    4350.4536 
    2100    1.2668022   -5.8428819            0   -3.9431536     5.694924    4342.8029 
    2200    1.2692314   -5.7882842            0   -3.8849131    5.6550181    4365.9418 
    2300    1.3374134   -5.7781284            0   -3.7725099    5.7203538    4371.6496 
    2400    1.3466867   -5.7099321            0    -3.690407    5.7322428    4400.9913 
    2500    1.3870093   -5.7001765            0   -3.6201828    5.5957398    4419.3382 
    2600    1.4120518   -5.6348271            0    -3.517279    5.7872383    4433.4909 
    2700    1.4408302   -5.5845868            0   -3.4238817    5.8018375    4459.9847 
    2800    1.4623853    -5.529334            0   -3.3363045     5.725378    4494.0203 
    2900    1.4985006   -5.5047322            0   -3.2575432    5.5312991    4526.1962 
    3000    1.5200385   -5.4577442            0   -3.1782565    5.3879286     4562.496 
    3100    1.5569999   -5.3915543            0   -3.0566383    5.6724062    4571.5859 
    3200    1.6078072   -5.3542363            0   -2.9431285    5.7947443    4579.3722 
    3300    1.6241776   -5.2781398            0   -2.8424825    5.9181291    4610.1939 
    3400    1.6583987   -5.2425258            0   -2.7555495    5.7786117    4642.2658 
    3500    1.6894129   -5.2064666            0   -2.6729808    5.6385007     4673.661 
    3600    1.7304931   -5.1870257            0    -2.591935     5.503913    4705.0349 
    3700    1.7453127   -5.1279475            0   -2.5106329    5.4017871    4744.5541 
    3800    1.7781697   -5.0951316            0   -2.4285439    5.4140283    4763.9771 
    3900    1.8218937   -5.0371198            0   -2.3049625    5.7701734    4765.3768 
    4000    1.8793046   -5.0297067            0   -2.2114545    5.8709236     4761.036 
Loop time of 0.505458 on 32 procs for 2000 steps with 4000 atoms

Performance: 683736.134 tau/day, 3956.806 timesteps/s
99.7% CPU use with 32 MPI tasks x no OpenMP threads

MPI task timing breakdown:
Section |  min time  |  avg time  |  max time  |%varavg| %total
---------------------------------------------------------------
Pair    | 0.26849    | 0.27733    | 0.28305    |   0.7 | 54.87
Neigh   | 0.045023   | 0.046193   | 0.047265   |   0.2 |  9.14
Comm    | 0.12837    | 0.13684    | 0.14874    |   1.3 | 27.07
Output  | 0.00039688 | 0.00040511 | 0.00049883 |   0.0 |  0.08
Modify  | 0.035828   | 0.040049   | 0.044062   |   1.2 |  7.92
Other   |            | 0.004645   |            |       |  0.92

Nlocal:        125.000 ave         132 max         118 min
Histogram: 4 1 4 2 5 5 1 5 2 3
Nghost:        1750.50 ave        1777 max        1730 min
Histogram: 1 3 6 8 3 3 2 2 2 2
Neighs:        11997.0 ave       13156 max       11162 min
Histogram: 3 2 4 9 1 7 4 1 0 1

Total # of neighbors = 383905
Ave neighs/atom = 95.976250
Neighbor list builds = 147
Dangerous builds = 0

#############################
# F R E E Z E  S Y S T E M  #
#############################

# Define solid atoms. This closely follows ten Wolde  Ruiz-Montero and Frenkel  Faraday Discuss  1996  104  93-110
# Compute components of the per-atom q6 vector
compute q6 all orientorder/atom degrees 1 6 components 6 nnn NULL cutoff 1.3 # compute the Q6 parameter.
                                                                             # Use all neighbours within 1.3 unit cell.

# get number of connections
compute coord_number all coord/atom orientorder q6 0.5

# An atom is solid if it has 8 or more connections (of a possible 14)
variable is_solid atom c_coord_number>=8
group solid dynamic all var is_solid    # Must be dynamic to update
dynamic group solid defined

# do clustering
compute cluster solid cluster/atom 1.3 # Create a cluster where all atoms within are solid and max 1.3 units from another member

# define chunks one chunk per cluster
compute clus_chunks solid chunk/atom c_cluster nchunk every compress yes  # Says which atoms are in which chunk

# count the size of each chunk
compute size_chunks solid property/chunk clus_chunks count


# Find the maximum entry in the vector of chunk sizes
variable max_n equal max(c_size_chunks)


# Thermo style which includes this variable
thermo_style custom step temp pe vol v_max_n

thermo ${N}  # Print the thermo information every 100 steps
thermo 100  

# Reset the npt fix at a lower temperature (below freezing)
fix 1  all npt temp  ${temp} ${temp}  0.1  iso  5.68  5.68  0.5  mtk yes tchain  5  pchain  5
fix 1  all npt temp  1.87 ${temp}  0.1  iso  5.68  5.68  0.5  mtk yes tchain  5  pchain  5
fix 1  all npt temp  1.87 1.87  0.1  iso  5.68  5.68  0.5  mtk yes tchain  5  pchain  5

dump dmp2 all dcd ${N} traj_${rand}.dcd
dump dmp2 all dcd 100 traj_${rand}.dcd
dump dmp2 all dcd 100 traj_462431.dcd


# fix rnuntil all halt ${N} v_max_n >= 3980 error soft message no   # Stop when solidified


run 100000 # 5000000  # Run for this many steps
Neighbor list info ...
  update every 1 steps, delay 10 steps, check yes
  max neighbors/atom: 2000, page size: 100000
  master list distance cutoff = 3.8
  ghost atom cutoff = 3.8
  binsize = 1.9, bins = 9 9 9
  4 neighbor lists, perpetual/occasional/extra = 1 3 0
  (1) pair lj/cut, perpetual
      attributes: half, newton on
      pair build: half/bin/atomonly/newton
      stencil: half/bin/3d
      bin: standard
  (2) compute orientorder/atom, occasional
      attributes: full, newton on
      pair build: full/bin/atomonly
      stencil: full/bin/3d
      bin: standard
  (3) compute coord/atom, occasional
      attributes: full, newton on
      pair build: full/bin/atomonly
      stencil: full/bin/3d
      bin: standard
  (4) compute cluster/atom, occasional
      attributes: full, newton on
      pair build: full/bin/atomonly
      stencil: full/bin/3d
      bin: standard
Per MPI rank memory allocation (min/avg/max) = 9.400 | 9.405 | 9.407 Mbytes
Step Temp PotEng Volume v_max_n 
    4000    1.8793046   -5.0297067     4761.036            1 
    4100    1.8868501   -5.0242482    4805.8727            2 
    4200    1.8369515   -4.9055883    4824.7305            1 
    4300    1.8670761   -4.8716147    4836.0008            1 
    4400    1.9046601   -4.9121252    4861.1671            1 
    4500    1.8697715    -4.934188    4815.8693            1 
    4600    1.8188964    -4.959993     4803.321            2 
    4700    1.8657154   -4.9322376    4815.6935            1 
    4800    1.8645035   -4.9330137    4821.3854            1 
    4900    1.8445121   -4.9843775    4824.5653            1 
    5000    1.8622085   -4.9317121     4840.976            1 
    5100    1.9067246   -4.8977494     4820.419            1 
    5200    1.8541142   -4.9485417    4829.9231            1 
    5300    1.8613474    -4.985406    4818.3948            1 
    5400    1.8619847   -4.9731584     4797.474            1 
    5500    1.8808403   -4.9735992    4803.0767            1 
    5600    1.9020354   -4.9795139    4816.5101            1 
    5700    1.8524501   -4.9965746    4814.9268            1 
    5800    1.9016908   -4.9593488    4821.7274            1 
    5900    1.8793423   -4.9329409    4823.7001            2 
    6000    1.8271278   -4.9431233    4830.4534            1 
    6100    1.9010408   -4.9482353    4807.2181            1 
    6200    1.8650832   -4.9825331    4794.0254            1 
    6300    1.8495152    -4.995139    4833.8461       -1e+20 
    6400     1.861773   -4.9621605    4812.1725            2 
    6500    1.8596664   -4.8928171    4809.5986            1 
    6600     1.898374   -4.9319738    4844.2672            1 
    6700    1.8701339   -4.9994205    4828.2961            4 
    6800    1.8880706   -4.9690465    4820.5999            2 
    6900     1.874393   -4.9126461    4845.0694            2 
    7000    1.8726283   -4.9069106    4848.9989            1 
    7100    1.8919225   -4.9602145    4797.5001            3 
    7200     1.840689   -4.9832844    4835.2868            1 
    7300    1.8796447   -4.9683199    4815.9551            1 
    7400    1.9005801   -4.9386143    4828.5851            1 
    7500    1.8667318   -4.9605613     4821.872            1 
    7600    1.8691164   -4.9582533    4816.3231            1 
    7700    1.8611313   -4.9785493    4819.8885            1 
    7800    1.8638527   -4.9504031    4800.4871            1 
    7900    1.8880086   -4.9286711    4833.3399            1 
    8000    1.8487829   -4.9493889    4849.9764            1 
    8100    1.9031888   -4.9492047    4796.8351            2 
    8200    1.8512579   -4.9563405    4808.6773            1 
    8300    1.8489212    -4.967072    4820.5001            1 
    8400    1.9129218   -4.9244946     4795.113            1 
    8500    1.8515915    -4.918517    4850.6958            1 
    8600    1.8512659   -5.0021627    4837.5408            1 
    8700    1.8869662   -4.9365242     4814.725            1 
    8800    1.8703996   -4.9494632    4845.8112            1 
    8900    1.8911295   -4.9338019    4852.0187       -1e+20 
    9000    1.8898357   -4.9502102    4818.8689            1 
    9100    1.8321383   -4.9441791    4815.6931            2 
    9200    1.8832452   -4.9376468    4831.5069            1 
    9300    1.9153099   -4.9173978    4835.3429            2 
    9400     1.862035   -4.9708282    4838.5479            1 
    9500    1.8490713   -4.9270352    4806.3008            1 
    9600     1.901229   -4.9441174    4794.7159            1 
    9700    1.8365435   -4.9558125    4848.6555            1 
    9800    1.8748415   -4.9675777    4823.4283       -1e+20 
    9900    1.8827866   -4.9047295    4813.3258            1 
   10000    1.8541401   -4.9472157    4847.2733            3 
   10100    1.8987908   -4.9743022     4805.832            1 
   10200     1.836857   -4.9909413    4819.5372            1 
   10300    1.8589604   -4.9360441    4800.1598            1 
   10400    1.9200794   -5.0067609    4834.4802            2 
   10500    1.8480671   -4.9693479    4823.9917       -1e+20 
   10600    1.8961533   -4.9841947    4795.2295            3 
   10700    1.8142116   -4.9668732    4814.4392            1 
   10800    1.8730055   -4.9614834    4817.2874            1 
   10900    1.8920354   -4.9638684    4826.1944            1 
   11000    1.9089763   -4.9153322    4876.7009            1 
   11100    1.8866917   -4.9211211    4848.7989            1 
   11200    1.8602708   -4.9495982    4822.5273            1 
   11300    1.8893715   -4.9644727    4818.5096            1 
   11400    1.8499018   -4.9467892    4846.2946            1 
   11500    1.8844719   -4.9405383    4774.9566            1 
   11600    1.8670708   -4.9787127    4805.1035            2 
   11700     1.857368   -4.9533314    4857.1616            3 
   11800     1.904263   -4.8841031    4835.5279            1 
   11900    1.8983353   -4.9533666    4831.8903       -1e+20 
   12000    1.8454311   -4.9764191    4829.6584            1 
   12100    1.9010384    -4.940722    4817.2399            1 
   12200    1.8898105   -4.9763152    4817.8144            2 
   12300    1.8565282   -5.0019571    4802.1687            1 
   12400    1.8562252   -4.9602341    4823.8762            1 
   12500     1.876332   -4.9492923    4826.2565            1 
   12600    1.8540651   -4.9381163    4812.4483            1 
   12700    1.8451341   -4.9576329    4803.9361            1 
   12800     1.865109   -4.9311339    4856.5178            1 
   12900     1.899198   -4.9633866    4836.0968            1 
   13000    1.8896572    -4.974595    4799.1235            1 
   13100     1.845347   -4.9748726    4835.7876            1 
   13200    1.8771532   -4.9413688    4822.5427            1 
   13300    1.8706629   -4.9821679    4799.6133            2 
   13400    1.8741074   -4.9642887    4840.8767            3 
   13500    1.8873844   -4.9603383    4817.8893            2 
   13600     1.887135   -4.9982405    4816.0237            1 
   13700    1.8587972   -4.9828512    4831.4788            1 
   13800    1.9040685   -4.9834733     4790.263            1 
   13900    1.8548931   -4.9539755    4813.9182            1 
   14000     1.850678   -4.9308201    4823.6772            1 
   14100    1.8341747   -4.9198975    4782.4974            2 
   14200    1.8598719   -4.9330511    4821.6917            2 
   14300    1.9000208   -4.9977289    4840.9928            1 
   14400    1.8678577   -5.0190159    4792.6772            1 
   14500    1.8550104   -5.0163455      4803.99            1 
   14600    1.8866226    -5.000049    4802.0939            2 
   14700    1.8972372   -4.9173728    4831.1102            2 
   14800    1.8444197   -4.9103591    4836.3239            1 
   14900    1.9260266   -4.9602916    4821.0836            1 
   15000    1.8436136   -4.9722895    4842.3731            1 
   15100    1.8783526   -4.9487485    4794.9353            1 
   15200    1.8529212   -4.9649198    4802.7254            1 
   15300    1.8904018   -4.9962415    4826.3929            1 
   15400    1.8747164    -4.965969    4840.7151            1 
   15500    1.8726004   -4.9068057    4829.7492       -1e+20 
   15600    1.8406712   -4.9165689    4816.9224            1 
   15700    1.8936311    -4.976922    4826.1466            1 
   15800    1.8428792   -4.9688601    4808.4132            1 
   15900    1.8914392    -4.920755    4815.2386            1 
   16000    1.8865222   -4.9731143    4830.7415            2 
   16100    1.8319188   -4.9939121    4821.6491            1 
   16200    1.8991141   -4.9994335    4820.6139            2 
   16300    1.8907619   -4.9627211    4815.1004            1 
   16400    1.8533215   -5.0070356    4818.0472            3 
   16500    1.8992985   -5.0006487    4831.8285            1 
   16600    1.8898158   -4.9405689    4805.3416            1 
   16700    1.8437618   -4.9412411    4799.2796            1 
   16800    1.8138611   -4.9656468    4805.6144            1 
   16900    1.8747524   -4.9350935    4813.3296            1 
   17000    1.8667072   -4.9425579    4852.6765            1 
   17100     1.892352    -4.914288    4839.1472            1 
   17200    1.8684637   -4.9248185     4807.282            1 
   17300    1.8319432   -4.9736611    4824.6244            1 
   17400    1.8631351   -4.9436209    4809.0952            1 
   17500    1.9040777   -4.9297923    4832.6749            1 
   17600    1.8530375   -4.9588696    4844.3522            1 
   17700    1.8823895   -4.9544565    4800.6113            1 
   17800    1.8588918   -4.9818841    4795.2688            1 
   17900    1.8635673   -4.9959812    4829.7855            1 
   18000    1.8924877   -4.9265658    4843.9048            1 
   18100    1.8851878   -4.9406245    4799.4243            1 
   18200    1.8674348   -4.9699757    4844.9468       -1e+20 
   18300    1.8574792   -4.9372167    4856.2751            1 
   18400    1.8942106   -4.9275201     4810.285            1 
   18500    1.8405823   -4.9525393    4832.1348            1 
   18600    1.8537967   -5.0223657    4788.4114            1 
   18700    1.8514861   -4.9726417    4802.0707            1 
   18800    1.8628929   -4.9202818    4824.4441       -1e+20 
   18900    1.8791619   -4.9600977    4820.2927            1 
   19000    1.8699756   -4.9854004    4787.3841            1 
   19100    1.8633415   -4.9513871    4838.7434            1 
   19200    1.8624398   -4.9566967     4801.696            1 
   19300    1.8828199   -4.9938636    4785.7396            2 
   19400    1.8070517   -5.0027108    4824.0158            1 
   19500    1.8780444   -4.9641533    4819.1681            1 
   19600    1.8751332   -4.9462429    4783.6153            4 
   19700    1.8213672   -4.9609096    4821.4301            1 
   19800    1.8596009   -4.9619991    4833.4306            1 
   19900     1.928658   -4.9377277    4815.2034            1 
   20000    1.8285467   -4.9252677    4831.2462            1 
   20100    1.8368862   -4.9339154    4825.4668            2 
   20200    1.8744598   -4.9276971    4810.8832            1 
   20300    1.8833531    -4.957851    4834.9229            1 
   20400    1.8281272   -4.9299782    4806.3893            2 
   20500    1.8628509   -4.9568086    4818.2472            1 
   20600    1.8487853   -4.8853974     4825.746       -1e+20 
   20700     1.900912   -4.9193389    4862.0458            1 
   20800    1.8650743   -4.9510373    4821.5171            2 
   20900    1.8897365   -4.9832843    4824.4991            1 
   21000    1.8746863   -4.9689024    4845.2373            1 
   21100    1.8923282   -4.9102585     4835.929            1 
   21200    1.8653874   -4.9756942    4829.3643            1 
   21300    1.8587105   -4.9417369    4835.1329            1 
   21400    1.8812629   -4.8885201    4856.9529       -1e+20 
   21500    1.8619284   -4.9367107    4833.6828            1 
   21600    1.8988649   -4.9614524     4833.011            1 
   21700    1.8537157   -4.9886567    4808.6791            2 
   21800    1.8726822   -4.9803456    4809.2787            1 
   21900    1.9171183   -4.9778746    4818.7445       -1e+20 
   22000    1.8433722   -4.9604066    4821.8512            1 
   22100    1.9010247   -4.9659614    4800.9001       -1e+20 
   22200    1.8216521   -4.9678743    4836.8437            1 
   22300    1.8730226   -4.9689454    4809.1731            1 
   22400    1.8884436   -4.9218227    4804.9079            1 
   22500    1.8654186    -4.952033    4834.0791            1 
   22600    1.8543663   -4.9654974    4814.6493            1 
   22700    1.8826712   -4.9451289    4805.8095            1 
   22800    1.8664647   -4.9366839    4851.0068            1 
   22900    1.8603898   -4.9617236    4826.6044       -1e+20 
   23000    1.8954407    -4.977654     4811.734            2 
   23100    1.8363113   -4.9335512    4836.1061            1 
   23200    1.8877819   -4.9081521    4804.2166            1 
   23300     1.864569   -4.9609874    4832.4478            2 
   23400    1.8508664   -4.9409563    4845.0928            1 
   23500    1.8626039    -4.933343    4806.9742            1 
   23600    1.8431663   -4.9465355     4794.344            1 
   23700    1.8721197   -4.9604431      4850.36       -1e+20 
   23800    1.9066717   -4.9582793    4836.1668            1 
   23900    1.8689631   -4.9539205    4812.5212            1 
   24000    1.8652937   -4.9536795    4819.4672            1 
   24100    1.8688222   -4.9299117    4857.6293            1 
   24200    1.8675882   -4.9985123    4794.9237            3 
   24300    1.8367716   -4.9623491    4801.1668            1 
   24400    1.8783329   -4.9399216    4828.0315            2 
   24500    1.8758636   -4.9913771    4820.4393            1 
   24600    1.8499481   -4.9679571    4782.7295            1 
   24700    1.8728024   -4.9770286    4828.8822            1 
   24800      1.87591    -4.963286    4823.5947            2 
   24900    1.8707115   -4.9923986    4796.3938            2 
   25000     1.866172   -4.9210274    4839.0758            2 
   25100    1.8850218   -4.9732797    4822.2148            1 
   25200    1.8583165    -4.974506    4812.3722            1 
   25300    1.8766527   -4.9087421      4850.65            1 
   25400      1.89875   -4.9036559    4826.5956            1 
   25500    1.8298058   -4.9104359    4834.1666            1 
   25600    1.8620742   -4.9232199    4823.3176            1 
   25700    1.8579665   -4.9846029    4770.8558            1 
   25800    1.8503488   -5.0371188    4821.6269            1 
   25900    1.8467142   -4.9413812    4821.1471            1 
   26000    1.9001591   -4.9362213    4829.6754            1 
   26100    1.8593897   -4.9586457    4830.7644            2 
   26200    1.8698557   -4.9498428    4822.5428            2 
   26300    1.8791664   -4.9295528    4808.9946            1 
   26400    1.8123013   -4.9462872    4811.1176            2 
   26500    1.8480866   -4.9435369    4820.5216            1 
   26600    1.8890901   -4.9015968    4828.3646       -1e+20 
   26700    1.8578493   -4.9662475    4830.9911            4 
   26800    1.8584563   -4.9606265    4809.4257            2 
   26900    1.8645814   -4.9375957    4798.5187            1 
   27000    1.8352641    -4.970269    4820.9312            1 
   27100    1.8757078   -4.9207224    4833.2626            1 
   27200    1.8648587   -4.8972576    4792.2781            1 
   27300    1.8498302   -4.9408267    4824.2145       -1e+20 
   27400    1.8666267   -4.9646313    4863.4758            1 
   27500    1.8960661   -4.9203239    4816.2991            1 
   27600    1.8732503   -4.9635831    4818.4218            1 
   27700    1.8417311    -4.988891    4825.0038            1 
   27800    1.8938786   -4.9439566    4820.0188            2 
   27900    1.8604348   -4.9407352    4830.9375            2 
   28000    1.8583202   -4.9588827    4820.3449            1 
   28100    1.8786154   -4.9258017    4804.5375            1 
   28200    1.8307367   -4.9382187     4862.456            1 
   28300    1.8890112   -5.0205495    4787.4753            2 
   28400    1.8519037   -4.9825424    4784.7776            1 
   28500    1.8777199   -4.9760718    4829.4558            1 
   28600    1.8649192   -4.9409242    4824.0327            1 
   28700    1.8715213   -4.9225519    4821.2126            1 
   28800    1.8790006   -4.9095525    4850.7169            1 
   28900    1.8730367   -4.9695989    4800.5657            1 
   29000    1.8501727   -4.9508925     4803.119            1 
   29100    1.8592302   -4.9156265    4844.1074            1 
   29200     1.912657   -4.9651609    4826.9622            1 
   29300    1.8271589   -4.9037861    4790.4741            1 
   29400    1.8695504    -4.907458    4838.2951            1 
   29500    1.8588419   -4.9198123    4856.3279            1 
   29600    1.8370767   -4.9246448    4806.1482            2 
   29700    1.8938322   -4.9632222    4815.3361            1 
   29800    1.8332365   -4.9584466    4822.1344            3 
   29900    1.8690881   -4.9519141    4819.4409            1 
   30000    1.8739244   -4.9694626    4836.8879            1 
   30100    1.8813589   -4.9518521    4829.2635            1 
   30200    1.8689815   -4.9574265    4800.8945            1 
   30300    1.9132817   -4.9831476    4827.9591            2 
   30400    1.8396958   -4.9429093    4829.1475            1 
   30500    1.8579719    -4.976836    4774.5602            1 
   30600    1.8372729   -4.9345668    4821.0458            1 
   30700     1.880364   -4.9344827    4834.6283            1 
   30800    1.8432671   -4.9768538     4825.875            1 
   30900    1.8584717   -4.9545054    4821.2948            1 
   31000    1.9073931   -4.9538181    4821.1748            1 
   31100     1.873644   -4.9807621    4841.6523            1 
   31200     1.862971   -4.9429337    4796.1165            1 
   31300    1.8645285   -4.9687698    4803.8184            1 
   31400    1.8554253   -4.9446213    4840.2567            1 
   31500    1.9185249   -4.9329274    4835.0729            1 
   31600    1.8855788   -4.9517014    4813.4878            1 
   31700    1.8373838   -4.9537277    4834.5369            1 
   31800    1.8883992   -4.9400093    4818.5373            1 
   31900      1.85007   -4.9460714    4812.5155            2 
   32000    1.8755813   -4.9757929    4820.6541            1 
   32100     1.864007   -4.9045244     4846.974            1 
   32200    1.8879051   -4.8867916    4842.2481       -1e+20 
   32300    1.8575298   -4.9319188    4833.3318            1 
   32400    1.8653462   -4.9817682    4835.2202            1 
   32500     1.883273   -4.9582092     4800.528            1 
   32600    1.8730247   -4.9616658    4839.3327            1 
   32700    1.8374519   -4.9062796    4852.3391            1 
   32800    1.9147269   -4.8917915    4812.8929            2 
   32900    1.8401583   -4.9073453    4857.5422            1 
   33000    1.8513844   -4.9751424    4808.2103            1 
   33100    1.8647216   -4.9570157    4814.1711            1 
   33200    1.9024414   -4.9754512     4835.593            2 
   33300    1.8275352   -4.9646928    4822.3132            1 
   33400    1.8567973   -4.9588398     4802.917            1 
   33500    1.8755805   -4.9252876    4808.4431            2 
   33600    1.8198359     -4.95307    4840.3872            2 
   33700    1.8970112   -4.9394262    4804.9354            1 
   33800    1.8064577   -4.9685433    4832.8271            2 
   33900    1.9103507   -4.9743636    4790.1776            2 
   34000    1.8522891   -4.9929293    4824.0055            1 
   34100    1.8813245   -4.9824309    4810.5658            1 
   34200    1.8962846   -4.9651033    4820.6681            1 
   34300    1.8444327     -4.95407    4791.3906            1 
   34400    1.8550983   -4.9773849    4809.4488            1 
   34500    1.8670072   -4.9423452    4808.8334            1 
   34600    1.8564498   -4.9636725    4827.2187            1 
   34700    1.8912927   -4.9616783    4828.2076            1 
   34800    1.8165436   -4.9452611    4814.5884            1 
   34900    1.8847126   -5.0065067    4781.9541            1 
   35000    1.8940496   -5.0008978    4789.3312       -1e+20 
   35100     1.858305   -4.9935888    4856.9925            1 
   35200    1.8782065   -4.9011827    4822.5519            1 
   35300    1.9110373    -4.989937    4799.7698            2 
   35400    1.8397118   -4.9635228    4829.8764       -1e+20 
   35500     1.894353    -4.975225    4820.4457            1 
   35600    1.8958783   -5.0221487    4813.2424            1 
   35700    1.8357622   -5.0228762    4790.4602            1 
   35800    1.9029265   -5.0273841    4796.1381            1 
   35900    1.8452556   -4.9776232    4807.9175            1 
   36000    1.9023599   -4.9796238     4800.866            1 
   36100    1.8909875   -4.9691429    4803.9411            1 
   36200    1.8538265   -5.0202369    4862.4167       -1e+20 
   36300    1.8788663   -4.9494344    4798.2647            2 
   36400    1.8656121   -4.9591154      4802.99            1 
   36500    1.8561399   -4.8879739    4852.4089       -1e+20 
   36600    1.8659231   -4.9313904    4842.1565            1 
   36700    1.8884781   -4.9605373    4791.2125            1 
   36800    1.8271262   -4.9678535    4809.6953            3 
   36900    1.8515033    -4.912162    4832.3902            1 
   37000     1.896795   -4.9323504    4817.1671            2 
   37100    1.8524592   -4.9498905    4831.3386            1 
   37200    1.8970537   -4.9429386    4824.7267            1 
   37300    1.8289982   -4.9351196    4810.8073            1 
   37400    1.9009345   -4.9464707    4811.2288            1 
   37500     1.842777   -4.9716777    4819.8611            2 
   37600    1.8630466   -4.9440233     4798.642            1 
   37700    1.8589703    -4.973472    4835.2285            1 
   37800    1.8709909   -4.9535847    4800.3312            1 
   37900    1.9011846   -4.9520101    4818.9127            1 
   38000    1.8278003   -4.9543557    4854.7948            1 
   38100     1.933575   -4.9739742    4798.9296            1 
   38200    1.8783391   -5.0097438    4819.5332            1 
   38300    1.8524338   -5.0031257    4831.1239            1 
   38400    1.8888839   -4.9311116    4800.6091            1 
   38500    1.8554969   -4.9335501    4809.7889            1 
   38600    1.8244751   -4.9869775    4820.2602            1 
   38700    1.9030559   -5.0057735    4806.9363            1 
   38800    1.8667369   -4.9540141    4792.2333            1 
   38900    1.9157308   -4.9782897    4865.2562            1 
   39000    1.8696693   -4.9415677    4826.6062            1 
   39100    1.8781352   -4.9488708    4809.6707            1 
   39200    1.9063915   -4.9375606    4834.3588            1 
   39300    1.8648746   -4.9738021    4832.1382            1 
   39400    1.8473821   -4.9512398    4807.3694            1 
   39500    1.8784284   -4.9232837    4822.3813            1 
   39600    1.8777316   -4.8948077    4854.9888       -1e+20 
   39700    1.8496079   -4.9473113    4825.4587            1 
   39800    1.8909866   -4.9778136    4825.9392            1 
   39900     1.900961   -4.8853782    4835.6108            1 
   40000    1.8631443   -4.9070537    4847.8918            1 
   40100    1.8520712   -4.9386377    4832.7558            1 
   40200     1.864815   -4.9370246    4821.8808            2 
   40300    1.9254214    -4.964841    4834.6174            1 
   40400    1.8679365   -4.9829786    4839.0346            1 
   40500    1.8923754   -4.9977235    4811.4304            2 
   40600    1.8577582   -4.9357104    4818.1026            1 
   40700    1.8633283   -4.9393694    4822.7454       -1e+20 
   40800     1.879237   -4.9360628    4835.6729       -1e+20 
   40900    1.8641573   -4.9180553    4840.4624            1 
   41000    1.9089667     -4.98912    4817.1179            1 
   41100    1.8560641   -4.9848111    4837.7965            1 
   41200    1.9094891   -4.9619591    4824.0406            1 
   41300    1.8646219   -4.9315988    4832.8328            1 
   41400    1.8277308    -4.974508    4831.0302            1 
   41500     1.876668   -4.9509249     4802.922            1 
   41600    1.8724507   -4.9539608     4828.335            1 
   41700    1.8656916   -4.9484448    4839.6271            2 
   41800    1.8629367   -4.9805609    4789.9896            1 
   41900       1.8431   -4.9796553    4794.9561            1 
   42000    1.8800088   -4.9781723    4831.0009            2 
   42100    1.8703069   -4.8609744    4832.1044            1 
   42200    1.9021014   -4.8793948    4877.8749            1 
   42300    1.8730408   -4.9212784    4852.6918            1 
   42400    1.8703709   -4.9473015    4834.5291            2 
   42500    1.8075715   -4.9580178    4810.0017            1 
   42600    1.8477618   -4.9244128    4796.1677            3 
   42700    1.8763274   -4.9598175    4821.7523            1 
   42800    1.8258234   -4.9461699    4830.2729            1 
   42900    1.8633899   -4.9262887    4801.8073            1 
   43000     1.882608   -4.9250495    4841.7576       -1e+20 
   43100    1.8756444   -4.9725158    4824.7474            2 
   43200    1.8746192   -4.9449642    4809.7605            1 
   43300    1.8130689   -4.9583972    4813.0244            1 
   43400    1.8985684   -4.9940706    4809.8562            2 
   43500    1.8568566   -4.9322454    4826.5046            1 
   43600    1.8575031   -4.9549412    4844.7612            1 
   43700     1.906614   -4.9118804     4820.442            2 
   43800    1.8826501   -4.9748372    4829.7206            1 
   43900    1.8496234   -4.9945893    4818.9731            1 
   44000    1.8939939    -4.985713    4781.9578       -1e+20 
   44100    1.8481582   -4.9918133    4813.6971            2 
   44200    1.8674766   -4.9530872    4827.5942       -1e+20 
   44300    1.8593843   -4.9451036     4809.585            1 
   44400    1.8454528   -4.9883907     4781.942            1 
   44500    1.8534907   -4.9852123    4805.4992            1 
   44600    1.8861979   -4.9538376    4815.3702            1 
   44700     1.863095   -4.9122341    4860.2654            1 
   44800    1.8636467   -4.9556068     4787.387            1 
   44900    1.8693424   -5.0061844    4799.8317            1 
   45000    1.8758058   -4.9426554    4832.7348            1 
   45100    1.8827803   -4.9854632    4820.5098            1 
   45200    1.8412958    -4.965318     4804.282            2 
   45300    1.8924686   -4.9703624    4814.4445            1 
   45400    1.8483174   -4.9612157    4848.0989            1 
   45500    1.8914615     -4.92169    4833.0858            1 
   45600    1.8897911   -4.9666346    4811.6545            2 
   45700    1.8183009   -4.9893352    4816.7482            1 
   45800    1.8824812   -4.9916038    4799.8549            3 
   45900    1.8727536   -4.9511704    4824.9472            1 
   46000    1.9075237    -4.969091    4845.1654            1 
   46100    1.9034836   -4.9610165    4840.2599            1 
   46200    1.8620322   -4.9676785    4796.5594       -1e+20 
   46300    1.8734529   -4.9922589    4813.5071            1 
   46400    1.8758489   -4.9543697    4843.9769            1 
   46500    1.9287828   -4.9296166    4827.6858            1 
   46600    1.8610836   -4.9370214    4841.7049            1 
   46700    1.8527087   -4.9566928    4815.3758       -1e+20 
   46800    1.8901068   -4.9536398    4776.2356            1 
   46900    1.8294752   -4.9387703    4850.2463            1 
   47000    1.8560699   -4.9080253    4839.8179            1 
   47100    1.8746626   -4.9317164    4798.7821            1 
   47200     1.852837   -4.9583362    4801.9072            2 
   47300    1.8402303   -4.9533751    4831.8796            1 
   47400    1.8817599   -4.9285987    4812.1804            2 
   47500    1.8663095    -4.972419    4820.6291            1 
   47600    1.8591752   -5.0333523    4814.4914            1 
   47700    1.8982627   -4.9841229    4799.1442            1 
   47800    1.8767968     -4.94207    4830.1814            1 
   47900     1.848041   -4.9612784    4842.3447            1 
   48000    1.8931366   -4.9801559     4786.413            2 
   48100    1.8565458   -4.9737612    4808.8481            1 
   48200     1.887461   -4.9657226    4837.4852            1 
   48300    1.9100955   -4.9085439    4855.1114            1 
   48400    1.8997743   -4.9470309     4811.895            1 
   48500    1.8692589   -4.9732116    4819.4691            3 
   48600    1.8297045   -4.9768503    4828.5431            3 
   48700    1.8943033   -4.9349447    4793.6317            1 
   48800    1.8642387   -4.9973067    4816.0888            1 
   48900    1.8650999   -4.9710204    4808.5095            1 
   49000    1.8725485   -4.9657341    4789.4826            1 
   49100    1.8514611   -4.9721627    4819.0513            1 
   49200    1.8668124   -4.9530779    4858.7623            1 
   49300    1.8908145   -4.9323073    4796.5889            1 
   49400    1.8619276   -4.9535602    4813.4405            2 
   49500    1.8603113   -4.9619948    4866.9223            1 
   49600    1.8980698   -4.9605054    4799.5897            5 
   49700    1.8793084   -4.9688762    4841.0743            1 
   49800    1.8222777   -4.9088952     4834.029            2 
   49900    1.9371217   -4.9713029    4791.9587            1 
   50000    1.8473261   -4.9860284    4812.5185            1 
   50100    1.8724366    -4.948591    4822.9628            3 
   50200    1.8654024   -4.9459158    4830.9744            2 
   50300    1.8957623   -5.0159801    4812.2882            1 
   50400    1.8456998   -4.9779684    4805.1691            2 
   50500    1.8514393   -4.9229782    4811.4056            1 
   50600    1.8634745   -4.9745117    4817.1696            1 
   50700    1.8972285   -5.0417381    4804.5772            1 
   50800    1.8748777   -4.9860881     4813.099            1 
   50900    1.8932705   -4.9469139    4823.3907            1 
   51000    1.8667577   -4.9018557     4829.803            1 
   51100    1.8450514   -4.9356074     4807.348            2 
   51200     1.858923    -4.958848    4813.8785            1 
   51300    1.8857596   -4.9270332    4819.2902            1 
   51400    1.8427645   -4.9524003    4821.7114            1 
   51500    1.8814981   -4.9439058    4824.7109            1 
   51600     1.873192   -4.9059321    4867.6126            1 
   51700    1.8496343   -4.9156008    4809.8625            1 
   51800    1.8686009   -4.9464839    4825.4668            1 
   51900    1.8578727   -4.9427152    4847.3299            1 
   52000    1.8807281    -4.938833    4801.0376            1 
   52100    1.8805807   -5.0007296    4803.3828            1 
   52200    1.8265321   -4.9332908    4820.0241            2 
   52300    1.8990096   -4.9373726    4823.9469            1 
   52400    1.8762619    -4.993987    4802.2286            1 
   52500    1.8699127   -4.9705993    4825.3501            1 
   52600    1.9003171   -5.0053784    4836.4268            1 
   52700    1.8456374    -4.966354    4798.8325            1 
   52800     1.880167   -4.9760952    4835.1197            1 
   52900    1.8644388   -4.9604186    4826.3279            1 
   53000    1.8354018   -4.9780249    4789.7771       -1e+20 
   53100    1.8677564   -4.9711231    4815.2239            1 
   53200    1.8468118   -4.9509683    4830.8744            1 
   53300    1.8765641   -4.9313415     4786.621            2 
   53400    1.8761216    -4.942008    4835.7431            1 
   53500    1.8546097   -4.9363246    4860.2847            1 
   53600    1.8654629   -4.9513568    4817.4355            2 
   53700    1.8397193   -4.9784732    4803.3671            2 
   53800    1.9057984   -4.9993911    4836.3391            1 
   53900    1.9010385   -4.9777368    4815.9755            1 
   54000    1.8580208    -4.967685    4839.9261            1 
   54100    1.8792541   -4.9178485    4853.9339            1 
   54200    1.8906318   -4.9250055    4843.4361            1 
   54300    1.8570841   -4.9507056    4818.0671            1 
   54400    1.8767006   -4.9380501    4807.7319            1 
   54500    1.8606145    -4.961928    4838.1911            1 
   54600    1.8699251   -5.0253308    4812.3812            1 
   54700    1.8624218   -4.9749957    4784.2961       -1e+20 
   54800    1.8682333   -4.9677316    4835.5897            1 
   54900    1.8482188   -4.9601652    4825.7149            1 
   55000    1.8969175   -4.9679295    4794.7341            1 
   55100    1.9009659   -4.9263304    4864.4964            1 
   55200     1.843867   -4.9070314    4833.8557            1 
   55300    1.8692323    -4.912167    4826.0841            1 
   55400    1.8358136   -4.9048936    4832.9769            1 
   55500    1.8907727    -4.961835    4806.8145            1 
   55600    1.8711394   -4.9018224    4855.4523            1 
   55700    1.8743838   -4.9230416    4840.2155            1 
   55800    1.8504798   -4.9122919    4808.4391            1 
   55900    1.8959686   -4.9304278      4815.84            2 
   56000     1.840471   -4.9373256    4845.1973            1 
   56100    1.8949484   -5.0180608    4801.9437            1 
   56200    1.8569886   -4.9553785    4810.6829            1 
   56300     1.844277   -4.9354825    4831.3487            1 
   56400    1.9237668   -4.9751469    4805.6419            4 
   56500    1.8367453   -4.9602168    4825.8189            1 
   56600    1.8590282   -4.9502881    4815.9993            1 
   56700    1.8882361   -4.9091807    4826.5716            1 
   56800    1.8656061   -4.9449056    4837.2194            1 
   56900     1.877512    -4.941197    4837.3594            2 
   57000    1.8455938   -4.9292048    4802.1842            1 
   57100    1.8716505   -4.9109864    4858.7338            1 
   57200    1.8960641    -4.942721    4811.8939            2 
   57300    1.8353641   -4.9372016    4811.6316            2 
   57400    1.9017936   -4.9780086    4824.4272            1 
   57500    1.9171787    -4.988147    4854.8641            1 
   57600    1.8705677   -4.9764517    4785.8316            1 
   57700    1.8708325   -4.9562523    4818.4225            1 
   57800    1.8638081   -4.9676687    4828.7691       -1e+20 
   57900    1.8676233   -4.9829513    4811.2559            1 
   58000    1.8571055    -4.973946    4781.7776            1 
   58100    1.8919447   -4.9641244     4830.165            1 
   58200     1.895405   -4.9713732    4829.9244            1 
   58300    1.8525539   -4.9695295    4795.1413            1 
   58400    1.8742165   -4.9469602    4801.0524            1 
   58500    1.8586256   -4.9783389    4819.4544            2 
   58600    1.8425674   -4.9481549    4815.1157            1 
   58700    1.9006829   -4.9407729    4815.5175            1 
   58800    1.8594076   -4.9393058     4846.847            1 
   58900    1.8772867   -4.9391248    4820.9132            1 
   59000    1.8834194    -4.941592    4829.2102            1 
   59100    1.8339433   -4.9547542    4847.9349            3 
   59200    1.8798905   -4.9786924    4798.0573            1 
   59300    1.8707508   -4.9344938    4799.6584            1 
   59400    1.8639768   -4.9447182    4859.1084            1 
   59500    1.8825916    -4.912856    4842.9643            1 
   59600    1.8757714   -4.9021822    4809.1189            2 
   59700    1.8155964   -4.9643863    4832.3765            2 
   59800    1.8840554   -4.9672568    4804.4015            1 
   59900      1.89794   -4.9734593    4818.3542            1 
   60000    1.8355586   -4.9772521     4838.141            1 
   60100    1.8866401   -4.9496436    4811.4468            3 
   60200    1.8411644   -4.9447685    4822.2426            1 
   60300    1.8925996   -4.9275074     4848.125       -1e+20 
   60400    1.8453629   -4.9290996    4832.8097            2 
   60500    1.8462693   -4.9882299    4796.4262            2 
   60600     1.909856   -4.9926027    4805.8755            3 
   60700    1.8442874   -4.9686598    4826.4173            1 
   60800    1.8728175   -4.9505816    4820.8615            1 
   60900    1.8882204   -4.9447676    4804.0434            2 
   61000    1.8155551   -4.9641539    4815.3881            1 
   61100    1.8573334   -4.9464286    4803.7471            1 
   61200    1.9158554   -4.9551061    4814.5345            4 
   61300    1.8535772   -4.9636855    4839.1108            1 
   61400    1.8652686   -4.9797386      4827.15            1 
   61500    1.8856722    -4.947602    4808.9648            1 
   61600    1.8447475   -4.9614109    4801.0054            1 
   61700    1.8888073   -5.0070906    4813.3313            1 
   61800    1.8695467   -4.9676507    4814.7379            1 
   61900    1.8829658    -4.927916    4817.0574            1 
   62000    1.8368392   -4.9713794    4818.4212            1 
   62100    1.8407744   -4.9280575    4814.9493            1 
   62200     1.914105   -4.9470674    4845.4229            2 
   62300    1.8622321   -4.9595194    4822.9138            2 
   62400    1.8772818   -4.9536102    4827.4893       -1e+20 
   62500    1.8733631   -4.9096511    4827.0824            2 
   62600    1.8410055   -4.9254479    4812.6866            2 
   62700    1.8845409   -4.9509154     4826.289            1 
   62800    1.8388011   -4.9742732    4827.8603            1 
   62900    1.9140349   -4.9792419    4789.1224            1 
   63000    1.8694316   -4.9459191    4842.7689            1 
   63100    1.8823916   -4.9768634    4837.8825            1 
   63200    1.8467995   -4.9469452    4780.1106            1 
   63300    1.8556117   -4.9329632    4804.7592            1 
   63400    1.8277816   -4.9105496    4845.6701            1 
   63500    1.8912179   -4.9462146    4837.6776            2 
   63600    1.8728479   -4.9511729    4821.7719            1 
   63700    1.8530715   -4.9993948    4789.4683            1 
   63800    1.8404101   -4.9931874    4812.7839            1 
   63900    1.8883387   -4.9887566    4801.9774            1 
   64000    1.8304009   -4.9832147    4809.0193            1 
   64100    1.8620637   -4.9368073    4854.9229            1 
   64200    1.8962271   -4.9361354    4805.7032       -1e+20 
   64300    1.8597574     -4.97663     4809.201            1 
   64400    1.8910026   -4.9544706     4815.534            1 
   64500    1.9067849    -4.936379    4851.7677            1 
   64600    1.8590066    -4.949224    4807.9663            1 
   64700     1.863584   -4.9928922    4804.4349            1 
   64800    1.8381898   -5.0314704    4792.0771            1 
   64900    1.8562946   -4.9499458    4813.9322            1 
   65000     1.892048   -4.9520225    4801.7995            1 
   65100    1.8297033   -4.9743282    4805.5319            1 
   65200     1.878882   -4.9930857    4811.8657            1 
   65300    1.8886326   -4.9291513    4819.7392            1 
   65400    1.8724691    -4.982559    4832.6486            1 
   65500    1.8190936   -4.9644877    4797.1042            1 
   65600    1.8697648   -4.9491941     4817.936       -1e+20 
   65700    1.8657558   -4.9206844    4833.1789            1 
   65800    1.9179114    -4.915272    4853.6894            1 
   65900    1.8525166   -4.9038769     4826.627            1 
   66000    1.8532637   -4.9579107    4835.2622            3 
   66100    1.9285239   -4.9589388    4842.1728            1 
   66200    1.8713855   -4.9373354    4815.6309            1 
   66300    1.8241722   -4.9573468    4814.4589            1 
   66400    1.8595626   -4.9364686    4807.1852            2 
   66500    1.8747042   -4.9167657    4848.6121            1 
   66600    1.8591035    -4.972001    4845.2881            2 
   66700    1.8880883   -4.9523962    4793.9576            1 
   66800    1.8627721   -4.9603449    4811.0031            1 
   66900    1.8667272   -4.9325436    4841.9976            1 
   67000    1.8788965   -4.9751611    4806.5393            1 
   67100    1.8668257   -4.9643316    4821.4651            1 
   67200    1.8604282   -4.9325864    4835.6394            1 
   67300    1.8120869    -4.911447    4797.9261            1 
   67400    1.8295802   -5.0024458    4782.9835            2 
   67500    1.8197577   -4.9213558     4823.744            2 
   67600    1.8827291   -4.9417174    4819.1756            1 
   67700    1.8540317   -4.9694449    4819.9284            1 
   67800     1.822746   -4.9529091    4813.8892            1 
   67900    1.8943769   -4.9314364    4822.1609            1 
   68000     1.851322   -4.9438052    4830.3154            1 
   68100    1.8693818   -5.0257059    4800.9138            2 
   68200     1.879396   -4.9935656    4798.5036            3 
   68300    1.8822692   -4.9499864    4830.2641            1 
   68400    1.9035517   -4.8908072    4858.7926            2 
   68500    1.8722438   -4.8898366    4831.2549            1 
   68600    1.8336113   -4.9190276    4823.1038            1 
   68700     1.911086    -4.952665    4810.4083            1 
   68800    1.8227578   -4.9707626    4829.4471            1 
   68900    1.8896579    -4.968425    4823.1363            1 
   69000    1.9100845   -4.9476786    4806.5945            1 
   69100    1.8234527   -4.9537591    4831.9965            1 
   69200     1.880286   -4.9600243    4830.9647            4 
   69300    1.8889235   -4.9518734    4843.8118            1 
   69400     1.847775   -4.9160328    4830.3333            1 
   69500    1.8599924   -4.9458021    4801.6065            1 
   69600    1.8506314   -4.9719935     4811.274            1 
   69700    1.8697125    -5.005471     4784.974            1 
   69800    1.8880603   -4.9696934    4820.2412            1 
   69900    1.8673065   -4.9406109    4820.2512            2 
   70000     1.844413   -4.9617881    4799.3413            1 
   70100    1.8986779   -4.9894318    4792.2214            1 
   70200    1.8686539   -4.9614192    4855.8519            1 
   70300    1.8355452   -4.9560542    4804.1215            1 
   70400     1.856442   -4.9317364    4810.6318            1 
   70500    1.8538108    -4.910071    4841.9655            1 
   70600    1.8500756   -4.8986359     4815.652            1 
   70700    1.8532295   -4.8958598    4822.3993            1 
   70800    1.8537459   -4.9420538    4856.3073            1 
   70900    1.8733295   -4.9841121    4815.8086            1 
   71000    1.8845488   -4.9659853    4782.2213            3 
   71100    1.8446578   -4.9624144    4831.9345            2 
   71200    1.8770333   -4.9412827    4832.9407            3 
   71300    1.8702137   -4.9460694     4808.929            2 
   71400    1.8454319   -5.0018582    4807.6876            3 
   71500    1.8821668   -4.9793897    4823.3376            1 
   71600    1.8574369   -4.9303531    4807.2692            1 
   71700    1.8825499   -4.9456083     4808.674            1 
   71800    1.8544252   -4.9525651     4867.816            1 
   71900    1.9233337   -4.9167785    4844.4169            2 
   72000    1.8595955   -4.9305643     4824.882            1 
   72100    1.8356751   -4.9828196    4822.4663            1 
   72200    1.8760236   -4.9579303    4817.5924            2 
   72300    1.8609141   -4.9273294    4810.7381            1 
   72400    1.8587451   -5.0075092    4802.6704            1 
   72500    1.8916131   -4.9830408    4826.2937            1 
   72600    1.8548984    -4.951194    4831.8895            1 
   72700    1.8646129    -5.005526    4780.0378            3 
   72800    1.8901544   -5.0014092    4803.6457            2 
   72900    1.8643398   -5.0012486    4810.3809            2 
   73000    1.8934859   -4.9579565     4799.404            1 
   73100    1.8626944   -4.9123932    4808.5955            1 
   73200    1.8641709   -4.9700846    4827.8285            1 
   73300      1.91575   -4.9549445    4829.5338            1 
   73400    1.8557666   -4.9365179    4797.3368            1 
   73500      1.87435   -4.9432894    4826.8661            2 
   73600    1.9072588   -4.9746829    4854.1679            1 
   73700    1.8674544   -4.9626789    4828.8786            2 
   73800    1.8487388   -4.9743118    4793.7087            2 
   73900    1.8777426   -4.9614606    4814.7829            1 
   74000    1.8899638   -4.9811839    4825.8863       -1e+20 
   74100    1.8595171   -5.0053398    4808.9647            2 
   74200    1.8688377    -5.007409    4799.7278            1 
   74300    1.8742979   -4.9615014    4852.3007            1 
   74400    1.8635734   -4.9599869    4824.6887            1 
   74500    1.8909073   -4.9632506    4803.7056            1 
   74600    1.8641519   -5.0079054    4816.3904            1 
   74700    1.9008973   -5.0134997    4810.2267            1 
   74800    1.8182279   -4.9480636    4804.1837            2 
   74900    1.8821867   -4.9346393    4809.0869            1 
   75000    1.8663722    -4.951352    4819.5446            2 
   75100    1.8301895   -4.9845526    4814.0043            2 
   75200     1.907991   -4.9992948    4787.4568       -1e+20 
   75300    1.8903899   -4.9030574    4850.0668            1 
   75400    1.8713752   -4.9161086    4829.1254            1 
   75500      1.85314   -4.9457833    4821.2962            1 
   75600    1.9037596   -4.9483415    4836.9837            2 
   75700    1.8540091   -4.9736264    4831.8873            1 
   75800    1.8680679   -4.9807866    4797.2388            1 
   75900    1.8612252   -4.9238108    4809.3547            1 
   76000    1.8341488   -4.9478068    4833.4261            1 
   76100    1.8997976   -4.9917267    4813.2257            2 
   76200    1.8591872   -4.9486542    4802.2324            1 
   76300    1.8366166   -5.0076285    4787.4153            2 
   76400    1.8662697   -4.9841419    4807.4638            1 
   76500    1.8779384   -4.9673593    4811.0739            1 
   76600    1.8692209   -4.9824952    4811.6432            1 
   76700    1.8763544   -5.0071303    4811.2901            1 
   76800    1.8952046   -4.9601974    4829.1835            1 
   76900    1.8508893    -4.975281    4798.1338            1 
   77000    1.8599027    -4.977593    4820.2377            1 
   77100    1.8886178   -4.9599771    4822.9703            2 
   77200    1.8846777   -4.9791355     4817.582            1 
   77300    1.8582076   -4.9517394    4816.7409            2 
   77400    1.8724153   -4.9914545    4814.0393            2 
   77500    1.8473901   -4.9779787    4772.4886            1 
   77600    1.8793576   -4.9948387    4821.9369            1 
   77700    1.8636054   -4.9458718    4838.5701            1 
   77800    1.9036619   -4.9460914     4824.428            2 
   77900    1.8463632   -4.9720555    4823.2481            1 
   78000    1.8698406     -5.00862    4800.6048            1 
   78100     1.873778   -4.9766052    4782.9772            1 
   78200    1.8652241   -4.9567681    4842.5807            1 
   78300    1.8631865   -4.9790554    4831.8222            1 
   78400    1.8987619   -4.9127204    4802.7807            2 
   78500    1.8649146   -4.9419769    4831.3914            1 
   78600    1.8769253   -4.9777485    4823.3758            2 
   78700    1.8901999   -4.9815443    4822.1281            1 
   78800     1.865785   -4.9701386    4821.9615            1 
   78900    1.8946262    -4.965051    4818.1919            1 
   79000    1.8954086   -4.9285042    4844.2075            1 
   79100    1.8341687   -4.9560335    4841.4162            1 
   79200    1.8628873   -4.9535112    4816.3818            1 
   79300    1.9184961   -4.9611013    4824.8663            1 
   79400    1.8608446   -4.9562767    4809.3739            1 
   79500    1.8603696   -4.9567487    4825.0386            1 
   79600    1.8770778   -4.9159443    4838.0023            1 
   79700    1.8838621   -4.9456083    4817.6968       -1e+20 
   79800    1.8586271   -4.9796053    4807.8227            1 
   79900    1.8746353    -4.956941     4817.117       -1e+20 
   80000    1.8473438   -4.9753342    4828.3765            2 
   80100    1.8847303   -4.9187164    4831.7292            3 
   80200    1.8598553   -4.9290196    4823.4162            1 
   80300    1.8386621   -4.9676787    4809.5069            1 
   80400    1.8962309   -4.9616548    4809.5969            1 
   80500    1.8527489   -4.9297613    4823.7507            1 
   80600    1.8570563   -5.0410229    4819.2377            3 
   80700    1.8879047   -5.0060766    4768.9884            1 
   80800    1.8567962   -4.9864398    4800.1098            1 
   80900    1.8660984   -4.9532501    4819.7099            1 
   81000    1.8467517   -4.9799848    4807.0899            1 
   81100    1.8412979   -4.9740566    4778.4232            1 
   81200     1.854604   -4.9143633    4830.7808            1 
   81300    1.8634529    -4.940026    4850.9556            2 
   81400    1.8031976   -4.9226353    4802.2609            1 
   81500    1.8581118   -4.9488694    4809.6997            1 
   81600    1.8945378   -4.9739911    4845.2482            1 
   81700    1.8349019   -4.9382618     4830.821            1 
   81800    1.8941651   -4.9376007    4798.8724            2 
   81900    1.8753318   -4.9468881    4853.7582            1 
   82000    1.8659936   -4.8992252    4873.8364            2 
   82100    1.8570995   -4.9170472    4808.2312            2 
   82200    1.8497852   -4.9339799    4819.3375            1 
   82300    1.8659427    -4.945964    4804.2172            1 
   82400     1.864537   -4.9663349    4803.9537            1 
   82500    1.8349283   -4.9482078    4841.9248            1 
   82600    1.9086057   -4.9180008    4821.9662            1 
   82700     1.869612   -4.9506694    4833.2705            1 
   82800     1.835245   -4.9965072      4813.11            1 
   82900    1.8786791   -4.9430538    4784.7432            1 
   83000    1.8397444   -4.9500973    4823.6753            1 
   83100      1.90029   -4.9583812    4828.8127            1 
   83200    1.8432883   -4.9330433    4810.2021            2 
   83300    1.8942209   -4.9292077    4812.6831            1 
   83400    1.8677467   -4.9945665    4820.4549            1 
   83500    1.8533529   -4.9715356    4806.7672       -1e+20 
   83600    1.8792057   -4.9437019    4809.1334            1 
   83700    1.8625748   -4.9963135    4816.5778            1 
   83800    1.8209138   -4.9823911    4763.9197            1 
   83900    1.8621397   -5.0092892    4778.1317            1 
   84000    1.8530515   -4.9679661     4815.626            1 
   84100    1.8780317   -4.9656843    4840.3944            3 
   84200    1.8670359   -4.9567445    4833.3069            1 
   84300    1.9030372    -4.934492    4839.7354            2 
   84400    1.8811206   -4.9463509      4841.08            2 
   84500    1.8734292   -4.9603528    4820.7187            2 
   84600    1.8950598    -4.977783    4809.3809            1 
   84700    1.8258277   -4.9739737    4810.0472            1 
   84800    1.9050607   -5.0080774    4817.5081            2 
   84900    1.8587848   -4.9984383    4818.0566            1 
   85000    1.9005307    -4.933826    4818.9932            1 
   85100    1.9000473   -4.9424705    4811.0757            1 
   85200    1.8562201   -5.0035756    4810.0941            1 
   85300    1.8239666   -4.9075355    4810.1597            2 
   85400    1.8841371   -4.9187668    4835.1187            1 
   85500    1.8737281   -4.9811072    4830.3542            2 
   85600    1.8481973   -4.9654703    4808.7973       -1e+20 
   85700    1.9230641    -4.993385     4825.429            2 
   85800    1.8584701   -4.9567002    4819.8046            1 
   85900    1.8562317   -4.9223584    4806.3959            1 
   86000    1.8481442   -4.9293407    4830.1241            2 
   86100    1.8708682   -4.9241749     4830.151            1 
   86200    1.9056069   -4.9663648    4858.6127            1 
   86300    1.8818442   -4.9641908    4844.1979            1 
   86400    1.8858024   -4.9320896    4778.6754            2 
   86500    1.8799144   -4.9740969     4824.592            1 
   86600     1.838353   -4.9537169    4842.0201            1 
   86700    1.9045814   -4.9670593    4781.9964            1 
   86800     1.871813   -5.0213874    4807.6713            1 
   86900    1.8480104   -5.0233938    4806.1308            2 
   87000    1.8513383   -4.9709016    4773.4877            2 
   87100    1.8634168   -4.9630426    4845.1253            2 
   87200    1.8856987   -4.9991537    4810.4489            2 
   87300    1.8729438   -4.9862574    4803.9876            1 
   87400    1.8481045    -4.970193    4807.4336            1 
   87500    1.8841965    -4.965112    4808.1149            1 
   87600    1.8733101   -4.9382102    4836.4374            3 
   87700    1.8688252   -4.9725271    4824.3408            1 
   87800     1.884666   -5.0010569    4792.4029            1 
   87900    1.8771612   -4.9378824    4813.7425            1 
   88000    1.8594014   -4.9490619    4846.3129            1 
   88100    1.8812669   -5.0096112    4807.9811            1 
   88200    1.8859812   -5.0113555    4791.0959            1 
   88300    1.8482839   -4.9949526    4815.5991       -1e+20 
   88400     1.891476   -4.9879844    4821.3083            1 
   88500    1.8628869   -4.9218646    4811.6168            1 
   88600    1.8990545   -4.9553164    4820.9932            3 
   88700    1.8293262   -4.9494987    4850.9286            1 
   88800    1.8882111   -4.9641459     4796.932            1 
   88900    1.8453126   -4.9326491    4793.8133            1 
   89000     1.867323   -4.9814131     4850.096            1 
   89100    1.9163759   -4.9390225    4817.6304            1 
   89200    1.8903527   -4.9874189    4804.2962            2 
   89300    1.8497216   -5.0008243    4815.7393            1 
   89400    1.8684658   -4.9282182    4820.7517            1 
   89500    1.9030725    -4.936527    4826.6339       -1e+20 
   89600    1.8782676   -4.8867036    4893.2949            1 
   89700    1.8822807    -4.915722     4823.742            1 
   89800    1.8925869   -4.9707914    4819.7164            1 
   89900    1.8353884   -4.9677122    4827.5369            1 
   90000    1.8591373     -4.96899    4803.6588       -1e+20 
   90100    1.8700781   -4.9119665    4795.9047            1 
   90200      1.86516   -4.9208137    4837.4165            1 
   90300    1.8344834   -4.9350915     4823.691       -1e+20 
   90400    1.9226662   -4.9736858    4803.9408            2 
   90500      1.84195   -4.9770717    4813.4812            1 
   90600     1.853356   -4.9182128    4806.3512       -1e+20 
   90700    1.8961853    -4.889908    4855.1794            1 
   90800    1.8859436   -4.9129554    4832.8902            1 
   90900    1.8545653    -4.941789    4830.4103            1 
   91000    1.8699866   -4.9468288    4815.8776            1 
   91100    1.8840751   -4.9594113    4824.5273       -1e+20 
   91200    1.8341845   -4.9688341    4814.1105            1 
   91300    1.8753288    -4.950187    4789.3264            1 
   91400    1.8481594   -4.9589097    4832.8002            2 
   91500    1.8686465   -4.9326274    4853.6196            1 
   91600    1.9331659   -4.9340409    4804.1349            1 
   91700    1.8294455   -4.9390578     4830.426            2 
   91800    1.8991404   -4.9753394     4832.859            1 
   91900    1.8400573   -4.9534238    4807.1887            1 
   92000    1.8895618   -4.9236012    4810.8623            2 
   92100    1.8482863   -4.9486431    4832.1816            1 
   92200    1.8289477   -4.9724283    4806.5636            2 
   92300    1.9068986   -4.9769299    4817.9451            1 
   92400     1.871276   -4.9903515    4820.8901       -1e+20 
   92500    1.8581967   -5.0041938    4787.4867            2 
   92600    1.8489245   -4.9930064    4776.0372       -1e+20 
   92700    1.8472308   -4.9523125    4831.2078            1 
   92800    1.9017732   -4.9745924    4833.2907       -1e+20 
   92900    1.8595409   -4.9645244    4830.0809            1 
   93000    1.8876644   -4.9082902    4832.7744            2 
   93100    1.8695146    -4.917849    4825.9471            2 
   93200    1.8758364   -4.9671175    4806.1374            1 
   93300    1.8888216    -5.007906     4798.714            1 
   93400    1.8541677   -5.0293437    4809.1041            1 
   93500    1.8977124   -4.9574109    4806.8182            1 
   93600    1.8914617   -4.8936247    4830.9763            2 
   93700    1.8543831   -4.9147898    4852.6208            3 
   93800    1.8832188   -4.9441736    4810.0092            3 
   93900    1.8502333   -4.9412661    4815.2257            1 
   94000    1.8781895   -5.0097022    4822.6543            4 
   94100    1.8816878   -5.0084506     4790.432            1 
   94200    1.8769231   -4.9649281    4815.8852            2 
   94300    1.8400371   -4.9509989    4820.8946            1 
   94400    1.8595721   -4.9644035    4804.7834            1 
   94500    1.8478374   -4.9274818    4830.9389            1 
   94600    1.8868954   -4.9151682    4852.0548            1 
   94700    1.8851956   -4.9387488     4839.849       -1e+20 
   94800    1.8252646   -4.9450494    4847.5887            1 
   94900    1.9090435   -4.9635769    4831.9744            1 
   95000    1.8533202   -4.9379671     4810.163            4 
   95100    1.9091944   -4.9298499    4823.7581            1 
   95200    1.8805999   -4.9644517    4798.8271            2 
   95300    1.8421562   -4.9817066    4804.6367            1 
   95400    1.8775171   -4.9612126    4842.4914            1 
   95500     1.900065   -4.9354409    4811.5063            1 
   95600    1.8656361   -4.9827421    4825.2767            1 
   95700     1.853639   -4.9731627    4802.0833            2 
   95800    1.8881695   -4.9459934    4804.2776            1 
   95900    1.8687289   -4.9727101    4846.8199            1 
   96000    1.8345474   -4.9549866    4819.8505            1 
   96100    1.8870592   -4.9236976    4803.1924            1 
   96200    1.8533845   -4.9612848     4820.487            2 
   96300     1.835521    -4.958817    4817.0907            2 
   96400    1.8948154   -4.9348118    4800.5799            1 
   96500     1.861723   -4.9773756    4823.2908            2 
   96600    1.8296616   -4.9746525     4792.331            2 
   96700    1.8673764    -4.954293    4812.8707            1 
   96800    1.9010974   -4.9803436    4843.7159            1 
   96900    1.8410849   -4.9655116    4839.8588            1 
   97000    1.9176298   -5.0102855    4780.5289            1 
   97100    1.8365564    -4.989331    4812.3819            1 
   97200    1.8651112   -4.9631901    4831.2606            1 
   97300    1.8734851    -4.892419    4834.1179            1 
   97400    1.8918796   -4.9681129    4832.5601            2 
   97500    1.8486586   -4.9269182    4842.0099            1 
   97600    1.8682722   -4.9342434    4819.4027            1 
   97700    1.8817612   -4.9551263     4797.096            1 
   97800    1.8638556   -4.9265541    4862.9874            1 
   97900    1.9635552   -4.9124327    4852.7592            1 
   98000    1.8774692    -4.912518    4849.3075            1 
   98100    1.8813329    -4.983247    4809.7365            1 
   98200    1.8743314   -4.9582584    4818.0795            1 
   98300    1.8695643   -4.9423966    4836.1948            1 
   98400    1.8651222   -4.9108424     4825.801            1 
   98500    1.8776529   -4.9960187    4797.4509            1 
   98600    1.8584047   -5.0367069    4804.3779            1 
   98700    1.8873996   -4.9833787    4809.5038            1 
   98800    1.8940907   -4.9587785     4793.182            1 
   98900    1.8323146   -4.9774985    4851.1044            1 
   99000    1.9061014   -4.9711204    4820.4089            1 
   99100    1.8809587   -4.9712524    4807.4175            1 
   99200    1.8305832   -4.9650078    4822.4386            1 
   99300     1.899214   -4.9670522    4807.6812            1 
   99400    1.8859938   -4.9018465    4827.5762            1 
   99500    1.8446939   -4.9363241    4850.1507            1 
   99600    1.8879412   -4.9610219    4787.8119            2 
   99700    1.8774691   -4.9946836     4835.638            1 
   99800    1.8464235   -4.8968431     4840.134            1 
   99900    1.9084306   -4.8890212    4850.0837            1 
  100000      1.89093   -4.9432442    4828.9941       -1e+20 
  100100    1.8699379   -4.9495607    4813.3042            1 
  100200    1.8225983   -5.0000821    4809.7169            1 
  100300    1.8643398   -4.9404046    4814.7217            1 
  100400    1.8860134   -4.9150897     4821.031            1 
  100500    1.8243232   -4.9386111      4838.05            1 
  100600    1.8958291   -4.9589656    4818.1147            1 
  100700    1.9092314   -4.9173699    4847.3377            1 
  100800    1.8662596   -4.8994406    4833.5098       -1e+20 
  100900    1.8446115   -4.9462709    4833.8385            1 
  101000    1.8716137    -4.953144    4793.7388            1 
  101100    1.8748671   -4.9723108    4816.1291            3 
  101200    1.8410529   -4.9916471    4841.5798            1 
  101300    1.9162867   -4.9424822    4783.2788            1 
  101400    1.8478545   -4.9433221    4829.9572            3 
  101500     1.848521   -4.9381677    4844.8744       -1e+20 
  101600    1.8857553   -4.8775185    4820.9836            1 
  101700    1.8860155    -4.938132    4850.5699            1 
  101800    1.8650096   -4.9773172    4820.6056            1 
  101900    1.8926356   -4.9977539    4816.2041            3 
  102000    1.8415457   -4.9706043    4800.4735            1 
  102100    1.9216084    -4.981598    4805.0661            1 
  102200    1.8567527   -4.9672452    4828.0579            2 
  102300    1.9307993   -4.9634539     4830.125            2 
  102400    1.8452003    -4.931463    4807.8247       -1e+20 
  102500    1.8350554   -5.0188095     4813.523            1 
  102600    1.8654914   -4.9571203    4813.4047            1 
  102700    1.8952787   -4.9307878    4824.4752            2 
  102800    1.8538609   -4.9220946    4837.4968            1 
  102900    1.8728629   -4.9905298    4815.8876            3 
  103000    1.8967626   -5.0075506    4820.1353            1 
  103100    1.8848962   -4.9693219    4808.9605            1 
  103200    1.8219875   -4.9782421    4806.0396       -1e+20 
  103300    1.8767124   -4.9660574    4812.2938            1 
  103400    1.8594041   -4.9919681    4802.2988            1 
  103500    1.8491059   -5.0072884    4800.8613            1 
  103600    1.8916636   -4.9636596    4799.6479            2 
  103700    1.8873647   -4.9980845    4837.0756            1 
  103800    1.8331651   -4.9164099    4834.2569            1 
  103900    1.9038301   -4.9493077    4794.6946            1 
  104000    1.8394674   -4.9870745    4826.9542            1 
Loop time of 171.331 on 32 procs for 100000 steps with 4000 atoms

Performance: 100857.581 tau/day, 583.667 timesteps/s
99.7% CPU use with 32 MPI tasks x no OpenMP threads

MPI task timing breakdown:
Section |  min time  |  avg time  |  max time  |%varavg| %total
---------------------------------------------------------------
Pair    | 13.356     | 13.464     | 13.613     |   1.6 |  7.86
Neigh   | 2.4908     | 2.5121     | 2.5974     |   1.2 |  1.47
Comm    | 8.8047     | 9.5525     | 11.168     |  23.0 |  5.58
Output  | 3.9401     | 3.9408     | 3.9527     |   0.1 |  2.30
Modify  | 138.15     | 140.43     | 141.43     |   8.8 | 81.96
Other   |            | 1.434      |            |       |  0.84

Nlocal:        125.000 ave         132 max         116 min
Histogram: 1 5 1 1 2 6 6 3 4 3
Nghost:        1734.78 ave        1761 max        1712 min
Histogram: 2 1 3 6 8 6 4 0 1 1
Neighs:        11812.5 ave       12671 max       10802 min
Histogram: 2 0 5 2 6 3 6 2 2 4
FullNghs:      23625.1 ave       25173 max       21938 min
Histogram: 4 2 1 3 5 2 2 8 3 2

Total # of neighbors = 756002
Ave neighs/atom = 189.00050
Neighbor list builds = 8083
Dangerous builds = 133

#clear
#
#next RN
#
#jump SELF
Total wall time: 0:02:52
