
units lj                  # Use reduced LJ style units
atom_style atomic         # Uncharged point particles
atom_modify map hash      # Needed for indexing of clusters etc
                          # Used to be able to find where atoms are in relation to each other.

lattice fcc 1.0 spacing 1 1 1
Lattice spacing in x,y,z = 1.5874011 1.5874011 1.5874011
region box block 0 10 0 10 0 10 units lattice
create_box 2 box
Created orthogonal box = (0.0000000 0.0000000 0.0000000) to (15.874011 15.874011 15.874011)
  3 by 4 by 4 MPI processor grid
create_atoms 1 box
Created 4000 atoms
  using lattice units in orthogonal box = (0.0000000 0.0000000 0.0000000) to (15.874011 15.874011 15.874011)
  create_atoms CPU = 0.037 seconds
set type 1 type/fraction 2 0.44 78393
Setting atom values ...
  1760 settings made for type/fraction
mass 1 1.0
mass 2 1.0
pair_style lj/cut  3.5
pair_modify tail  yes
pair_coeff 1  1  1.0  1.0   # Intearaction between 1 and 1 set with epsilon = 1 and sigma = 1
pair_coeff 1  2  1.5  0.8
pair_coeff 2  2  0.5  0.88

write_data data.0
System init for write_data ...
Neighbor list info ...
  update every 1 steps, delay 10 steps, check yes
  max neighbors/atom: 2000, page size: 100000
  master list distance cutoff = 3.8
  ghost atom cutoff = 3.8
  binsize = 1.9, bins = 9 9 9
  1 neighbor lists, perpetual/occasional/extra = 1 0 0
  (1) pair lj/cut, perpetual
      attributes: half, newton on
      pair build: half/bin/atomonly/newton
      stencil: half/bin/3d
      bin: standard
WARNING: Not all mixed pair coeffs generated from mixing. Use write_data with 'pair ij' option to store all pair coeffs. (../write_data.cpp:312)


#############################
#   M E L T   S Y S T E M   #
#############################

velocity all create 2.4 8172548 mom yes dist gaussian # Assign velocities
                                                    # Temperature 2.4, random number seed, zero linear momentum
                                                                                # Gaussian distribution

timestep 0.002   # simulation timestep
thermo 1000       # output thermodynamic data every 1000 steps bf 100

# Define a fix  in this case with index 1 applied to all
# particles in the simulation. This fix is for simulations
# in the anisotropic NPT ensemble. Note that we use the MTK
# correction.
fix 1 all npt temp 2.4 2.4 0.1 iso 5.68 5.68 0.5 mtk yes tchain 5 pchain 5 # Use NPT ensemble
                                                                         # Set temperature and pressure and damping
                                                                         # Numbers of thermostats in chain and in barostat
run 10000          # run for 10000 steps
Per MPI rank memory allocation (min/avg/max) = 3.642 | 3.644 | 3.648 Mbytes
Step Temp E_pair E_mol TotEng Press Volume 
       0          2.4   -5.6445478            0   -2.0454478   -4.2010474         4000 
    1000    2.4375644   -4.9783824            0   -1.3229499    5.6198626    3828.2169 
    2000     2.340568   -4.9566925            0   -1.4467182    5.7392432    3821.9063 
    3000    2.4121276   -4.9812011            0   -1.3639143     5.286528    3859.3954 
    4000    2.3597674    -5.007506            0   -1.4687399     5.799123    3787.6102 
    5000    2.3493756   -5.0214947            0   -1.4983124    5.3198874    3825.2855 
    6000    2.3970244   -4.9756174            0   -1.3809797    6.0198659    3792.4799 
    7000    2.4202993   -5.0246969            0   -1.3951555    5.9130826    3778.1537 
    8000    2.4552164   -4.9775882            0   -1.2956842    5.4795713    3842.8637 
    9000    2.4084405   -4.9729734            0   -1.3612158    5.7456604    3815.2442 
   10000    2.3739796   -5.0279475            0   -1.4678684    5.8208497     3782.726 
Loop time of 2.56866 on 48 procs for 10000 steps with 4000 atoms

Performance: 672723.737 tau/day, 3893.077 timesteps/s
99.6% CPU use with 48 MPI tasks x no OpenMP threads

MPI task timing breakdown:
Section |  min time  |  avg time  |  max time  |%varavg| %total
---------------------------------------------------------------
Pair    | 1.1531     | 1.2071     | 1.3347     |   3.1 | 46.99
Neigh   | 0.21129    | 0.21885    | 0.24121    |   1.0 |  8.52
Comm    | 0.7771     | 0.87724    | 0.97013    |   4.9 | 34.15
Output  | 0.00023556 | 0.00024173 | 0.00031006 |   0.0 |  0.01
Modify  | 0.19999    | 0.25001    | 0.30155    |   5.1 |  9.73
Other   |            | 0.0152     |            |       |  0.59

Nlocal:        83.3333 ave          93 max          75 min
Histogram: 3 3 5 11 4 7 6 4 3 2
Nghost:        1704.81 ave        1750 max        1677 min
Histogram: 6 7 4 8 9 7 2 4 0 1
Neighs:        10075.5 ave       11240 max        8728 min
Histogram: 3 2 5 7 4 9 2 7 4 5

Total # of neighbors = 483626
Ave neighs/atom = 120.90650
Neighbor list builds = 907
Dangerous builds = 212

# Equilibrate just above the melting temperature to avoid step fn in T

fix 1 all npt temp 1.25 1.25 0.1 iso 5.68 5.68 0.5 mtk yes tchain 5 pchain 5
run 2000
Per MPI rank memory allocation (min/avg/max) = 3.643 | 3.645 | 3.649 Mbytes
Step Temp E_pair E_mol TotEng Press Volume 
   10000    2.3739796   -5.0279475            0   -1.4678684    5.8208497     3782.726 
   11000    1.2668158    -7.049009            0   -5.1492605    5.6411708    3003.4632 
   12000    1.2652789   -7.1307748            0   -5.2333309    5.7029861     2982.326 
Loop time of 0.615593 on 48 procs for 2000 steps with 4000 atoms

Performance: 561409.930 tau/day, 3248.900 timesteps/s
99.6% CPU use with 48 MPI tasks x no OpenMP threads

MPI task timing breakdown:
Section |  min time  |  avg time  |  max time  |%varavg| %total
---------------------------------------------------------------
Pair    | 0.27619    | 0.30094    | 0.31995    |   1.9 | 48.89
Neigh   | 0.039867   | 0.042613   | 0.0446     |   0.5 |  6.92
Comm    | 0.19908    | 0.22314    | 0.25078    |   2.4 | 36.25
Output  | 5.0193e-05 | 5.2251e-05 | 6.9115e-05 |   0.0 |  0.01
Modify  | 0.039471   | 0.044123   | 0.048725   |   1.3 |  7.17
Other   |            | 0.004723   |            |       |  0.77

Nlocal:        83.3333 ave          93 max          77 min
Histogram: 3 4 2 22 4 7 1 2 2 1
Nghost:        2009.15 ave        2036 max        1994 min
Histogram: 6 5 7 9 14 3 1 0 1 2
Neighs:        12809.5 ave       14428 max       11426 min
Histogram: 2 2 5 8 12 9 4 2 3 1

Total # of neighbors = 614858
Ave neighs/atom = 153.71450
Neighbor list builds = 145
Dangerous builds = 8

#############################
# L I N E A R  Q U E N C H  #
#############################

# Define solid atoms. This closely follows ten Wolde  Ruiz-Montero and Frenkel  Faraday Discuss  1996  104  93-110
# Compute components of the per-atom q6 vector
compute q6 all orientorder/atom degrees 1 6 components 6 nnn NULL cutoff 1.3 # compute the Q6 parameter.
                                                                             # Use all neighbours within 1.3 unit cell.

# get number of connections
compute coord_number all coord/atom orientorder q6 0.5

# An atom is solid if it has 8 or more connections (of a possible 14)
variable is_solid atom c_coord_number>=8
group solid dynamic all var is_solid    # Must be dynamic to update
dynamic group solid defined

# do clustering
compute cluster solid cluster/atom 1.3 # Create a cluster where all atoms within are solid and max 1.3 units from another member

# define chunks one chunk per cluster
compute clus_chunks solid chunk/atom c_cluster nchunk every compress yes  # Says which atoms are in which chunk

# count the size of each chunk
compute size_chunks solid property/chunk clus_chunks count


# Find the maximum entry in the vector of chunk sizes
variable max_n equal max(c_size_chunks)


# Thermo style which includes this variable
# thermo_style custom step temp pe vol v_max_n

thermo ${N}  # Print the thermo information every 100 steps
thermo 1000  

# Reset the npt fix at a lower temperature (below freezing)
fix 1  all npt temp  ${temp} ${temp}  0.1  iso  5.68  5.68  0.5  mtk yes tchain  5  pchain  5
fix 1  all npt temp  0.45 ${temp}  0.1  iso  5.68  5.68  0.5  mtk yes tchain  5  pchain  5
fix 1  all npt temp  0.45 0.45  0.1  iso  5.68  5.68  0.5  mtk yes tchain  5  pchain  5

dump dmp2 all dcd ${N} traj.dcd
dump dmp2 all dcd 1000 traj.dcd


compute msd all msd com yes
variable twopoint equal c_msd[4]/6/(step*dt+1.0e-6)
fix 9 all vector 10 c_msd[4]
variable fit equal slope(f_9)/6/(10*dt)
thermo_style custom step temp pe c_msd[4] v_twopoint v_fit v_max_n

fix 1 all npt temp 1.25 ${temp} 0.1 iso 5.68 5.68 0.5 mtk yes tchain 5 pchain 5
fix 1 all npt temp 1.25 0.45 0.1 iso 5.68 5.68 0.5 mtk yes tchain 5 pchain 5
run 500000 # 5000000  # Run for this many steps
Neighbor list info ...
  update every 1 steps, delay 10 steps, check yes
  max neighbors/atom: 2000, page size: 100000
  master list distance cutoff = 3.8
  ghost atom cutoff = 3.8
  binsize = 1.9, bins = 8 8 8
  4 neighbor lists, perpetual/occasional/extra = 1 3 0
  (1) pair lj/cut, perpetual
      attributes: half, newton on
      pair build: half/bin/atomonly/newton
      stencil: half/bin/3d
      bin: standard
  (2) compute orientorder/atom, occasional
      attributes: full, newton on
      pair build: full/bin/atomonly
      stencil: full/bin/3d
      bin: standard
  (3) compute coord/atom, occasional
      attributes: full, newton on
      pair build: full/bin/atomonly
      stencil: full/bin/3d
      bin: standard
  (4) compute cluster/atom, occasional
      attributes: full, newton on
      pair build: full/bin/atomonly
      stencil: full/bin/3d
      bin: standard
Per MPI rank memory allocation (min/avg/max) = 9.832 | 9.837 | 9.844 Mbytes
Step Temp PotEng c_msd[4] v_twopoint v_fit v_max_n 
   12000    1.2652789   -7.1307748            0            0 8.3333333e+20            2 
   13000    1.2460142   -7.1592667   0.44810337 0.0028724574  0.036956266            2 
   14000    1.2394906   -7.1379677    0.8574344  0.005103776  0.034709818            2 
   15000    1.2448403   -7.1611691    1.2413538 0.0068964096  0.033918651            4 
   16000    1.2448367   -7.1610811     1.666806 0.0086812809  0.033559797            1 
   17000    1.2315717     -7.14557    2.0716891  0.010155338  0.033709026            1 
   18000    1.2288066   -7.1543668    2.4454544  0.011321548  0.033639305            1 
   19000    1.2342932   -7.1403868    2.8577107  0.012533819  0.033535827            1 
   20000     1.259941   -7.2526465    3.2657042  0.013607101  0.033576045            2 
   21000    1.2609347   -7.2026781     3.697145   0.01467121  0.033642455            1 
   22000    1.2537596   -7.1724814    4.0774139  0.015444749  0.033617829            1 
   23000     1.220285   -7.1873305    4.5057498   0.01632518   0.03361762            2 
   24000    1.2319923   -7.1448759    4.8797927  0.016943724  0.033603083            2 
   25000    1.2286281   -7.2095904    5.2912717  0.017637572  0.033595512            1 
   26000    1.2400108    -7.183568    5.7866279  0.018546884  0.033722568            1 
   27000    1.2184274   -7.1688159    6.1774118  0.019066085  0.033853312            1 
   28000    1.2325475   -7.1860926    6.5345105  0.019447948  0.033909814            1 
   29000    1.2142504   -7.2066929    6.9617938  0.020005154  0.033920284            1 
   30000    1.2004816   -7.1839795    7.2326239  0.020090622   0.03375606            2 
   31000    1.2065003   -7.2743449    7.5495856  0.020294585  0.033591031            3 
   32000    1.2090738   -7.1910169    7.9689739  0.020752536  0.033402386            2 
   33000    1.2197861   -7.2086588    8.2564191  0.020849543  0.033190866            1 
   34000    1.2514938   -7.2242189    8.5997438  0.021077803  0.032972373            3 
   35000    1.2056022   -7.2673467    8.9501355  0.021309846  0.032803215            2 
   36000    1.2159166   -7.2217966     9.180631   0.02125146  0.032572235            1 
   37000    1.2078805   -7.2193692    9.5608144  0.021533365  0.032310151            1 
   38000    1.2316182   -7.2476383    9.8858708  0.021679541  0.032080787            1 
   39000    1.2237837   -7.2243936    10.260341  0.021923806  0.031861635            1 
   40000    1.2182041   -7.2557001    10.660554  0.022209488  0.031710679            1 
   41000    1.2041979   -7.2688481    10.989946  0.022337289  0.031557962            2 
   42000      1.23738   -7.2771098    11.462825    0.0227437  0.031455897            1 
   43000    1.1841661   -7.2555995     11.85182  0.022968643  0.031404571            2 
   44000    1.1799979   -7.2553372    12.146427  0.023004597  0.031350226            3 
   45000    1.1946719   -7.2423845    12.482094  0.023114989  0.031271507            7 
   46000    1.1913265   -7.2781569    12.792566  0.023174938  0.031185846            1 
   47000    1.1896302   -7.2758672    13.047873  0.023134526  0.031087331            2 
   48000    1.2005289   -7.2758331    13.429125  0.023314453  0.030973693            1 
   49000    1.1954333   -7.2558516    13.815095  0.023495059  0.030889235            2 
   50000    1.1952932   -7.2852874    13.948569  0.023247614   0.03076243            1 
   51000    1.1881333    -7.306261     14.36299  0.023468938  0.030654917            2 
   52000    1.1999192   -7.3601553    14.570824   0.02335068  0.030540088            1 
   53000    1.1945822   -7.2779851    15.036604  0.023642459  0.030424455            2 
   54000    1.2072964   -7.2845285    15.343663  0.023678492  0.030318872            1 
   55000    1.1656526   -7.3207673    15.683237   0.02376248  0.030231746            2 
   56000    1.1694325   -7.3028433    16.027213   0.02385002  0.030151927            3 
   57000    1.1814637   -7.3039695    16.338322  0.023886435   0.03006559            4 
   58000    1.1617719   -7.3127887    16.703194  0.023998842  0.029991133            1 
   59000    1.1941788   -7.3547967    16.989906  0.023997042  0.029915247            1 
   60000    1.1690032   -7.3459839    17.304311  0.024033765  0.029843016            1 
   61000    1.1741295   -7.2975568    17.694709    0.0241731  0.029774204            1 
   62000     1.180251   -7.3200731     18.00667  0.024202513  0.029706759            2 
   63000    1.1655391   -7.2792269    18.301809  0.024208741  0.029635582            2 
   64000     1.179806    -7.337236    18.623822  0.024249768  0.029566945            4 
   65000    1.1709114   -7.3003926    19.052532  0.024426323   0.02949557            1 
   66000     1.141589   -7.3096284    19.219402  0.024266922  0.029432962            1 
   67000    1.1581648   -7.3443785     19.46953  0.024215833  0.029353349            2 
   68000    1.1659514   -7.3792798    19.703835  0.024146856  0.029270899            3 
   69000    1.1568106    -7.378236    19.951108  0.024095541  0.029182417            1 
   70000    1.1798435   -7.3604199    20.335134  0.024208492  0.029087091            1 
   71000    1.1987008   -7.3664442    20.650793   0.02423802  0.029000236            2 
   72000    1.1553717   -7.3593683    20.876551  0.024162675  0.028913877            2 
   73000    1.1647249   -7.3514299    21.070666  0.024053271  0.028817054            1 
   74000    1.1325355   -7.3345025    21.494334  0.024205331  0.028728563            3 
   75000     1.141802   -7.3462522    21.827835   0.02425315  0.028647112            5 
   76000    1.1384805   -7.3945746    21.951655  0.024069797  0.028556679            1 
   77000    1.1263027   -7.3665192    22.231204  0.024059745  0.028471756            4 
   78000    1.1474485   -7.3942259    22.453021   0.02398827  0.028380204            2 
   79000    1.1281875   -7.4027049     22.84209  0.024095032  0.028287548            1 
   80000    1.1436604    -7.378693    23.187195  0.024153328  0.028205692            4 
   81000    1.1206604   -7.4198903    23.409812  0.024084169  0.028126718            5 
   82000    1.1225508   -7.3976141    23.625232  0.024009382  0.028038951            1 
   83000    1.1431118   -7.4169861    24.118196  0.024215056  0.027962763            2 
   84000    1.1431422   -7.4253138    24.427818  0.024233946  0.027897317            3 
   85000    1.1498801   -7.4254069    24.769185  0.024283515  0.027842573            1 
   86000    1.1457503   -7.3827861    25.066299  0.024289049  0.027791013            2 
   87000    1.1355544   -7.4116591    25.417517   0.02434628  0.027738227            2 
   88000    1.1270617   -7.4292363    25.579194  0.024222722  0.027677435            2 
   89000    1.1329136    -7.457519    25.844494  0.024198964  0.027619728            1 
   90000    1.1001022   -7.4269173      26.1009    0.0241675    0.0275578            2 
   91000    1.1173131   -7.4558341    26.524268  0.024289623  0.027501676            8 
   92000    1.0903833   -7.4694627     26.76475  0.024243433  0.027449454            2 
   93000    1.0812004   -7.4021537    27.085486  0.024270148  0.027395635            2 
   94000    1.1264835   -7.4810263     27.33371  0.024232013  0.027347791            2 
   95000    1.0939531   -7.4488757     27.75303  0.024344763  0.027299916            2 
   96000    1.1232131    -7.482214    28.155595   0.02444062  0.027258787            2 
   97000    1.1034585   -7.5102492    28.061194  0.024107555  0.027210271            3 
   98000    1.1037252   -7.4638033    28.243093  0.024016236  0.027144626            2 
   99000    1.0953224   -7.4622395    28.556922  0.024037813   0.02708113            3 
  100000    1.1148543   -7.4898638     28.77567  0.023979725  0.027018737            2 
  101000    1.1067702   -7.4853082    29.161901  0.024060974  0.026958522            2 
  102000     1.087911   -7.5034559    29.363073  0.023989438  0.026899678            2 
  103000    1.1215255   -7.4664794     29.75415  0.024072937  0.026843447            1 
  104000    1.1186597   -7.4507338    29.976609  0.024019719  0.026788671            4 
  105000    1.1018157   -7.4944276    30.197101  0.023965953  0.026731097            2 
  106000    1.1083522   -7.5076744    30.380418  0.023883976  0.026675401            1 
  107000    1.0907929   -7.4933144    30.835722   0.02401536  0.026619506            4 
  108000    1.0831809   -7.5504507    30.901441  0.023843705  0.026563514            7 
  109000    1.0826782   -7.5160457    31.222537  0.023870441  0.026504121            2 
  110000    1.0827872   -7.5182385    31.339195  0.023741815  0.026439838            1 
  111000    1.1125618    -7.509124    31.455056  0.023614907  0.026372661            2 
  112000    1.0873395   -7.5098773    31.739752  0.023615886  0.026305039            3 
  113000    1.0917562   -7.5219247    31.982611  0.023585996  0.026236042            1 
  114000    1.1004564   -7.5114278    32.140207  0.023494303  0.026165565            2 
  115000    1.0794747   -7.5312019    32.465653  0.023525835  0.026098278            1 
  116000    1.0813099   -7.5527092    32.750584  0.023527718   0.02603215            2 
  117000    1.0689374   -7.5529122    33.002528  0.023506074  0.025969053            5 
  118000    1.0674125   -7.5653401    33.231134  0.023468315  0.025903446            4 
  119000    1.1019158   -7.5544969    33.549513  0.023494057  0.025844746            3 
  120000     1.083415   -7.5651778    33.705932  0.023406897  0.025783013            2 
  121000    1.0966266   -7.5904504    33.745463  0.023240677  0.025719099            2 
  122000    1.0663116   -7.6116393    34.034601  0.023247678  0.025650447            3 
  123000     1.054949   -7.5615015    34.332176  0.023260282  0.025582691            1 
  124000    1.0636302   -7.5806209    34.609734   0.02325923  0.025519061            1 
  125000    1.0644384   -7.5559629    34.805008  0.023203339  0.025452687            2 
  126000    1.0987723   -7.5864813    34.916116   0.02309267  0.025386154            2 
  127000    1.0682785   -7.6015541     35.30955  0.023168996  0.025324447            1 
  128000    1.0696306   -7.6283325     35.41744  0.023058229  0.025262614            4 
  129000    1.0254593   -7.6177953    35.826332  0.023143625  0.025201879            1 
  130000    1.0755584   -7.5496068     35.89122  0.023007192  0.025140617            4 
  131000     1.053759   -7.5885856    35.924818  0.022852938  0.025077215            1 
  132000    1.0499722   -7.6115685    36.168641  0.022833738   0.02501057            1 
  133000    1.0517103   -7.6217002    36.324293  0.022759582  0.024942697            1 
  134000    1.0647624    -7.644309    36.379228  0.022623898  0.024871073            2 
  135000    1.0603096   -7.6382451    36.755866  0.022688806  0.024801275            1 
  136000    1.0568947   -7.6529319     36.67307  0.022471244  0.024728712            4 
  137000    1.0552116   -7.6497475    36.934058  0.022465972  0.024653349            2 
  138000    1.0376505   -7.6300004    37.247765  0.022492611   0.02457899            4 
  139000     1.050091   -7.6567383    37.394819  0.022418956  0.024505929            2 
  140000    1.0363661   -7.6353239    37.427002  0.022277977   0.02443206            2 
  141000    1.0581432   -7.6791929    37.631838  0.022241039   0.02435729            1 
  142000    1.0352213   -7.6448501    37.883609  0.022232165  0.024284084            2 
  143000    1.0431481   -7.6552298    37.969507  0.022126752  0.024208401            2 
  144000    1.0393743   -7.6552481     38.24814   0.02213434  0.024132965            1 
  145000    1.0426583   -7.6965251     38.48364  0.022117034  0.024060515            1 
  146000    1.0419615   -7.6695952     38.69989  0.022088978  0.023987811            1 
  147000    1.0163098   -7.6655954    38.765238  0.021975759  0.023915461            3 
  148000    1.0348696   -7.7013374    38.965772  0.021940187  0.023845508            2 
  149000    1.0477667   -7.7123108    39.216464  0.021933145  0.023777689            1 
  150000    1.0191347   -7.6794455    39.443295  0.021912941  0.023709832            1 
  151000    1.0166327   -7.6731486    39.858682  0.021997065  0.023644294            1 
  152000    1.0297921    -7.698499    40.193328  0.022035816  0.023583919            3 
  153000    1.0384843   -7.7115799    40.365834  0.021985749  0.023524849            3 
  154000    1.0112315    -7.680529    40.332853  0.021825137  0.023463591            2 
  155000   0.99925693   -7.7579576    40.266814  0.021648825  0.023398912            4 
  156000    1.0287532    -7.684024    40.652776  0.021716226  0.023333749            2 
  157000    1.0170959   -7.7626947    40.866474  0.021691334  0.023271072            6 
  158000    1.0260261   -7.6992385    41.130473  0.021693288  0.023209507            3 
  159000    1.0283336   -7.7123825    41.238327  0.021613379  0.023148632            3 
  160000    1.0053376    -7.702155    41.404543  0.021564866  0.023087958            2 
  161000    1.0218669   -7.7480116    41.502513  0.021481632  0.023025737            3 
  162000   0.98689764   -7.7505174    41.682963  0.021441853  0.022964723            1 
  163000    0.9948432   -7.6962029    41.840306  0.021390749   0.02290305            3 
  164000    1.0154574   -7.7535682    42.031274  0.021357355  0.022839115            3 
  165000   0.99525691    -7.760416    42.202779  0.021314535  0.022775941            2 
  166000   0.99711209    -7.767136    42.201964  0.021185725  0.022711476            2 
  167000   0.99089398   -7.7805499    42.325992  0.021120755  0.022646783            4 
  168000    1.0103253   -7.7949263    42.321804  0.020992958  0.022579223            1 
  169000    1.0050076   -7.7721044    42.582938  0.020997504  0.022511124            3 
  170000   0.99559822   -7.7998535    42.741772  0.020951849  0.022444209            1 
  171000   0.99499964   -7.7255262    42.883165  0.020898228  0.022376076            2 
  172000   0.99390858    -7.736759    43.038476  0.020851975  0.022308385            5 
  173000    1.0084769   -7.8112101    43.142988  0.020781786  0.022241059            2 
  174000   0.99881663   -7.7830976    43.370978  0.020771541  0.022173059            1 
  175000   0.97505775   -7.8129086    43.294132  0.020616253  0.022104453            1 
  176000   0.98524466   -7.7813289    43.695528   0.02068917  0.022037625            2 
  177000   0.95646751   -7.7888021    43.827744  0.020634531  0.021972126            3 
  178000   0.98409132   -7.7586396    43.974194  0.020587169  0.021907731            3 
  179000   0.98337615   -7.8006385    44.131568  0.020545423  0.021843932            3 
  180000   0.98962793   -7.8000317    44.246289  0.020484393  0.021780563            2 
  181000   0.97980465   -7.8064962    44.289068  0.020390915  0.021716666            2 
  182000   0.96425316    -7.807904     44.68732  0.020461227  0.021654461            2 
  183000   0.97701309   -7.8510673    44.770343  0.020387223  0.021592612            3 
  184000   0.98616226   -7.8353942     44.92088  0.020344601  0.021531408            2 
  185000   0.94810182   -7.7992868     45.03116  0.020284306  0.021470372            2 
  186000   0.95999823   -7.8235347    45.267501  0.020281138  0.021409809            4 
  187000   0.97077359   -7.8211389    45.423839  0.020242353  0.021350248            2 
  188000   0.96306635   -7.8481549    45.417677  0.020131949  0.021289605            5 
  189000   0.96775407   -7.8671181    45.569429  0.020092341  0.021228539            2 
  190000   0.94303645   -7.8013866    45.903508  0.020133118  0.021169175            3 
  191000   0.96704137   -7.8553503    45.893764  0.020023457  0.021110062            1 
  192000   0.95897845    -7.849166    46.112225  0.020013986  0.021051214            2 
  193000   0.96927595   -7.8527384    46.237593  0.019964418  0.020992129            2 
  194000   0.95666097   -7.8623212    46.485806  0.019968129  0.020934039            2 
  195000   0.94203539   -7.8726263    46.651705  0.019936626  0.020876381            2 
  196000   0.96096588   -7.8803847    46.473038  0.019758945  0.020818804            3 
  197000   0.94434943   -7.8984864    46.979811  0.019873017  0.020761881            4 
  198000    0.9409884   -7.8750464     46.86619  0.019724828  0.020705139            2 
  199000   0.96711545   -7.8902092    47.046245  0.019701108  0.020647651            5 
  200000   0.93716117   -7.9175924    47.086586  0.019619411  0.020589782            3 
  201000   0.92906976   -7.9271174    47.302772  0.019611431  0.020531634            3 
  202000   0.95596959   -7.9160111    47.409971  0.019558569  0.020473032            4 
  203000   0.94342624   -7.9008193    47.336476  0.019432051  0.020414124            2 
  204000   0.96151838   -7.9016607    47.503594  0.019405063  0.020355192            2 
  205000   0.94001832   -7.9379746    47.427051  0.019279289  0.020295369            3 
  206000    0.9557101   -7.9091811    47.735493  0.019310475  0.020235797            4 
  207000    0.9406786   -7.9323253    47.725472  0.019213153  0.020176358            4 
  208000   0.93282228   -7.9421075    47.919779  0.019198629  0.020116826            3 
  209000   0.92344301   -7.9252523      48.0779  0.019169817  0.020056511            3 
  210000    0.9188391   -7.9719395    48.063022  0.019072628  0.019996541            2 
  211000   0.92908804   -7.9572071    48.169167  0.019024157  0.019936394            2 
  212000    0.9409198   -7.9459707    48.363667  0.019010875  0.019877245            4 
  213000   0.92969731   -7.9467042    48.395013  0.018933886  0.019817845            4 
  214000   0.92714998   -7.9399215    48.506163  0.018888693  0.019759132            1 
  215000   0.93291361   -7.9558678    48.477689  0.018789802  0.019698982            5 
  216000   0.92350908   -7.9544453    48.642617  0.018766442  0.019638602            5 
  217000   0.93681482   -7.9759155     48.65192  0.018683533  0.019577797            1 
  218000    0.9216778   -8.0276384    48.496077  0.018538256  0.019516162            2 
  219000   0.93052968   -7.9880346    48.765696  0.018556201  0.019453155            2 
  220000    0.9154752   -7.9814306    48.862064  0.018508358  0.019391304            6 
  221000   0.91903566     -7.99562    48.855086  0.018421978  0.019329658            4 
  222000   0.92259329   -7.9746364    49.031353  0.018405162  0.019268946            2 
  223000   0.92042883     -8.02684    49.053523  0.018330913  0.019207895            8 
  224000   0.90249767   -7.9961885    49.028347  0.018239713  0.019146614            6 
  225000   0.88848001   -7.9849233    49.316759  0.018265466  0.019085172            2 
  226000   0.91954729   -7.9687657    49.345479  0.018195236  0.019023631            2 
  227000    0.9147474   -8.0150573    49.349397  0.018116519  0.018962507            4 
  228000    0.9226661   -8.0264957    49.410807  0.018059505   0.01890094            4 
  229000   0.91244522    -8.032406    49.503186   0.01801426  0.018839646            5 
  230000   0.89089643   -8.0584445    49.479631  0.017927402  0.018778472            3 
  231000   0.87846393   -8.0574906    49.669458  0.017918275  0.018716902            1 
  232000   0.90954332   -8.0029296    49.870701  0.017913327  0.018656391            3 
  233000   0.88733826   -8.0247236       49.792  0.017808297  0.018595077            1 
  234000   0.88201709    -8.052487    49.840353  0.017749414  0.018533819            6 
  235000   0.88386092   -8.0515771    49.933957  0.017707077  0.018472591            8 
  236000   0.88461571   -8.0451342    50.004129  0.017656825  0.018412013            3 
  237000   0.88129024   -8.0897071    49.957817   0.01756604  0.018351175            2 
  238000   0.88910894   -8.0170729    50.185535  0.017571966  0.018290909            2 
  239000   0.89894788   -8.0553114    50.193549  0.017501238  0.018231145            2 
  240000   0.89721342   -8.0435775    50.193364  0.017428252  0.018171159            3 
  241000   0.89178197   -8.0486931    50.222952  0.017366166  0.018110799            4 
  242000   0.86453685   -8.0934476    50.369426  0.017344844   0.01804983            4 
  243000   0.88158366    -8.089259    50.235379  0.017227496   0.01798892            8 
  244000   0.88720727   -8.0927771    50.439009  0.017226438  0.017928108            4 
  245000   0.88046478    -8.080667     50.44011    0.0171565  0.017867099            7 
  246000   0.85350158   -8.1131977    50.484841  0.017101911  0.017805627            2 
  247000   0.86801798   -8.1237504    50.365307  0.016992344  0.017744553            3 
  248000   0.86787034   -8.1080238    50.313502  0.016906419  0.017683091            2 
  249000   0.86955358   -8.1085123     50.50783  0.016903558  0.017621316            5 
  250000   0.87677032   -8.1649861    50.535378  0.016845126  0.017559481            5 
  251000    0.8629708   -8.0971699    50.580016  0.016792834  0.017497888            4 
  252000   0.85794202    -8.115935    50.708168  0.016768574   0.01743692            7 
  253000   0.86999841    -8.136291    50.738697  0.016712351   0.01737659            2 
  254000    0.8722698   -8.1256965    50.869347  0.016689418    0.0173163            3 
  255000   0.87086157    -8.155515    50.897052  0.016633023  0.017255684            3 
  256000   0.86827011   -8.1725536      50.8907  0.016565983  0.017195077           10 
  257000   0.85247644   -8.1471839    51.071718   0.01656022  0.017134915            2 
  258000   0.86649964   -8.1557562    51.008516  0.016475619  0.017074857            3 
  259000   0.85300236     -8.15103    51.005016   0.01641088  0.017014355            2 
  260000    0.8548484   -8.2078068    50.782906  0.016276572  0.016953986            2 
  261000    0.8431354   -8.2015155    50.989416  0.016280145  0.016893368            3 
  262000   0.83858517   -8.2138435    51.126736  0.016261684  0.016832307            1 
  263000   0.86215507   -8.1956619    51.079515  0.016184891  0.016771748            3 
  264000   0.86645365   -8.2000693     51.11797  0.016135723  0.016711896            4 
  265000   0.82952023   -8.1953234    51.270148  0.016122688  0.016651899            2 
  266000   0.85086388   -8.2045196    51.325318   0.01607936  0.016592711            6 
  267000   0.82903808   -8.1853921    51.266306   0.01600072  0.016533276            5 
  268000   0.84629282   -8.2124417    51.368306  0.015972732  0.016473895            3 
  269000   0.85170455   -8.2110616    51.502562  0.015954945  0.016414817            1 
  270000   0.84620836   -8.2229839    51.297132  0.015832448  0.016356051            3 
  271000   0.85325781   -8.2208745    51.378391  0.015799013  0.016297079            4 
  272000   0.85726962   -8.2208996    51.395925  0.015746301  0.016238694            3 
  273000   0.84924186   -8.2577427    51.529711   0.01572946  0.016180303            4 
  274000   0.81782715   -8.2277013    51.647826  0.015707976  0.016122639            4 
  275000   0.83481788   -8.2182672     51.66833   0.01565707  0.016065277            4 
  276000   0.81157592   -8.2237672    51.718253  0.015615415   0.01600794            2 
  277000   0.82743467   -8.2159361    51.755334  0.015570197  0.015950895            5 
  278000   0.83399749   -8.2190556    51.926018  0.015565353  0.015894523            4 
  279000   0.80969132   -8.2169538    52.023508  0.015538682  0.015839119            2 
  280000   0.82474558   -8.2271529    51.929943   0.01545534  0.015784015            3 
  281000   0.80444897    -8.236822    52.129677  0.015459572  0.015729236            4 
  282000   0.81660068   -8.2426451    52.055449  0.015382816  0.015674399            4 
  283000   0.81364629   -8.2661748    52.139621  0.015353245  0.015619932            5 
  284000     0.820949   -8.2709725    52.156548  0.015304151  0.015565022            4 
  285000   0.81323893   -8.2877146    52.114163  0.015238059  0.015510524            2 
  286000   0.82328948   -8.2573946    52.428851  0.015276472  0.015456952            3 
  287000   0.81151668    -8.286726    52.468722  0.015234821   0.01540394            3 
  288000   0.78598531    -8.290696    52.278215  0.015126798  0.015350641            4 
  289000   0.79865754    -8.333159     52.39019  0.015106744  0.015297268            4 
  290000   0.80787438   -8.3336562    52.345423  0.015041788  0.015244264            4 
  291000   0.80284811   -8.3441574    52.248012  0.014962203  0.015190951            4 
  292000   0.78301165   -8.3505691    52.377683  0.014947969  0.015137375            8 
  293000   0.80785698   -8.3122577    52.370889   0.01489502  0.015084245            6 
  294000   0.79434339   -8.3355494     52.39369  0.014850819  0.015030765            2 
  295000   0.79809037    -8.371335    52.241608  0.014757516  0.014977231            3 
  296000      0.80667   -8.3521893    52.215927   0.01470043  0.014923264            4 
  297000   0.81182039   -8.3322266    52.276768  0.014668004  0.014869495            7 
  298000   0.77912664   -8.3353356    52.455588  0.014668788  0.014815872            3 
  299000   0.77982138   -8.3276698    52.257837  0.014564615  0.014762367            3 
  300000   0.77166557   -8.3134328    52.504639  0.014584622  0.014709236            4 
  301000   0.77011859   -8.3200594     52.56707  0.014553452  0.014656204            5 
  302000   0.77277395   -8.3182114    52.526662  0.014494112  0.014603777            3 
  303000   0.79048581   -8.3354496    52.459627   0.01442784  0.014551433            4 
  304000   0.78823485   -8.3472009     52.55422   0.01440631   0.01449927            3 
  305000   0.78222183   -8.3420349    52.596919  0.014370743  0.014447195            5 
  306000   0.79139338   -8.3843712    52.512389  0.014300759  0.014395222            5 
  307000   0.77687769   -8.3698295    52.514916  0.014254863  0.014343299            5 
  308000   0.78420609   -8.3963545    52.363205  0.014167534  0.014291249            6 
  309000   0.76286616   -8.3718657    52.607441  0.014187551  0.014239202            5 
  310000   0.76680312   -8.3817846    52.600113  0.014139815    0.0141874            4 
  311000   0.77171512    -8.372891    52.619657  0.014099587    0.0141356            7 
  312000   0.76757365   -8.3896413    52.598157  0.014048653  0.014084064            4 
  313000   0.75881046    -8.385138    52.613451  0.014007841  0.014032873            5 
  314000      0.76505   -8.3691998    52.718199   0.01399103  0.013981689            6 
  315000   0.75215302   -8.3785477    52.620285   0.01392071  0.013930776            4 
  316000   0.75765002     -8.39504      52.6116  0.013874367  0.013879785            3 
  317000   0.76237418   -8.3838811     52.64804  0.013840179  0.013829486            4 
  318000   0.77473525   -8.4382276    52.494462   0.01375641  0.013778781            4 
  319000   0.77575736   -8.4527243    52.578587  0.013735263  0.013728299            9 
  320000   0.75024594   -8.4424746    52.622614  0.013703806  0.013677928            4 
  321000   0.73803547   -8.4265508    52.574061   0.01364851  0.013627994            2 
  322000   0.74867555   -8.4354436     52.59208  0.013610787   0.01357808            3 
  323000   0.75348612   -8.4316226    52.780952  0.013617377  0.013528356            3 
  324000   0.76252058   -8.4219461     52.62742  0.013535859  0.013478923            3 
  325000   0.74573511   -8.4564771    52.570305  0.013479565  0.013429496            5 
  326000   0.73198424   -8.4431599    52.773592  0.013490182  0.013380381            3 
  327000   0.73896214   -8.4463916    52.718711  0.013434942  0.013331345            6 
  328000    0.7559421    -8.460971    52.583085  0.013359524  0.013282412            3 
  329000   0.76038595   -8.4670239     52.73531  0.013357475  0.013233652            5 
  330000   0.71771596   -8.4675696    52.719923  0.013313112  0.013185131            5 
  331000   0.74879609    -8.472688    52.832685   0.01330128  0.013136957            7 
  332000   0.75029015   -8.4832194    52.919189  0.013282929  0.013089263            6 
  333000   0.74638651   -8.4675672    52.784847  0.013209421  0.013041555            5 
  334000   0.72976821   -8.5227716    52.730543  0.013156323  0.012993747           10 
  335000   0.73535161   -8.4848797    52.756044  0.013123394  0.012945992            9 
  336000   0.74070311   -8.4808871     52.79314  0.013093537  0.012898421           12 
  337000   0.72123032   -8.5066884     52.79281  0.013054602  0.012851137            6 
  338000   0.72403652   -8.5221766    52.764293  0.013008948  0.012804068           10 
  339000   0.73761449   -8.5006514    52.845789  0.012990607  0.012757075           10 
  340000    0.7327991   -8.5387829     52.70927  0.012918939  0.012710217           10 
  341000   0.70075124   -8.5203934    52.710902  0.012881452  0.012663513            9 
  342000    0.7310485   -8.5274283    52.841916   0.01287571  0.012616797            6 
  343000   0.72388147     -8.54302    52.809554  0.012830309  0.012570438           15 
  344000   0.72984692   -8.5698786    52.725975  0.012772765  0.012524204            6 
  345000   0.71373178   -8.5702089    52.711797  0.012732318  0.012477942            5 
  346000   0.74613944   -8.5632047    52.735969  0.012701341  0.012431824            3 
  347000   0.71754578   -8.5474593     52.73006  0.012663319  0.012385885            4 
  348000   0.70897158   -8.5621389    52.659892  0.012610127  0.012340065            6 
  349000    0.7195478   -8.5350126    52.833078  0.012615348  0.012294576            3 
  350000   0.72058003   -8.5819195    52.788435  0.012568675  0.012249287            4 
  351000    0.7211208    -8.566733     52.81013  0.012538018  0.012204223            7 
  352000   0.68423698   -8.5672808    52.782637  0.012495889  0.012159231            5 
  353000   0.70714847   -8.5699387    52.694147    0.0124396  0.012114332            3 
  354000    0.7184817   -8.5666481    52.704325  0.012406856   0.01206954            4 
  355000   0.69248793    -8.574246    52.874801  0.012411925   0.01202479            3 
  356000   0.69997093   -8.5910517    52.706155  0.012337583  0.011980381            6 
  357000   0.70533493     -8.62316    52.697353  0.012300969  0.011935853            3 
  358000   0.71090219   -8.6017274    52.661349  0.012258228  0.011891597            4 
  359000   0.69867117   -8.6008075    52.659293  0.012223606  0.011847423            2 
  360000   0.68635505   -8.6013768    52.663846  0.012190705  0.011803311            4 
  361000    0.6978514   -8.6090631    52.655298  0.012154963  0.011759325            6 
  362000   0.68867935   -8.6065195    52.751649  0.012143566   0.01171565            4 
  363000    0.6734632   -8.6119776    52.732536  0.012105724  0.011672248            7 
  364000   0.70051853   -8.6035653    52.796725  0.012087162  0.011628948            3 
  365000   0.67818526   -8.6203926    52.689532  0.012029574  0.011585774            4 
  366000    0.6809988   -8.6036778    52.685794  0.011995855  0.011542671            2 
  367000   0.67862827   -8.6145296    52.667005  0.011958902  0.011499637            8 
  368000   0.68105905   -8.6231192    52.750678  0.011945353  0.011456768            5 
  369000   0.68014534   -8.6305081    52.718499  0.011905713   0.01141424            4 
  370000   0.67271468   -8.6278828    52.713482  0.011872406  0.011371764            8 
  371000   0.66719177   -8.6754925    52.636101  0.011823024  0.011329419            6 
  372000   0.67127528   -8.6245172    52.679299  0.011800918  0.011287304            6 
  373000   0.69471586   -8.6350735    52.751197  0.011785343  0.011245414            4 
  374000   0.67985218   -8.6774112    52.571539  0.011713801  0.011203685            6 
  375000   0.67699025   -8.6323824    52.605508  0.011690113  0.011162172            8 
  376000   0.66777112   -8.6372249    52.689796  0.011677703  0.011120806            2 
  377000   0.65743527   -8.6707231    52.545841  0.011614907  0.011079677           13 
  378000   0.66339129   -8.6772993    52.605689  0.011597374  0.011038607            4 
  379000   0.66150626   -8.6755575    52.706914  0.011589031  0.010997562            4 
  380000   0.65730496   -8.6736053     52.50325  0.011513871  0.010956806            6 
  381000   0.65762118   -8.6789218    52.470901  0.011476575    0.0109162            7 
  382000   0.65990946   -8.6830817    52.629276  0.011481081  0.010875738            4 
  383000   0.65787748   -8.7017322    52.687793  0.011463837  0.010835456            6 
  384000   0.65784657    -8.691848    52.582505  0.011411134  0.010795176            7 
  385000   0.63977384   -8.7005258    52.573172  0.011379474  0.010754991            8 
  386000   0.64931193   -8.7138395    52.488862  0.011331792  0.010714978            6 
  387000   0.64225191   -8.6981553      52.5051  0.011306008  0.010675029            4 
  388000   0.64344071   -8.6977652     52.48083  0.011271656  0.010635292            3 
  389000   0.63760646   -8.7132393    52.479943   0.01124249  0.010595787            5 
  390000   0.65773845   -8.7243261    52.510383  0.011220167  0.010556472            3 
  391000   0.63256769   -8.6967724    52.570173  0.011204214  0.010517333           11 
  392000   0.63067746   -8.7166805    52.560613    0.0111736  0.010478326            4 
  393000   0.64256291   -8.7040073    52.520198  0.011136598  0.010439461            4 
  394000   0.63062894   -8.7199357    52.446716  0.011092791   0.01040067           15 
  395000   0.63922678    -8.752572    52.498748  0.011075685  0.010362001            6 
  396000   0.64035144   -8.7382813    52.460023  0.011039567  0.010323609            6 
  397000   0.61481717   -8.7354401    52.502112  0.011020595  0.010285425            8 
  398000   0.62404715   -8.7306055     52.62021  0.011017632  0.010247378           17 
  399000   0.63059125   -8.7334799    52.510305  0.010967065  0.010209562            4 
  400000   0.63984791   -8.7392746    52.578174  0.010953786   0.01017194            6 
  401000   0.61445764   -8.7466829    52.494571  0.010909096  0.010134394            5 
  402000   0.61199898   -8.7586226    52.410076  0.010864444  0.010096985            6 
  403000   0.62578639   -8.7608592    52.472428  0.010850378  0.010059804            7 
  404000   0.63809424   -8.7684178    52.446391   0.01081815  0.010022912            4 
  405000   0.62704403   -8.7635359    52.439819  0.010790086 0.0099860915            5 
  406000   0.62626883    -8.765937    52.444685  0.010764508 0.0099494975            3 
  407000   0.62039972   -8.7679217    52.466647  0.010742557 0.0099130046            7 
  408000   0.61797417   -8.7521428    52.440598  0.010710906 0.0098766105            6 
  409000    0.6204896   -8.7897485    52.541673  0.010705312 0.0098403262            9 
  410000    0.6221554   -8.7813491    52.461432  0.010662893  0.009804237            7 
  411000    0.6220778   -8.7950881    52.418686  0.010628282 0.0097682899            6 
  412000    0.6113595     -8.79865    52.508279  0.010620607 0.0097324727           10 
  413000   0.60335194   -8.7976066    52.373648  0.010567726 0.0096968352            4 
  414000   0.60564623   -8.8110617    52.453811  0.010558336 0.0096614232           10 
  415000   0.59349133   -8.8139909    52.401845  0.010522459 0.0096262161            8 
  416000   0.61351265   -8.7888142    52.492619  0.010515348  0.009591187            6 
  417000   0.61234579   -8.8085238    52.575544  0.010506704 0.0095563621            7 
  418000   0.59893665    -8.801027     52.48021  0.010462562 0.0095216511            8 
  419000   0.60216289   -8.8087443    52.480289  0.010437607 0.0094869752            5 
  420000   0.61457165   -8.8143389    52.438637  0.010404491 0.0094524978           12 
  421000   0.58577225    -8.814751    52.496236  0.010391179 0.0094181722            7 
  422000   0.59429675   -8.8470165    52.467429  0.010360867 0.0093838947            6 
  423000   0.59021251   -8.8340429    52.356518  0.010314523 0.0093497954            7 
  424000   0.59577708   -8.8220374    52.359463  0.010290775 0.0093158634            5 
  425000   0.57922424   -8.8186501    52.426416  0.010279689 0.0092821109            6 
  426000   0.59197045   -8.8306216    52.473448  0.010264759 0.0092485245            9 
  427000   0.58384292   -8.8374581    52.363799  0.010219321 0.0092150774           12 
  428000   0.57591765   -8.8258541    52.462936  0.010214746 0.0091816828            5 
  429000   0.58672837   -8.8522064    52.308798  0.010160994 0.0091485516            7 
  430000   0.58359543   -8.8331068    52.402479  0.010155519 0.0091154754            4 
  431000   0.59210414    -8.858312    52.311291  0.010114325  0.009082604            7 
  432000   0.57406234   -8.8574151    52.306986  0.010090082 0.0090499067            3 
  433000   0.57586482   -8.8336591    52.376717    0.0100802 0.0090172246            4 
  434000   0.57718832   -8.8461673    52.361489  0.010054049 0.0089847351            6 
  435000   0.57483772   -8.8666464    52.273227  0.010014028 0.0089523311            9 
  436000   0.57072765   -8.8632241    52.292662 0.0099947749 0.0089200714           15 
  437000   0.57904034   -8.8783288    52.336055 0.0099801782 0.0088879878           13 
  438000   0.56647207   -8.8550589    52.302847 0.0099510743 0.0088559528           12 
  439000   0.56488742   -8.8675452     52.43051 0.0099526406 0.0088241463            6 
  440000   0.58497104   -8.8683328    52.241262 0.0098941785 0.0087923577            4 
  441000   0.56893701   -8.8832627    52.232126 0.0098700162 0.0087607788            4 
  442000   0.56309135   -8.8857137    52.143603 0.0098309961 0.0087292533            8 
  443000   0.55463532   -8.8796136    52.356418  0.009848837 0.0086979448            3 
  444000   0.53898624   -8.8914161    52.256483 0.0098078985  0.008666749            9 
  445000    0.5546502   -8.8782256    52.218606 0.0097787652 0.0086356498            7 
  446000   0.55170479   -8.9046137    52.165088   0.00974684 0.0086046337            8 
  447000    0.5590248   -8.9034689     52.14655  0.009721579 0.0085737413            7 
  448000   0.55443027   -8.9040165    52.127554 0.0096963455 0.0085429586            5 
  449000   0.54584142     -8.90857    52.188809  0.009686119 0.0085123637           11 
  450000    0.5453001    -8.912202     52.13101 0.0096538907 0.0084818485            5 
  451000   0.53769656   -8.9049285    52.114617 0.0096294562 0.0084515353            6 
  452000   0.55647722   -8.9186334    52.166348 0.0096176894 0.0084212936           11 
  453000   0.53087778   -8.9182528    52.197386 0.0096021681 0.0083912045           13 
  454000   0.54916512   -8.9231799    52.154291 0.0095731078 0.0083612872            6 
  455000   0.54387397   -8.9172739    52.173901 0.0095556595   0.00833144           12 
  456000   0.54968037   -8.9262696    52.102037  0.009521571 0.0083017756           17 
  457000   0.53884409   -8.9284098    52.198261 0.0095182824 0.0082722196            8 
  458000   0.53475236   -8.9231592    52.101589 0.0094799106 0.0082427827            8 
  459000   0.53031265   -8.9281156    52.155689 0.0094690793  0.008213516           15 
  460000   0.53949894   -8.9422149    52.086544 0.0094359682 0.0081843693            6 
  461000   0.53458634   -8.9460007    51.989181 0.0093978996 0.0081553557            6 
  462000   0.52066811   -8.9328528    52.087945 0.0093953725 0.0081264864           13 
  463000   0.53234229   -8.9502222    52.064038 0.0093707772 0.0080977882            7 
  464000   0.52881082   -8.9419386    52.050091 0.0093480766 0.0080691373           11 
  465000   0.52833744   -8.9423039    52.083538 0.0093339674 0.0080406627           16 
  466000   0.52704132    -8.959429    52.032918 0.0093048851 0.0080123277           11 
  467000   0.52578112   -8.9619282     52.07521 0.0092925072 0.0079841002            6 
  468000   0.51892118   -8.9638475    52.011786 0.0092613579 0.0079560437           12 
  469000   0.52259249   -8.9647633     52.05181 0.0092487225 0.0079280324            5 
  470000   0.51503354   -8.9557057    52.127518 0.0092424677  0.007900146           11 
  471000   0.50695273   -8.9834988    51.975838 0.0091960081  0.007872417           12 
  472000   0.50468258   -8.9805785    52.048766 0.0091894008 0.0078448103            7 
  473000   0.50834062   -8.9620031    51.999896  0.009161363 0.0078173193           10 
  474000   0.51969712   -8.9735035    51.927532 0.0091293129 0.0077899253            7 
  475000   0.49906166   -8.9822985    52.056718 0.0091327575 0.0077626562           12 
  476000    0.5081663   -8.9813762    51.996232 0.0091029817  0.007735507            9 
  477000   0.51850512   -8.9887496    51.945949 0.0090751135 0.0077085034            8 
  478000   0.49860325   -8.9834992    51.961338 0.0090588107 0.0076815806            7 
  479000    0.4956785   -8.9852249    52.014231 0.0090491007  0.007654813            9 
  480000   0.49816781   -8.9798567    51.913403 0.0090127436  0.007628151            8 
  481000   0.49850994   -8.9883684    51.947778 0.0089999615  0.007601612            9 
  482000   0.50203605   -8.9957387     51.96924     0.008985  0.007575235            8 
  483000   0.49454998   -8.9827465    51.947728 0.0089626859 0.0075489077           18 
  484000   0.50402253   -9.0175409    52.000276 0.0089532155 0.0075227207           11 
  485000   0.50010927   -9.0179638    51.913305 0.0089198118 0.0074965876            9 
  486000   0.49539413    -8.998497    51.870124 0.0088940542 0.0074706715           15 
  487000   0.49811172   -9.0079404    51.979221 0.0088944594 0.0074448391            8 
  488000   0.49217868   -8.9969325    51.952293 0.0088716348 0.0074190816            6 
  489000   0.47873033    -9.011832    51.878969 0.0088409968 0.0073934426            4 
  490000   0.48119704   -9.0137906    51.906219 0.0088275883 0.0073679308            7 
  491000   0.48353027   -9.0119905    51.794515 0.0087906509 0.0073425327            7 
  492000   0.48498332   -9.0140889    51.973844 0.0088031579 0.0073172384           12 
  493000   0.48330708   -9.0279439    51.866969 0.0087672361 0.0072920724            5 
  494000   0.47772829   -9.0294126    51.854331 0.0087473568 0.0072670213            6 
  495000   0.47401074   -9.0159329    51.847678 0.0087285654 0.0072420218            8 
  496000   0.46897069   -9.0147412    51.902921 0.0087202489 0.0072171351            4 
  497000      0.48172   -9.0350106    51.876097 0.0086982055 0.0071924094            6 
  498000   0.48247898   -9.0334772     51.92575 0.0086890478 0.0071677856           12 
  499000   0.46017114    -9.034969    51.915772 0.0086699687 0.0071432933            9 
  500000   0.47411393   -9.0350665    51.835144 0.0086391906  0.007118907            4 
  501000   0.45637293   -9.0413404    51.775275 0.0086119885 0.0070946354           13 
  502000   0.46035236   -9.0453961    51.875251 0.0086114295 0.0070704562           10 
  503000   0.46340975   -9.0373994    51.881814 0.0085953966 0.0070463625           17 
  504000   0.46840181   -9.0538051    51.833409 0.0085703387 0.0070224285           13 
  505000   0.46047558   -9.0559312    51.880036 0.0085610621 0.0069985892           13 
  506000   0.47145131   -9.0548429    51.766764 0.0085254881 0.0069748643            6 
  507000   0.46569368   -9.0594653    51.827741  0.008518695 0.0069511977            9 
  508000   0.45450014   -9.0617174    51.812676 0.0084994548 0.0069276741           13 
  509000   0.45114236   -9.0715396     51.82429 0.0084846578 0.0069042372           17 
  510000   0.46281292   -9.0609894    51.782892 0.0084612568 0.0068809096            8 
  511000   0.45703036   -9.0556939    51.817971 0.0084504193 0.0068576667           14 
  512000   0.44693974   -9.0612974    51.846584 0.0084385716 0.0068345479            7 
Loop time of 1286.61 on 48 procs for 500000 steps with 4000 atoms

Performance: 67152.982 tau/day, 388.617 timesteps/s
99.4% CPU use with 48 MPI tasks x no OpenMP threads

MPI task timing breakdown:
Section |  min time  |  avg time  |  max time  |%varavg| %total
---------------------------------------------------------------
Pair    | 83.944     | 91.317     | 98.911     |  35.6 |  7.10
Neigh   | 8.3789     | 8.8288     | 9.3791     |   9.1 |  0.69
Comm    | 76.926     | 86.206     | 93.761     |  37.2 |  6.70
Output  | 0.85166    | 0.85273    | 0.88546    |   0.5 |  0.07
Modify  | 1081.3     | 1086.7     | 1092.7     |   9.4 | 84.46
Other   |            | 12.67      |            |       |  0.98

Nlocal:        83.3333 ave          89 max          77 min
Histogram: 3 1 4 5 9 8 5 6 1 6
Nghost:        2238.77 ave        2252 max        2216 min
Histogram: 2 1 2 6 1 6 6 9 10 5
Neighs:        15003.6 ave       17206 max       13732 min
Histogram: 6 5 6 9 8 10 2 1 0 1
FullNghs:      30006.5 ave       32333 max       27472 min
Histogram: 3 0 6 5 10 7 3 7 3 4

Total # of neighbors = 1440310
Ave neighs/atom = 360.07750
Neighbor list builds = 26668
Dangerous builds = 0

#clear
#
#next RN
#
#jump SELF
Total wall time: 0:21:30
