
units lj                  # Use reduced LJ style units
atom_style atomic         # Uncharged point particles
atom_modify map hash      # Needed for indexing of clusters etc
                          # Used to be able to find where atoms are in relation to each other.

# Define a lattice with which to populate the simulation cell. With units
# set to 'lj' the second argument to the lattice command is the reduced
# density rho* and the spacings are multiples of that required to acheive
# that density. Also define a simulation cell called 'box' in lattice units
# and fill it with atoms. Here we're creating a box which is ten lattice
# constants in each direction.
lattice fcc 1.0 spacing 1 1 1                 # All equal sizes - gives the right reduced density.
Lattice spacing in x,y,z = 1.5874011 1.5874011 1.5874011

region box block 0 10 0 10 0 10 units lattice # Defines a region, "box", in lattice units
create_box 1 box                              # Creates a simulation box as specified above,
Created orthogonal box = (0.0000000 0.0000000 0.0000000) to (15.874011 15.874011 15.874011)
  2 by 2 by 7 MPI processor grid
                                              # with one type of atom
create_atoms 1 box                            # Creates particles on lattice points
Created 4000 atoms
  using lattice units in orthogonal box = (0.0000000 0.0000000 0.0000000) to (15.874011 15.874011 15.874011)
  create_atoms CPU = 0.002 seconds


# Set the mass of the first (and only) atom type.
mass 1 1.0

# Lennard-Jones interactions between particles, 3.5 sigma cut-off. Apply
# long range tail corrections to energy and pressure and set all coefficients
# to unity since we work in reduced units here. Note that this doesn't shift
# the potential such that it goes to zero at the cutoff. That would require
# pair_modify('shift', 'yes').
pair_style lj/cut  3.5      # non-GPU version
pair_modify tail  yes
pair_coeff 1  1  1.0  1.0   # Intearaction between 1 and 1 set with epsilon = 1 and sigma = 1

write_data data.*
System init for write_data ...
Neighbor list info ...
  update every 1 steps, delay 10 steps, check yes
  max neighbors/atom: 2000, page size: 100000
  master list distance cutoff = 3.8
  ghost atom cutoff = 3.8
  binsize = 1.9, bins = 9 9 9
  1 neighbor lists, perpetual/occasional/extra = 1 0 0
  (1) pair lj/cut, perpetual
      attributes: half, newton on
      pair build: half/bin/atomonly/newton
      stencil: half/bin/3d
      bin: standard

#############################
#   M E L T   S Y S T E M   #
#############################

velocity all create 2.4 9622624 mom yes dist gaussian # Assign velocities
                                                    # Temperature 2.4, random number seed, zero linear momentum
						                                                        # Gaussian distribution

timestep 0.002   # simulation timestep
thermo 100       # output thermodynamic data every 100 steps

# Define a fix  in this case with index 1 applied to all
# particles in the simulation. This fix is for simulations
# in the anisotropic NPT ensemble. Note that we use the MTK
# correction.
fix 1 all npt temp 2.4 2.4 0.1 iso 5.68 5.68 0.5 mtk yes tchain 5 pchain 5 # Use NPT ensemble
                                                                         # Set temperature and pressure and damping
                                                                         # Numbers of thermostats in chain and in barostat
run 1000         # run for 10000 steps
Per MPI rank memory allocation (min/avg/max) = 3.642 | 3.654 | 3.657 Mbytes
Step Temp E_pair E_mol TotEng Press Volume 
       0          2.4   -8.3859253            0   -4.7868253   -2.2405722         4000 
     100     1.256502   -6.5137603            0   -4.6294785    5.5061441    4089.3939 
     200    1.4710413   -6.2962202            0   -4.0902099    6.1259073    4136.4974 
     300    1.5753793   -6.0048156            0   -3.6423375    5.8881655    4269.3275 
     400     1.695533   -5.7167441            0   -3.1740804    5.9576171    4396.1624 
     500    1.7977703    -5.422775            0   -2.7267936    5.9233545    4540.2438 
     600    1.8751095    -5.133639            0   -2.3216778    5.8305819    4705.3349 
     700    2.0067687   -4.9044304            0   -1.8950299    5.8181833    4845.3775 
     800    2.1683387   -4.7479596            0   -1.4962646    5.6703181    4968.6147 
     900    2.2591539   -4.5766532            0   -1.1887696    5.5447205    5099.1514 
    1000    2.3772702    -4.449968            0  -0.88495416    5.8567059    5140.3387 
Loop time of 0.325845 on 28 procs for 1000 steps with 4000 atoms

Performance: 530313.884 tau/day, 3068.946 timesteps/s
99.6% CPU use with 28 MPI tasks x no OpenMP threads

MPI task timing breakdown:
Section |  min time  |  avg time  |  max time  |%varavg| %total
---------------------------------------------------------------
Pair    | 0.1475     | 0.16219    | 0.18286    |   2.1 | 49.78
Neigh   | 0.028868   | 0.030387   | 0.03222    |   0.5 |  9.33
Comm    | 0.088426   | 0.10638    | 0.1225     |   2.7 | 32.65
Output  | 0.00020786 | 0.00021362 | 0.00026994 |   0.0 |  0.07
Modify  | 0.02058    | 0.024433   | 0.032488   |   2.3 |  7.50
Other   |            | 0.002236   |            |       |  0.69

Nlocal:        142.857 ave         155 max         133 min
Histogram: 2 2 0 6 5 9 1 1 1 1
Nghost:        1918.21 ave        1934 max        1902 min
Histogram: 1 1 4 4 5 4 1 4 1 3
Neighs:        12690.1 ave       13892 max       11313 min
Histogram: 1 1 2 4 5 5 3 3 2 2

Total # of neighbors = 355324
Ave neighs/atom = 88.831000
Neighbor list builds = 87
Dangerous builds = 18

# Equilibrate just above the melting temperature to avoid step fn in T

fix 1 all npt temp 1.25 1.25 0.1 iso 5.68 5.68 0.5 mtk yes tchain 5 pchain 5
run 1000
Per MPI rank memory allocation (min/avg/max) = 3.643 | 3.655 | 3.658 Mbytes
Step Temp E_pair E_mol TotEng Press Volume 
    1000    2.3772702    -4.449968            0  -0.88495416    5.8567059    5140.3387 
    1100    1.9123587   -4.6299409            0     -1.76212    5.7356352    5010.0317 
    1200     1.748463   -4.9742749            0   -2.3522361    5.6314428    4809.1156 
    1300    1.5839166   -5.2240149            0    -2.848734     5.537847    4676.3458 
    1400    1.4493602   -5.3637066            0   -3.1902097    5.9258711    4553.5937 
    1500    1.3475159   -5.4905275            0   -3.4697589    5.8595912    4492.3019 
    1600    1.3105851   -5.6398502            0   -3.6744639     5.695843    4436.2068 
    1700    1.2621862   -5.7135111            0   -3.8207051    5.6775847    4398.9832 
    1800    1.2554554   -5.7810045            0   -3.8982922     5.797944     4358.617 
    1900    1.2634776   -5.8544833            0   -3.9597407    5.6933777     4339.129 
    2000    1.2398732   -5.8281233            0   -3.9687785    5.8601907    4332.3676 
Loop time of 0.312988 on 28 procs for 1000 steps with 4000 atoms

Performance: 552097.678 tau/day, 3195.010 timesteps/s
99.7% CPU use with 28 MPI tasks x no OpenMP threads

MPI task timing breakdown:
Section |  min time  |  avg time  |  max time  |%varavg| %total
---------------------------------------------------------------
Pair    | 0.15227    | 0.16142    | 0.17274    |   1.2 | 51.57
Neigh   | 0.025575   | 0.026522   | 0.0275     |   0.3 |  8.47
Comm    | 0.090635   | 0.099693   | 0.11205    |   1.8 | 31.85
Output  | 0.00020503 | 0.00020934 | 0.000257   |   0.0 |  0.07
Modify  | 0.019553   | 0.022615   | 0.025187   |   1.3 |  7.23
Other   |            | 0.00253    |            |       |  0.81

Nlocal:        142.857 ave         151 max         135 min
Histogram: 2 2 0 6 4 4 5 3 1 1
Nghost:        2132.14 ave        2154 max        2113 min
Histogram: 3 1 3 2 7 5 3 1 2 1
Neighs:        15062.4 ave       16238 max       13803 min
Histogram: 1 1 3 3 6 5 3 3 1 2

Total # of neighbors = 421746
Ave neighs/atom = 105.43650
Neighbor list builds = 76
Dangerous builds = 11


# Small amount of linear quench

fix 1 all npt temp 1.25 ${temp} 0.1 iso 5.68 5.68 0.5 mtk yes tchain 5 pchain 5
fix 1 all npt temp 1.25 0.52 0.1 iso 5.68 5.68 0.5 mtk yes tchain 5 pchain 5
run 2000
Per MPI rank memory allocation (min/avg/max) = 3.644 | 3.655 | 3.658 Mbytes
Step Temp E_pair E_mol TotEng Press Volume 
    2000    1.2398732   -5.8281233            0   -3.9687785    5.8601907    4332.3676 
    2100    1.2512307   -5.8833049            0   -4.0069281     5.608793    4335.0067 
    2200    1.2243903   -5.9414723            0    -4.105346     5.724584    4295.9774 
    2300    1.1775339   -5.9714402            0   -4.2055809    5.7001768    4284.6091 
    2400    1.1287144   -5.9986216            0   -4.3059733    5.6491956    4272.0265 
    2500    1.1001627   -6.0372613            0   -4.3874299    5.6736469    4252.0725 
    2600    1.0694679   -6.0831954            0   -4.4793946    5.7283606    4227.6958 
    2700    1.0551066   -6.1641142            0     -4.58185      5.57377    4204.7736 
    2800    1.0044558   -6.2181297            0   -4.7118227    5.3796954    4197.2549 
    2900   0.96734467   -6.2754573            0    -4.824803    5.3460863    4173.3288 
    3000   0.94590425   -6.3421807            0    -4.923679    5.4891907    4137.5408 
    3100    0.9015562   -6.3854523            0    -5.033456    5.6505604    4106.8697 
    3200   0.86298837   -6.4350433            0   -5.1408843    5.6663418    4086.2093 
    3300   0.82688665    -6.497921            0   -5.2579011    5.5671806     4067.991 
    3400   0.79899521   -6.5656825            0   -5.3674893    5.5039508    4044.2397 
    3500   0.75465512   -6.6060748            0   -5.4743751    5.6463172    4018.8018 
    3600   0.73605672   -6.6786144            0   -5.5748054    5.6846438    3989.3774 
    3700   0.68157749   -6.7235306            0     -5.70142     5.609633    3975.4243 
    3800   0.65044318   -6.7863455            0   -5.8109246    5.6335123    3951.0184 
    3900   0.61767775   -6.8427682            0   -5.9164832    5.6497113    3930.6155 
    4000   0.57730229   -6.8921886            0   -6.0264516    5.6201001    3913.2678 
Loop time of 0.661163 on 28 procs for 2000 steps with 4000 atoms

Performance: 522715.485 tau/day, 3024.974 timesteps/s
99.8% CPU use with 28 MPI tasks x no OpenMP threads

MPI task timing breakdown:
Section |  min time  |  avg time  |  max time  |%varavg| %total
---------------------------------------------------------------
Pair    | 0.33104    | 0.35713    | 0.37143    |   1.7 | 54.01
Neigh   | 0.040276   | 0.041833   | 0.043188   |   0.3 |  6.33
Comm    | 0.19295    | 0.20926    | 0.24252    |   2.7 | 31.65
Output  | 0.00041619 | 0.00042604 | 0.00052322 |   0.0 |  0.06
Modify  | 0.038358   | 0.046203   | 0.052811   |   2.3 |  6.99
Other   |            | 0.006319   |            |       |  0.96

Nlocal:        142.857 ave         152 max         135 min
Histogram: 2 3 2 2 9 3 2 1 3 1
Nghost:        2278.04 ave        2297 max        2258 min
Histogram: 2 1 3 5 2 3 5 4 1 2
Neighs:        16774.2 ave       18296 max       15456 min
Histogram: 2 1 2 4 7 6 3 1 1 1

Total # of neighbors = 469677
Ave neighs/atom = 117.41925
Neighbor list builds = 114
Dangerous builds = 0

#############################
# F R E E Z E  S Y S T E M  #
#############################

# Define solid atoms. This closely follows ten Wolde  Ruiz-Montero and Frenkel  Faraday Discuss  1996  104  93-110
# Compute components of the per-atom q6 vector
compute q6 all orientorder/atom degrees 1 6 components 6 nnn NULL cutoff 1.3 # compute the Q6 parameter.
                                                                             # Use all neighbours within 1.3 unit cell.

# get number of connections
compute coord_number all coord/atom orientorder q6 0.5

# An atom is solid if it has 8 or more connections (of a possible 14)
variable is_solid atom c_coord_number>=8
group solid dynamic all var is_solid    # Must be dynamic to update
dynamic group solid defined

# do clustering
compute cluster solid cluster/atom 1.3 # Create a cluster where all atoms within are solid and max 1.3 units from another member

# define chunks one chunk per cluster
compute clus_chunks solid chunk/atom c_cluster nchunk every compress yes  # Says which atoms are in which chunk

# count the size of each chunk
compute size_chunks solid property/chunk clus_chunks count


# Find the maximum entry in the vector of chunk sizes
variable max_n equal max(c_size_chunks)


# Thermo style which includes this variable
thermo_style custom step temp pe vol v_max_n

thermo ${N}  # Print the thermo information every 100 steps
thermo 100  

# Reset the npt fix at a lower temperature (below freezing)
fix 1  all npt temp  ${temp} ${temp}  0.1  iso  5.68  5.68  0.5  mtk yes tchain  5  pchain  5
fix 1  all npt temp  0.52 ${temp}  0.1  iso  5.68  5.68  0.5  mtk yes tchain  5  pchain  5
fix 1  all npt temp  0.52 0.52  0.1  iso  5.68  5.68  0.5  mtk yes tchain  5  pchain  5

dump dmp2 all dcd ${N} traj_${rand}.dcd
dump dmp2 all dcd 100 traj_${rand}.dcd
dump dmp2 all dcd 100 traj_462431.dcd


# fix rnuntil all halt ${N} v_max_n >= 3980 error soft message no   # Stop when solidified


run 100000 # 5000000  # Run for this many steps
Neighbor list info ...
  update every 1 steps, delay 10 steps, check yes
  max neighbors/atom: 2000, page size: 100000
  master list distance cutoff = 3.8
  ghost atom cutoff = 3.8
  binsize = 1.9, bins = 9 9 9
  4 neighbor lists, perpetual/occasional/extra = 1 3 0
  (1) pair lj/cut, perpetual
      attributes: half, newton on
      pair build: half/bin/atomonly/newton
      stencil: half/bin/3d
      bin: standard
  (2) compute orientorder/atom, occasional
      attributes: full, newton on
      pair build: full/bin/atomonly
      stencil: full/bin/3d
      bin: standard
  (3) compute coord/atom, occasional
      attributes: full, newton on
      pair build: full/bin/atomonly
      stencil: full/bin/3d
      bin: standard
  (4) compute cluster/atom, occasional
      attributes: full, newton on
      pair build: full/bin/atomonly
      stencil: full/bin/3d
      bin: standard
Per MPI rank memory allocation (min/avg/max) = 9.385 | 9.390 | 9.393 Mbytes
Step Temp PotEng Volume v_max_n 
    4000   0.57730229   -6.8921886    3913.2678           44 
    4100   0.57303116   -6.9604844     3893.543           40 
    4200   0.53387956   -6.9695295    3880.7181           21 
    4300   0.52623544   -7.0064484      3872.75           20 
    4400      0.52126    -7.016249    3858.9022           37 
    4500   0.52528971   -7.0281789    3869.5531           32 
    4600   0.53144868   -7.0262893    3855.5122           30 
    4700   0.51871767    -7.051549    3875.7909           35 
    4800   0.51640594   -7.0417262    3848.9079           24 
    4900    0.5262837   -7.0560503    3861.4352           36 
    5000   0.52473329   -7.0358721    3856.8328           54 
    5100   0.51848605   -7.0468704    3848.6333           88 
    5200   0.52385073   -7.0633961    3859.2448           79 
    5300   0.52072703   -7.0561026    3850.0366          127 
    5400   0.50681387   -7.0571391     3852.115          113 
    5500   0.51308369   -7.0642985    3851.0273          112 
    5600   0.51988195   -7.0729204    3846.7379          110 
    5700   0.51608399   -7.0751316    3842.8159          146 
    5800   0.52479614   -7.0854885    3841.9168          129 
    5900   0.52179175   -7.1079697    3844.7528          169 
    6000   0.51066601   -7.0932143    3839.2157          172 
    6100   0.51471135    -7.080563    3845.1119          181 
    6200     0.518647   -7.0944369    3848.2984          167 
    6300   0.51292416   -7.0837277     3832.512          133 
    6400   0.51230459   -7.1024509    3842.6608          113 
    6500   0.51670161   -7.0859349    3843.9197          114 
    6600   0.52282863   -7.0855028    3843.4222          139 
    6700   0.51372327   -7.0986942    3839.0185          134 
    6800   0.51861258   -7.1033473    3837.6022          158 
    6900   0.52427441   -7.0871487    3846.5331          159 
    7000   0.52099471   -7.0873777    3831.5422          168 
    7100    0.5217516   -7.1196295     3847.091          198 
    7200   0.52430832    -7.110403    3823.4282          170 
    7300   0.50946735   -7.1231166    3843.8742          177 
    7400   0.51559267   -7.0962748    3831.7971          196 
    7500   0.52084002   -7.1115268    3841.0992          182 
    7600   0.51810789   -7.0938329    3833.1121          190 
    7700   0.51079528   -7.1214653    3836.5319          219 
    7800   0.52007364    -7.114172    3831.9514          236 
    7900   0.52631625   -7.1159942     3835.035          271 
    8000   0.51867649   -7.1146377    3834.2612          287 
    8100   0.51723619   -7.1149266    3835.2392          327 
    8200   0.54193013   -7.1200009     3834.669          353 
    8300    0.5183555   -7.1174638    3836.1956          299 
    8400   0.51673218   -7.1322907    3842.6412          256 
    8500   0.53279882   -7.1117315    3823.9615          296 
    8600   0.51446099   -7.1314337    3834.2148          317 
    8700   0.51708374   -7.1251737    3834.5225          290 
    8800   0.51615568   -7.1147283    3836.1335          231 
    8900   0.52853755   -7.1089921    3837.1408          340 
    9000   0.51541111   -7.1118524    3837.6728          250 
    9100   0.50569638   -7.1138319    3834.7438          235 
    9200   0.52561028   -7.1264409    3833.4277          238 
    9300   0.50933088   -7.1195986    3830.6053          295 
    9400   0.51486925   -7.1237436    3834.0154          278 
    9500    0.5233193   -7.1264408    3836.6702          432 
    9600   0.51534332   -7.1301859    3827.2939          261 
    9700   0.52756822   -7.1322616    3829.2313          269 
    9800   0.53459188   -7.1310283    3836.9372          359 
    9900   0.52525206   -7.1355866    3823.1916          408 
   10000    0.5200789   -7.1560779    3835.7208          344 
   10100   0.52575014   -7.1209746    3826.4568          357 
   10200   0.52342768   -7.1310881     3833.265          341 
   10300   0.51789115   -7.1365847    3825.1113          329 
   10400   0.52522199   -7.1441044    3831.3922          335 
   10500   0.52027136   -7.1359288    3825.4422          265 
   10600   0.52878457   -7.1533093    3831.4132          263 
   10700   0.52579226   -7.1181196    3821.4683          361 
   10800   0.52135559    -7.130549    3834.1148          328 
   10900   0.51003965   -7.1451816    3834.3962          411 
   11000   0.51771482   -7.1281042      3825.23          396 
   11100     0.529154   -7.1328616    3835.5697          357 
   11200   0.51649046   -7.1352055     3822.045          455 
   11300   0.51218755   -7.1417832    3829.7079          467 
   11400   0.52965039   -7.1378663    3834.0321          423 
   11500   0.51995516   -7.1294455    3834.2594          372 
   11600   0.51524678   -7.1297959    3828.2216          303 
   11700   0.51543686   -7.1330576    3830.4636          354 
   11800   0.51768652   -7.1385102    3829.3417          394 
   11900   0.52607325   -7.1306295    3824.9386          297 
   12000    0.5190945   -7.1522575    3831.7109          401 
   12100   0.51792801   -7.1304427    3823.5042          305 
   12200    0.5175293   -7.1486223    3830.1341          252 
   12300    0.5251548   -7.1377043    3821.5035          528 
   12400    0.5356067   -7.1426469    3827.7343          501 
   12500   0.52656901   -7.1481417    3820.9005          445 
   12600   0.51896023   -7.1495757    3828.7224          485 
   12700   0.51609588   -7.1403307    3822.6282          491 
   12800   0.50982327   -7.1452618    3826.7449          442 
   12900   0.51894944   -7.1415224    3827.3237          510 
   13000   0.50504234   -7.1404826    3822.9312          404 
   13100   0.51130052    -7.165987    3820.3516          565 
   13200   0.52010307   -7.1491034    3824.2853          578 
   13300   0.51968416   -7.1529362     3825.878          551 
   13400   0.50601405   -7.1605936    3819.5086          474 
   13500   0.51555339   -7.1433056    3824.9512          477 
   13600   0.52617627   -7.1546037    3828.8663          537 
   13700   0.51049739   -7.1532463    3817.4165          398 
   13800   0.50872836   -7.1520741    3826.8702          391 
   13900    0.5213316   -7.1434987    3824.0186          404 
   14000   0.50604945   -7.1515293    3832.5596          450 
   14100   0.49688309   -7.1482244    3823.6292          483 
   14200   0.51506903   -7.1340766    3822.2152          370 
   14300   0.53000857   -7.1502774     3828.256          473 
   14400   0.52627024   -7.1573815    3811.4147          459 
   14500   0.51864441   -7.1611488    3830.5142          363 
   14600   0.51619471   -7.1362442    3822.1956          323 
   14700   0.52832908   -7.1674133    3822.4939          426 
   14800   0.51791353   -7.1493308      3812.25          410 
   14900   0.51319578   -7.1518476    3835.1769          542 
   15000   0.52152775    -7.142842    3816.0785          381 
   15100   0.51961898   -7.1558777    3832.0437          448 
   15200   0.51700193   -7.1418771    3822.3482          560 
   15300   0.51689404   -7.1660066    3820.8305          496 
   15400   0.52231052   -7.1557727     3820.974          570 
   15500   0.52425065   -7.1443672    3824.1754          550 
   15600   0.51383661   -7.1607864    3825.2628          647 
   15700   0.51253899   -7.1437753    3819.9275          662 
   15800   0.52282969   -7.1533376     3825.037          613 
   15900   0.52045687   -7.1577366    3822.2431          470 
   16000   0.51655933   -7.1683937    3824.8465          471 
   16100   0.52879621   -7.1393208    3813.8921          594 
   16200   0.52420318   -7.1629719    3821.1264          580 
   16300   0.51353984   -7.1596202    3818.1547          520 
   16400    0.5118572   -7.1422756    3825.5634          644 
   16500   0.52201478   -7.1513868    3824.9494          658 
   16600   0.51602471   -7.1630983    3822.4049          617 
   16700   0.51368797   -7.1590139    3823.2546          627 
   16800   0.52277119   -7.1545587    3821.7592          606 
   16900   0.51298562   -7.1614119    3820.3185          661 
   17000   0.52279174   -7.1576001    3819.9368          629 
   17100   0.52282741   -7.1671209     3827.565          624 
   17200   0.52398484   -7.1619992    3818.2255          655 
   17300   0.53018284   -7.1718105    3822.8095          712 
   17400   0.51296393   -7.1386921    3811.1691          687 
   17500   0.50507984   -7.1663817    3830.4257          667 
   17600   0.52459029   -7.1513036    3818.8872          669 
   17700   0.51622176   -7.1594551    3826.0033          698 
   17800   0.50668185   -7.1631931    3819.4228          773 
   17900   0.52415083   -7.1631184    3821.9376          746 
   18000   0.51387753   -7.1529461    3819.5207          717 
   18100   0.52767434    -7.155834     3824.753          674 
   18200   0.52815598   -7.1507329    3821.4246          696 
   18300   0.52307407   -7.1693693    3818.7254          745 
   18400   0.52773465   -7.1594924    3821.0544          749 
   18500   0.51789165   -7.1472056     3820.308          741 
   18600   0.52166281   -7.1712137    3821.5868          721 
   18700   0.51519361   -7.1634579    3809.4211          779 
   18800   0.52509598   -7.1707651    3825.4062          761 
   18900   0.51688348   -7.1572206    3821.0227          723 
   19000   0.51082061   -7.1596071    3825.0988          753 
   19100   0.52545282   -7.1539081    3814.8148          749 
   19200   0.51766476   -7.1627547    3826.9054          761 
   19300   0.51822778   -7.1618467     3812.846          754 
   19400   0.51688754   -7.1754255    3818.9677          766 
   19500    0.5217087   -7.1682936     3824.848          707 
   19600   0.53608421   -7.1545872    3821.5922          724 
   19700   0.52443809   -7.1570519    3816.5544          677 
   19800   0.51524643    -7.162415    3818.0192          738 
   19900   0.51452125   -7.1601604    3817.5538          761 
   20000   0.52428963   -7.1587004    3827.6316          745 
   20100   0.52850802   -7.1630758    3815.9298          766 
   20200   0.51763192   -7.1695176    3819.1212          739 
   20300   0.52320903   -7.1571824    3820.9301          763 
   20400   0.51487584   -7.1625836    3816.8919          751 
   20500   0.50699526   -7.1681137    3822.7219          729 
   20600   0.53199035   -7.1627637    3815.9045          734 
   20700   0.52529033   -7.1790773    3822.0719          836 
   20800   0.51735608    -7.175785    3811.8459          810 
   20900   0.51149984   -7.1795021    3818.9684          807 
   21000   0.52653185   -7.1692863    3821.4178          762 
   21100   0.51391614   -7.1694123    3813.3647          831 
   21200   0.52049785   -7.1785317     3818.086          812 
   21300   0.52157164   -7.1581458    3816.9522          751 
   21400   0.51979329   -7.1541687    3828.4622          799 
   21500   0.52148226   -7.1688781    3811.7686          883 
   21600   0.51923203    -7.168463    3816.9806          839 
   21700    0.5163867   -7.1693721    3818.5827          902 
   21800   0.51618948     -7.15659     3815.545          871 
   21900   0.52054189   -7.1684383    3825.1888          822 
   22000     0.516294   -7.1663466    3806.0642          845 
   22100   0.51865032   -7.1816905    3822.0301          857 
   22200   0.51939615   -7.1478096    3812.2723          828 
   22300   0.52132787   -7.1790638    3821.3149          802 
   22400   0.51799932   -7.1757379    3822.0265          811 
   22500   0.51978416   -7.1642895    3818.8281          865 
   22600   0.51706738   -7.1606931    3817.5942          787 
   22700   0.51897615   -7.1773546    3813.4835          892 
   22800   0.51801663   -7.1711121    3813.7062          920 
   22900   0.51816895   -7.1504467    3813.7789          877 
   23000   0.51161461   -7.1871091    3824.1806          869 
   23100    0.5148824    -7.180841    3814.9687          896 
   23200   0.51892959   -7.1548325    3817.2589          790 
   23300   0.52002365   -7.1653779     3817.425          858 
   23400   0.51938928   -7.1871047    3817.8145          892 
   23500   0.51513004   -7.1840897     3811.881          881 
   23600   0.53176842   -7.1878637    3817.8397          897 
   23700   0.52185156   -7.1794407    3810.2662          873 
   23800   0.52127358   -7.1732511    3821.2736          793 
   23900   0.52263378    -7.162345    3811.4431          869 
   24000   0.51081045    -7.191104    3819.6773          882 
   24100    0.5268754   -7.1707944    3812.6106          879 
   24200   0.52968204   -7.1773972     3815.209          921 
   24300   0.51305824   -7.1909371    3815.7084          912 
   24400   0.52254035   -7.1748683    3815.4458          890 
   24500   0.53265608   -7.1742744    3816.1717          882 
   24600   0.51915351   -7.1925699    3817.6139          919 
   24700   0.52025547   -7.1819651     3808.832          900 
   24800    0.5202626   -7.1857876    3825.5387          979 
   24900   0.52282275   -7.1564379    3806.8609         1015 
   25000   0.51769672    -7.184557    3820.5655         1015 
   25100   0.51134302   -7.1638467    3807.2577         1017 
   25200   0.52032276   -7.1772996    3822.5724         1028 
   25300   0.52531762   -7.1784497    3810.6659         1002 
   25400   0.52027918   -7.1854615    3813.5095         1049 
   25500   0.52550693   -7.1704992    3817.7919         1080 
   25600   0.51560258   -7.1767454    3814.1816         1104 
   25700   0.50816854   -7.1965707    3812.3244         1051 
   25800   0.52262493   -7.1781854    3809.7502         1002 
   25900   0.52049966   -7.1871605    3826.5994          960 
   26000    0.5171862   -7.1664439    3808.7018          997 
   26100   0.51921485   -7.1945167    3816.0659          989 
   26200   0.53278904   -7.1751252    3813.2906          935 
   26300   0.52956237   -7.1958252    3811.9025         1019 
   26400   0.51302602    -7.179732     3811.268         1012 
   26500   0.53120322   -7.1802162    3816.8154          980 
   26600   0.53177661   -7.1767328    3813.6838          972 
   26700   0.51754719   -7.1772623    3813.7647          991 
   26800   0.52395222   -7.1859924    3814.0545          985 
   26900   0.51514223    -7.190791    3813.4997          962 
   27000   0.51718684   -7.1993497    3808.9831          978 
   27100   0.52146847   -7.1881907    3809.0866          956 
   27200   0.53117283    -7.188543    3813.3874         1012 
   27300   0.51030102   -7.1939902    3813.7005         1012 
   27400   0.52198521   -7.1755978    3807.7211         1049 
   27500   0.52173161   -7.1922535    3815.2046          993 
   27600   0.52093017   -7.2112033    3819.2658         1001 
   27700   0.51781997   -7.1777732    3806.5523         1027 
   27800   0.52152057   -7.1683014    3824.1121         1015 
   27900   0.52637556   -7.1824234    3808.1585         1035 
   28000   0.51757666   -7.1948928    3817.3244         1037 
   28100   0.50103704   -7.1781007    3809.0195          996 
   28200    0.5155313   -7.1918001    3809.4104         1002 
   28300   0.52346743   -7.1775855    3814.1447          983 
   28400   0.51292579   -7.1748888    3815.1909          983 
   28500   0.50994318    -7.185649    3812.4503          990 
   28600   0.52741928   -7.1840753    3812.3257         1003 
   28700   0.52246522   -7.1929057    3819.5101         1046 
   28800   0.53124985   -7.1845761    3799.1005         1082 
   28900   0.50956678   -7.1943318    3812.8939          962 
   29000   0.52150576   -7.1861542     3813.139         1011 
   29100   0.53324818   -7.1809963    3811.6408         1004 
   29200   0.52194883   -7.2114804    3819.3127         1016 
   29300   0.51631943   -7.1832909    3804.0051         1046 
   29400   0.52068549   -7.1913946    3814.4527          951 
   29500   0.51655173   -7.1834994    3806.8796         1007 
   29600   0.53108169   -7.1862533    3815.1745         1013 
   29700   0.51592791   -7.1896254    3813.3912          966 
   29800   0.53012012   -7.1830099    3809.7864          974 
   29900    0.5250005   -7.1889721    3825.0576          966 
   30000   0.52488172   -7.1903116    3805.7115          997 
   30100   0.51810702   -7.1943599    3814.3122          994 
   30200   0.51868191   -7.1860902    3811.8905          943 
   30300    0.5231735   -7.2002416    3808.5261          955 
   30400   0.52312774   -7.1821826    3814.9599          940 
   30500   0.52041042   -7.1693595    3814.1619          940 
   30600   0.51780405   -7.1938706    3814.6824          987 
   30700   0.53701349   -7.2029098    3807.8547         1032 
   30800   0.51655688   -7.1990046    3806.5094         1062 
   30900   0.52949196   -7.1967236    3814.2264         1032 
   31000   0.51485334    -7.181224    3808.9805         1009 
   31100   0.51309808   -7.1754017    3812.6784         1039 
   31200   0.51809916    -7.184846    3819.4495         1014 
   31300   0.52211726   -7.1834533    3807.1266          994 
   31400   0.51342541   -7.2021369    3812.0462         1043 
   31500   0.52058988   -7.1767159    3812.3255         1079 
   31600   0.52749747   -7.1908759     3817.066          997 
   31700   0.51493932   -7.1906602    3812.3974         1008 
   31800   0.50524406   -7.1825062    3812.5681         1037 
   31900   0.52003288   -7.1877808    3814.2717         1046 
   32000   0.52305338   -7.1915145    3816.6758         1064 
   32100   0.51309928   -7.1846262    3802.3905         1079 
   32200   0.52175465   -7.2107203    3817.9092         1092 
   32300   0.52339379   -7.1766741    3809.0775         1064 
   32400   0.51946202   -7.2084104    3803.6643         1106 
   32500   0.51894744   -7.1964104    3803.2527         1141 
   32600   0.52057801   -7.1979258    3814.6411         1112 
   32700   0.52007162   -7.2056538    3809.2637         1147 
   32800   0.52551477   -7.2084181    3802.0881         1168 
   32900   0.52005894   -7.1897661    3815.6949         1078 
   33000   0.50988755   -7.1795033    3807.3664         1131 
   33100   0.51853464   -7.2095131    3814.9968         1126 
   33200   0.52517598   -7.1807672    3803.9797         1095 
   33300   0.52979864   -7.1990187    3818.5469         1118 
   33400   0.51762389   -7.1817441     3805.979         1126 
   33500   0.51273156   -7.2007127    3813.2099         1094 
   33600   0.52718916   -7.1797386    3813.6499         1081 
   33700   0.52792057   -7.1954458    3807.2914         1141 
   33800   0.51883375   -7.1969734     3808.574         1076 
   33900   0.52314731   -7.1859132    3806.6289         1162 
   34000   0.52504172   -7.1933428    3824.6243         1145 
   34100   0.52684584   -7.1944163    3803.2837         1139 
   34200   0.52105217   -7.2078699    3813.9891         1167 
   34300   0.52185425   -7.1955259    3808.7091         1218 
   34400   0.52247041   -7.1869932     3812.954         1282 
   34500   0.52336975   -7.2110437    3805.9778         1282 
   34600   0.52136438   -7.2000277    3807.0433         1213 
   34700   0.52116779   -7.1956119    3810.1261         1303 
   34800   0.51310173   -7.1939096    3805.6142         1281 
   34900   0.51138318   -7.2041358    3815.4384         1266 
   35000   0.52428424   -7.1918317    3808.7704         1313 
   35100   0.52387229   -7.2166143    3803.1288         1281 
   35200   0.52162032   -7.2045341    3809.6949         1235 
   35300   0.50782303    -7.180075    3809.0985         1231 
   35400   0.52966835   -7.1847899    3811.5395         1243 
   35500   0.52029934   -7.1975053    3807.3513         1270 
   35600   0.51027921   -7.2026136    3810.3506         1207 
   35700   0.53261813   -7.1932998    3800.6538         1245 
   35800   0.51509126   -7.2047531    3817.0696         1190 
   35900   0.52518127   -7.1999702    3810.3495         1177 
   36000    0.5180675   -7.1894056    3812.4633         1151 
   36100   0.51508056   -7.2090716    3815.5797         1181 
   36200   0.52326386   -7.1900534    3809.6094         1202 
   36300   0.51893721   -7.1963959    3813.3997         1173 
   36400   0.51183543   -7.1995628    3800.1078         1188 
   36500   0.52156325   -7.2021216    3813.5588         1212 
   36600    0.5189916   -7.1974908    3806.8276         1191 
   36700   0.52768412   -7.2024846    3807.3206         1183 
   36800   0.53568025   -7.1964823    3808.5348         1206 
   36900   0.51990862   -7.2102541    3809.5653         1175 
   37000   0.52026718   -7.1982004    3802.1913         1178 
   37100   0.51439852   -7.1828458    3820.2387         1174 
   37200   0.52909398   -7.1885168    3806.2413         1183 
   37300   0.51830871   -7.2136189    3812.4103         1197 
   37400   0.52014423   -7.1816414    3809.3767         1266 
   37500   0.51527242   -7.1786941    3813.6804         1269 
   37600   0.52121819   -7.2107521    3814.8216         1225 
   37700   0.52203642   -7.1936277    3799.3918         1207 
   37800    0.5223968   -7.1934517    3812.2309         1210 
   37900   0.52400953   -7.1916142    3810.7091         1135 
   38000   0.51801325   -7.2130532    3808.7244         1215 
   38100    0.5146669   -7.1873219    3802.5686         1275 
   38200   0.52407036   -7.1958013    3812.6294         1278 
   38300   0.52079872   -7.1969415    3804.9355         1299 
   38400   0.51109483   -7.2001012    3807.2777         1287 
   38500    0.5338411   -7.2093287    3812.6106         1373 
   38600   0.53203511    -7.205026    3807.2271         1286 
   38700   0.51155824   -7.2082255    3805.1368         1237 
   38800    0.5197245   -7.2070584    3813.9832         1264 
   38900    0.5203369   -7.2048781    3811.4397         1248 
   39000   0.51160159   -7.1997393    3805.1029         1274 
   39100   0.52936579   -7.2155917    3813.3073         1260 
   39200   0.53033601    -7.200132    3804.8063         1225 
   39300   0.51140031   -7.2089738    3808.7265         1186 
   39400    0.5253686   -7.2048629    3807.6098         1214 
   39500   0.52091465   -7.1872244     3807.573         1214 
   39600   0.52114683   -7.2106841    3808.7684         1330 
   39700   0.50709668   -7.1940997    3805.4228         1276 
   39800   0.51851095   -7.2027673    3810.6008         1216 
   39900   0.51011222   -7.2145416    3804.0462         1256 
   40000   0.51474574   -7.2033358    3808.8825         1291 
   40100   0.52926585   -7.2192608    3808.8794         1331 
   40200    0.5228509   -7.2173127    3803.0174         1355 
   40300   0.52522861   -7.1939295    3805.2922         1302 
   40400   0.52623601   -7.1998967    3808.5601         1326 
   40500     0.516752   -7.2230666    3809.1077         1294 
   40600   0.52947178   -7.2150121    3795.5352         1349 
   40700   0.53072255   -7.2198598    3813.1526         1321 
   40800   0.51461321   -7.2051634    3803.4044         1317 
   40900   0.52831733   -7.2087855    3804.5134         1286 
   41000   0.52947503   -7.1986705    3807.1081         1330 
   41100   0.52002095   -7.2213692    3805.9125         1255 
   41200   0.52293076   -7.2104248    3803.0935         1290 
   41300   0.52615156    -7.191703    3811.7155         1270 
   41400   0.52680762   -7.2004086    3797.4731         1290 
   41500   0.51137105   -7.2156183    3812.8719         1320 
   41600   0.52573055   -7.2082925    3801.2007         1317 
   41700   0.52364333   -7.2321018    3803.8473         1348 
   41800   0.51365136   -7.2142781    3803.2297         1274 
   41900   0.52760042   -7.2071768    3806.4368         1279 
   42000   0.52331596    -7.204815    3797.5835         1312 
   42100   0.51639985    -7.234798    3808.8101         1315 
   42200   0.52889968   -7.2097938    3795.6346         1316 
   42300   0.51737234   -7.2184722    3810.6596         1272 
   42400   0.52510712   -7.2131265    3802.2539         1280 
   42500    0.5189807   -7.2187312    3801.0791         1318 
   42600   0.52409916   -7.2114209    3811.5627         1375 
   42700    0.5253388   -7.2128006    3799.6873         1364 
   42800   0.51657762   -7.2226837    3805.9893         1293 
   42900   0.51460531   -7.2092852    3806.6827         1351 
   43000   0.52675443   -7.2121353    3810.2152         1320 
   43100   0.52023877   -7.2014846    3802.3848         1339 
   43200   0.52241675   -7.2183191     3807.234         1355 
   43300    0.5229858   -7.2200604    3805.0342         1337 
   43400   0.51782015   -7.2008308    3806.9629         1371 
   43500    0.5227819   -7.2108348    3811.0439         1334 
   43600   0.52028481   -7.2090429    3799.2044         1330 
   43700   0.52661738   -7.2041758    3808.7713         1326 
   43800   0.51940141   -7.1974387    3799.2215         1329 
   43900    0.5141582   -7.2268301    3807.4071         1363 
   44000   0.50010542   -7.2087619    3800.4187         1331 
   44100   0.52107135   -7.2302194    3811.7562         1372 
   44200    0.5270005   -7.1987098    3793.5788         1387 
   44300   0.52044761   -7.1994728    3811.5754         1431 
   44400   0.51378638   -7.2095268     3805.025         1434 
   44500   0.51932667   -7.2098307    3794.8087         1413 
   44600   0.52698423   -7.2161541    3809.7204         1321 
   44700   0.51592223   -7.1913586    3807.3777         1340 
   44800   0.51272563   -7.2130661    3802.2226         1301 
   44900   0.52338843    -7.229783    3809.1915         1329 
   45000   0.51604736   -7.2303002    3802.5361         1370 
   45100   0.52017911   -7.2446034    3801.5351         1437 
   45200   0.52279687    -7.213043      3794.85         1416 
   45300   0.52366181   -7.2187103    3807.4952         1359 
   45400   0.52357005   -7.1927218    3807.6326         1368 
   45500   0.52886795   -7.2168209    3800.3755         1396 
   45600   0.51837623   -7.2272657    3810.3049         1396 
   45700   0.53256638   -7.1964803    3793.6411         1379 
   45800   0.51261119   -7.2268621     3814.663         1390 
   45900   0.52253795   -7.2012684    3801.1393         1445 
   46000   0.53403724   -7.2108793    3809.3201         1392 
   46100   0.51415873   -7.1990619    3808.0792         1397 
   46200   0.51497317   -7.2163689    3806.6303         1444 
   46300   0.51327558   -7.2135811    3803.7851         1470 
   46400    0.5193417   -7.2072528     3806.033         1441 
   46500   0.50877181   -7.2137495     3804.961         1505 
   46600   0.52020146   -7.2151727    3800.8434         1510 
   46700   0.52933443   -7.2276851    3809.6652         1518 
   46800    0.5157358   -7.2258562    3800.0152         1471 
   46900   0.52864383   -7.2213509    3799.1783         1431 
   47000   0.50573141   -7.2110662    3817.9609         1372 
   47100   0.51308343   -7.2226517     3800.619         1372 
   47200   0.52167082   -7.2267739    3797.6071         1459 
   47300    0.5227488   -7.2248109    3809.6848         1423 
   47400   0.52326949   -7.2030594    3800.6788         1466 
   47500   0.51096673   -7.2163876    3807.9865         1486 
   47600   0.52464015   -7.2201461    3808.1998         1564 
   47700   0.52338618   -7.2055259    3805.9768         1512 
   47800   0.51923565   -7.2264724    3805.4413         1457 
   47900   0.52669019   -7.2216096     3804.965         1405 
   48000    0.5144091   -7.2209237    3805.6016         1511 
   48100   0.51755785   -7.2251506    3798.2304         1517 
   48200   0.53970234   -7.2228678    3800.2062         1560 
   48300   0.52465841   -7.2263774    3805.4285         1541 
   48400   0.50415406   -7.2225486    3803.8013         1558 
   48500   0.52490909   -7.2231905    3803.8206         1480 
   48600   0.52760702   -7.2248469    3801.4484         1446 
   48700   0.51044677    -7.244034    3803.3373         1467 
   48800   0.51601563   -7.2068929    3794.0983         1485 
   48900   0.52666549   -7.2219753    3810.6922         1466 
   49000   0.52001609   -7.2064135    3797.4762         1487 
   49100   0.52019575   -7.2287576      3809.86         1500 
   49200   0.52449367   -7.2114748    3792.5193         1525 
   49300    0.5186355   -7.2264843    3808.7718         1621 
   49400   0.50010863     -7.21144    3799.5177         1572 
   49500   0.52481257   -7.2244232    3801.3656         1530 
   49600    0.5114735   -7.2242677     3807.393         1538 
   49700   0.52067531   -7.2119331    3804.5377         1467 
   49800   0.52352816   -7.2145744    3800.4056         1501 
   49900   0.52020092   -7.2405345    3805.1189         1525 
   50000   0.52377839   -7.2080473    3803.5882         1559 
   50100   0.52339442   -7.2238639    3801.0932         1568 
   50200   0.52888523    -7.235495    3795.6259         1603 
   50300   0.51828815   -7.2382862    3797.4301         1595 
   50400   0.51087741    -7.220649    3806.2789         1575 
   50500   0.52499554   -7.2191544    3796.6181         1568 
   50600   0.51390466   -7.2322715    3801.2329         1562 
   50700   0.50864379   -7.2374229    3796.8034         1603 
   50800   0.52521617   -7.2231576     3795.766         1585 
   50900   0.52342656   -7.2214797    3803.1965         1583 
   51000   0.50838897     -7.22972    3798.9651         1556 
   51100   0.51828917   -7.2272353    3799.0292         1539 
   51200   0.51616487   -7.2166866    3804.5002         1501 
   51300   0.50978436   -7.2010341     3799.581         1496 
   51400   0.51754176   -7.2321358    3807.8121         1501 
   51500   0.51523757    -7.219562    3790.6131         1560 
   51600   0.52553857   -7.2548205     3809.794         1580 
   51700   0.52653558   -7.2168528    3798.1426         1571 
   51800   0.52052198   -7.2307337    3809.9162         1612 
   51900   0.51923232   -7.2310861    3798.7346         1576 
   52000   0.51221049   -7.2234401    3802.5176         1583 
   52100   0.52579459   -7.2195029    3803.8074         1563 
   52200   0.51793031   -7.2253203    3796.5486         1642 
   52300   0.52070063   -7.2296337    3801.4737         1674 
   52400   0.53720983   -7.2268735    3803.9263         1646 
   52500   0.52065506   -7.2132005    3804.4673         1604 
   52600   0.52156503   -7.2296763    3799.2151         1632 
   52700   0.52212244   -7.2322317    3792.6842         1695 
   52800   0.50757154   -7.2453208    3810.8112         1675 
   52900   0.51828355   -7.2107779    3795.5641         1703 
   53000   0.51792976    -7.238785    3804.7055         1671 
   53100   0.51714903   -7.2330003    3790.9907         1668 
   53200    0.5165134   -7.2192538    3810.6846         1674 
   53300   0.52071196   -7.2184095    3795.6299         1685 
   53400   0.51123525   -7.2218398      3804.41         1680 
   53500   0.52491169   -7.2328394    3806.4828         1618 
   53600   0.52674945   -7.2337064    3791.4118         1592 
   53700   0.51947698   -7.2495898    3807.6371         1689 
   53800    0.5273622   -7.2217547    3796.4715         1681 
   53900   0.53222573    -7.222287    3806.8869         1684 
   54000   0.51129688   -7.2227505    3804.6017         1733 
   54100   0.52430844   -7.2295794    3795.7887         1691 
   54200   0.51023532   -7.2317214    3801.0112         1716 
   54300   0.51842924   -7.2280296    3802.7071         1684 
   54400   0.51063694   -7.2354938    3791.3247         1647 
   54500   0.52479044    -7.245952    3800.8793         1669 
   54600   0.51855196   -7.2264749    3798.7626         1702 
   54700   0.51512812   -7.2205773     3798.887         1738 
   54800   0.52521925    -7.237953    3807.3285         1719 
   54900   0.52831629   -7.2251896    3793.4586         1700 
   55000   0.51922341   -7.2497764    3802.8311         1678 
   55100   0.53347898   -7.2185601    3793.3918         1661 
   55200   0.51758999   -7.2327596    3814.1624         1618 
   55300   0.51441382    -7.235542    3787.6964         1667 
   55400   0.51858037   -7.2423134    3803.0032         1679 
   55500   0.52085697   -7.2253717    3802.3362         1648 
   55600   0.51293467   -7.2251124    3802.1774         1620 
   55700   0.52088635   -7.2575326    3798.3592         1675 
   55800    0.5234288   -7.2199918    3795.7829         1694 
   55900   0.51543921   -7.2275673    3804.1902         1697 
   56000   0.51536732   -7.2238182    3796.1274         1644 
   56100   0.51828129   -7.2315304    3801.7365         1711 
   56200   0.50500537   -7.2224375    3795.9398         1731 
   56300   0.52581272   -7.2348723    3800.7577         1797 
   56400   0.51596724   -7.2297961    3803.0971         1735 
   56500   0.51082274   -7.2482214    3801.1521         1679 
   56600   0.52111848   -7.2251614      3794.02         1680 
   56700    0.5197236   -7.2328361    3806.2462         1664 
   56800   0.52817373   -7.2292394    3799.9843         1730 
   56900   0.51585306   -7.2232263    3801.0107         1667 
   57000   0.51140027   -7.2365093    3799.8313         1707 
   57100   0.52472095   -7.2328519    3800.7019         1719 
   57200   0.52407514   -7.2168068    3805.0152         1743 
   57300   0.51637981    -7.226836    3796.0753         1767 
   57400   0.51128815   -7.2491559    3807.3501         1778 
   57500   0.52743609   -7.2174518    3788.8176         1854 
   57600    0.5166837   -7.2309692    3800.6306         1775 
   57700   0.51567314   -7.2389546     3795.478         1703 
   57800   0.51796778   -7.2343444    3800.3586         1742 
   57900   0.52465053   -7.2371182    3801.5156         1705 
   58000   0.50920869   -7.2307336    3797.0086         1733 
   58100   0.51545049   -7.2105803    3801.2513         1733 
   58200   0.52082443   -7.2322951    3799.5563         1735 
   58300   0.51787751   -7.2331488    3792.4126         1744 
   58400   0.52257636   -7.2317678    3797.5197         1701 
   58500   0.52075224   -7.2319647    3808.5041         1753 
   58600   0.52413787   -7.2322359    3787.9448         1754 
   58700   0.51197693   -7.2551884    3794.6776         1771 
   58800   0.51270959    -7.222676    3799.7927         1754 
   58900    0.5225259   -7.2161928    3797.2136         1745 
   59000   0.50498199   -7.2248123    3799.8834         1784 
   59100   0.51951402   -7.2258601    3798.3828         1743 
   59200   0.52798868   -7.2359755    3801.3898         1688 
   59300   0.52207978   -7.2314028    3794.9658         1705 
   59400   0.53069133   -7.2365234     3795.805         1785 
   59500   0.51528212   -7.2260746     3794.497         1809 
   59600   0.51614069   -7.2379223    3800.4823         1733 
   59700   0.53320897   -7.2338511    3800.0944         1747 
   59800   0.51935739   -7.2443104    3804.1575         1803 
   59900   0.52330392   -7.2302068    3794.8758         1814 
   60000   0.52002577   -7.2393369    3800.6358         1776 
   60100   0.50832759   -7.2382758    3793.1324         1823 
   60200   0.51836064   -7.2246794    3796.9787         1767 
   60300   0.51986051   -7.2380359    3806.9298         1775 
   60400   0.51140516   -7.2438423    3788.8575         1790 
   60500   0.52555498   -7.2470363    3797.0573         1812 
   60600   0.52087227    -7.230394    3800.9599         1747 
   60700   0.52837025   -7.2223166    3809.8588         1817 
   60800   0.52256176   -7.2230362    3796.6063         1789 
   60900   0.52282486    -7.258652    3801.4436         1812 
   61000   0.51986742   -7.2499747    3795.3744         1845 
   61100   0.51440075   -7.2338708    3804.2293         1845 
   61200    0.5186495   -7.2278839    3790.6889         1832 
   61300   0.51106594    -7.257313    3804.6003         1899 
   61400   0.51971367   -7.2375328    3795.5972         1862 
   61500   0.52520306   -7.2277342    3796.6093         1843 
   61600   0.51006652   -7.2366666     3798.862         1812 
   61700   0.53601082     -7.25469    3800.8332         1854 
   61800   0.53180335   -7.2120012    3795.6025         1881 
   61900   0.51632074   -7.2323945     3801.689         1889 
   62000   0.51312997   -7.2337626    3800.0768         1906 
   62100   0.52522371   -7.2116911     3801.021         1851 
   62200    0.5264151   -7.2168144    3805.9291         1858 
   62300   0.53291054   -7.2527064     3797.012         1887 
   62400   0.51730647   -7.2374879    3792.3259         1867 
   62500   0.52654155   -7.2385611    3804.9353         1808 
   62600    0.5262611   -7.2239658    3792.6291         1907 
   62700   0.52472574   -7.2339417    3798.1698         1855 
   62800     0.513689   -7.2308105    3790.2569         1844 
   62900   0.51385519   -7.2513581     3797.352         1878 
   63000   0.51921965   -7.2287766    3798.3933         1931 
   63100   0.52738226   -7.2319471    3790.5306         1920 
   63200   0.51710356   -7.2562307    3800.4107         1931 
   63300   0.51474517   -7.2253277    3795.3178         1891 
   63400   0.52598367   -7.2264452    3795.8431         1886 
   63500   0.52544327   -7.2505045    3796.8764         1883 
   63600   0.51869877   -7.2401724    3790.1685         1881 
   63700   0.52763807   -7.2510578    3797.0108         1956 
   63800   0.53477848   -7.2345004    3799.4702         1902 
   63900   0.51549085   -7.2345933    3796.9739         1949 
   64000   0.51540668   -7.2478522     3795.747         1890 
   64100   0.51557731   -7.2392359     3799.164         1941 
   64200   0.51722113   -7.2404086    3800.2441         1908 
   64300   0.52249774    -7.245317    3791.1404         1839 
   64400   0.51994576   -7.2259265    3797.4416         1874 
   64500   0.51315283   -7.2405951    3800.6523         1888 
   64600   0.52088289   -7.2420892    3792.9313         1896 
   64700   0.52377328   -7.2286336    3804.3583         1854 
   64800    0.5194001   -7.2392764    3799.3453         1880 
   64900   0.52035179   -7.2405081    3788.9115         1908 
   65000   0.51681153   -7.2333087    3802.9158         1925 
   65100   0.52282184   -7.2310465    3795.2654         1884 
   65200   0.50729003   -7.2413906    3797.5628         1856 
   65300   0.52546409   -7.2428029     3797.487         1908 
   65400   0.51999687   -7.2578261    3791.6682         1908 
   65500    0.5098716   -7.2399225      3794.48         1871 
   65600   0.52552336   -7.2388008     3790.658         1935 
   65700   0.51738825   -7.2594974    3799.1066         1968 
   65800   0.52721429   -7.2511019    3784.7875         2026 
   65900   0.51905704   -7.2352117    3801.3327         1971 
   66000   0.53101802   -7.2452834    3793.2175         1979 
   66100   0.52791956   -7.2624199    3798.6007         2001 
   66200     0.517695   -7.2526825     3780.808         2033 
   66300   0.51989525   -7.2758112    3809.8634         1993 
   66400   0.51949586   -7.2224928    3782.2456         2027 
   66500   0.53351573   -7.2642368    3797.8066         2038 
   66600   0.51734574   -7.2576431    3793.8071         2005 
   66700   0.51205997   -7.2404479    3794.9684         2019 
   66800   0.52005954   -7.2482891    3792.7146         2073 
   66900   0.51599348   -7.2556964    3786.0017         2045 
   67000   0.52128152   -7.2533272    3792.6145         2018 
   67100   0.51851335   -7.2449414    3799.3411         2028 
   67200   0.51374846   -7.2350901    3798.5424         2107 
   67300   0.51385462   -7.2578069    3790.0392         2118 
   67400   0.52692322    -7.260839    3793.3991         2095 
   67500    0.5231483   -7.2479018    3799.9251         2049 
   67600   0.50992955   -7.2397976    3791.9886         1974 
   67700   0.52258927   -7.2425413    3793.8597         1984 
   67800   0.52771186   -7.2527451    3795.1529         2042 
   67900   0.51645773   -7.2570847      3788.95         2120 
   68000   0.52879333   -7.2654878    3799.3485         2094 
   68100   0.52301622   -7.2390072      3786.95         2120 
   68200    0.5137303    -7.268621    3798.7616         2068 
   68300   0.52736265   -7.2537992    3793.2298         2125 
   68400   0.52792024    -7.246864    3791.5045         2080 
   68500   0.51335278    -7.247614    3798.3599         2103 
   68600   0.53162009   -7.2467216    3792.7807         2056 
   68700   0.51839296   -7.2410097    3788.8642         2056 
   68800   0.52508769   -7.2581127    3798.0922         2105 
   68900   0.51839333   -7.2544558    3784.2796         2066 
   69000   0.52626005   -7.2769959    3800.1285         2035 
   69100   0.50911729   -7.2333926    3790.0788         1959 
   69200    0.5190913   -7.2677942    3794.5129         2020 
   69300    0.5172876   -7.2502683    3787.4341         2068 
   69400   0.52415851   -7.2652678    3800.7906         2012 
   69500   0.51961595    -7.261681    3792.5469         2046 
   69600   0.53081883   -7.2545597    3798.1809         2075 
   69700   0.52105159   -7.2474699    3790.0616         2091 
   69800   0.52510336   -7.2709273     3794.292         2059 
   69900   0.52108345   -7.2506242    3789.2095         2059 
   70000   0.53526308   -7.2494477    3794.2718         2083 
   70100   0.52195957    -7.253245    3790.6787         2097 
   70200   0.51938458   -7.2671726    3792.8807         2126 
   70300   0.52555578   -7.2520375    3786.1519         2097 
   70400   0.52272161   -7.2596482    3801.3951         2115 
   70500   0.51128346   -7.2398037    3794.5521         2058 
   70600   0.50932586   -7.2602562    3789.5532         2093 
   70700   0.51323674   -7.2470907    3785.3374         2098 
   70800   0.50947559   -7.2527319    3803.3884         2066 
   70900   0.53551662   -7.2365541    3793.5519         2078 
   71000   0.52085238    -7.255214    3797.1487         2142 
   71100   0.52531934   -7.2617049    3790.7499         2110 
   71200   0.52619159   -7.2552421    3782.8782         2149 
   71300   0.52341925    -7.250969     3798.536         2201 
   71400   0.52106872   -7.2553113     3791.075         2121 
   71500    0.5250092   -7.2621475    3791.5185         2153 
   71600   0.53041046   -7.2422175    3797.8303         2181 
   71700   0.52026598   -7.2494466    3788.5531         2176 
   71800   0.51949499   -7.2577452    3794.1996         2153 
   71900   0.51086811     -7.24844    3793.6762         2132 
   72000   0.51879227   -7.2527152    3796.4171         2152 
   72100   0.52835434   -7.2464831    3800.4811         2103 
   72200   0.51582547    -7.247104    3792.0946         2105 
   72300   0.51106006   -7.2448126    3786.5184         2166 
   72400   0.52384437   -7.2674564    3797.2478         2256 
   72500   0.51259752   -7.2298339    3788.7629         2195 
   72600   0.53368875   -7.2693713    3793.5632         2205 
   72700   0.52370916   -7.2592015    3787.8246         2201 
   72800   0.51386434   -7.2621946    3799.9113         2208 
   72900   0.53085494   -7.2602615    3783.7628         2235 
   73000   0.51639353   -7.2597219    3788.0855         2247 
   73100   0.52520185   -7.2694898    3792.7127         2296 
   73200    0.5181293   -7.2600369    3792.3676         2242 
   73300   0.51361333   -7.2592885    3787.0772         2176 
   73400   0.52231101   -7.2615823    3803.0214         2177 
   73500   0.51450045   -7.2509823     3785.272         2225 
   73600   0.53095855   -7.2800007    3795.6355         2221 
   73700   0.53382374   -7.2637339    3780.8993         2210 
   73800   0.53373477   -7.2540021    3795.3423         2242 
   73900   0.51957612   -7.2583227    3793.0099         2243 
   74000   0.52089488   -7.2651459    3793.0628         2237 
   74100   0.52375236   -7.2563233    3790.8195         2235 
   74200   0.52101203   -7.2700212    3793.1704         2251 
   74300   0.50864249   -7.2612615    3787.5963         2249 
   74400   0.52574942   -7.2585909     3791.084         2208 
   74500   0.52517787   -7.2611428    3791.5983         2231 
   74600   0.51729885   -7.2695616    3781.3959         2245 
   74700   0.51949803   -7.2766415    3795.4536         2219 
   74800   0.52729755     -7.24208    3786.3469         2210 
   74900   0.51669098   -7.2664221    3794.9529         2178 
   75000   0.51792042    -7.266225    3789.0686         2134 
   75100   0.53330237    -7.270473    3791.3682         2220 
   75200   0.52011863   -7.2720949    3787.9493         2199 
   75300   0.51093841   -7.2693682    3785.9787         2285 
   75400   0.51371715   -7.2548899    3788.4899         2261 
   75500   0.51633269   -7.2683281    3789.6719         2342 
   75600    0.5152812   -7.2840855    3786.1186         2253 
   75700   0.52312768   -7.2731723    3794.0849         2216 
   75800   0.52029485   -7.2561405    3787.8567         2207 
   75900   0.52430046   -7.2737653    3779.2835         2232 
   76000   0.51311095   -7.2716057    3799.2006         2198 
   76100   0.53105317    -7.255869    3787.1499         2192 
   76200   0.51989969   -7.2748818    3791.5471         2172 
   76300   0.51470574   -7.2647616    3789.2659         2217 
   76400   0.52786019   -7.2735513    3794.1068         2213 
   76500   0.51654645   -7.2593376    3787.6752         2212 
   76600   0.51941034   -7.2843866    3788.1031         2250 
   76700   0.52614563   -7.2491405    3786.6337         2231 
   76800   0.51723824   -7.2610655    3791.5603         2228 
   76900   0.51851264   -7.2846098    3788.2216         2227 
   77000   0.51122241    -7.263673    3784.6526         2258 
   77100   0.52068613   -7.2669802    3790.3077         2244 
   77200   0.54199586   -7.2746368    3798.4827         2164 
   77300   0.52129032   -7.2465399    3793.7269         2143 
   77400   0.51706959   -7.2585009    3786.8859         2116 
   77500   0.52346198   -7.2704959    3799.0611         2138 
   77600   0.51958936   -7.2459197    3782.7425         2131 
   77700   0.51160738   -7.2763143    3797.4432         2192 
   77800   0.52548344   -7.2511328    3787.2134         2262 
   77900   0.52053238   -7.2623014    3791.3145         2259 
   78000    0.5200548   -7.2696408    3794.2025         2235 
   78100   0.53080374   -7.2494812    3793.0611         2228 
   78200   0.51944866   -7.2645668    3788.5281         2220 
   78300   0.51274715   -7.2694731    3784.9607         2249 
   78400   0.52187158   -7.2580663      3792.44         2273 
   78500   0.52572876   -7.2628558     3791.096         2241 
   78600   0.51235313    -7.272285    3793.9011         2242 
   78700   0.52249321   -7.2568825    3779.9044         2240 
   78800   0.53118371   -7.2647743    3794.2247         2260 
   78900   0.50590434   -7.2580547    3789.0393         2243 
   79000   0.51945054   -7.2616646    3789.3437         2233 
   79100   0.52460721   -7.2477259    3791.0719         2265 
   79200   0.52567087   -7.2892082    3788.5634         2298 
   79300   0.50794206   -7.2607742     3784.317         2291 
   79400   0.51194715   -7.2583182    3791.2509         2283 
   79500   0.52729337   -7.2531354    3787.6456         2249 
   79600   0.51717241   -7.2743323    3792.7463         2318 
   79700   0.51470907   -7.2713242    3789.1859         2397 
   79800   0.52781062   -7.2652269    3785.7812         2358 
   79900   0.53266864   -7.2709473    3800.6101         2320 
   80000   0.52209089   -7.2587631    3781.4173         2359 
   80100   0.51011335   -7.2713429    3798.8117         2385 
   80200   0.52520477   -7.2629622    3783.5502         2307 
   80300   0.51043618   -7.2642945    3789.0182         2315 
   80400   0.51965159   -7.2855677    3790.2236         2298 
   80500   0.52137493   -7.2547014    3787.9957         2311 
   80600   0.52371985   -7.2625168    3791.4882         2359 
   80700   0.52168278   -7.2703121    3786.8178         2403 
   80800   0.51678596    -7.282645    3785.9894         2336 
   80900    0.5161727   -7.2491948    3792.8951         2327 
   81000   0.51620239   -7.2587114    3788.1979         2334 
   81100    0.5193269   -7.2696018    3787.0815         2282 
   81200     0.531582   -7.2659337    3785.9932         2309 
   81300    0.5277252    -7.261096    3795.2652         2311 
   81400   0.51746994   -7.2652479    3787.4052         2357 
   81500   0.51530134   -7.2723606     3787.319         2321 
   81600   0.54089257   -7.2727203    3784.5856         2377 
   81700   0.52347687   -7.2721486    3786.3437         2372 
   81800   0.51479407   -7.2758618    3782.8912         2410 
   81900   0.50808021   -7.2844745    3789.5862         2391 
   82000    0.5144299   -7.2507064    3777.2712         2403 
   82100   0.50997232   -7.2742744    3798.7178         2422 
   82200   0.51897866   -7.2644073    3773.2455         2430 
   82300   0.52385377    -7.292028    3786.5385         2377 
   82400    0.5272155   -7.2839369    3784.6761         2324 
   82500   0.50548844    -7.271059    3787.4645         2386 
   82600   0.52281219   -7.2619939    3784.6506         2373 
   82700   0.51439098   -7.2756033    3787.7826         2410 
   82800   0.51326434   -7.2627875    3776.3067         2403 
   82900    0.5170826   -7.2836269    3795.2848         2449 
   83000   0.51487303   -7.2650011    3786.4398         2416 
   83100   0.52649037   -7.2916706    3784.7851         2380 
   83200   0.51591716   -7.2809657    3791.3963         2415 
   83300   0.52431149   -7.2711491    3786.5197         2467 
   83400   0.51948448   -7.2868321     3783.441         2430 
   83500   0.51376402   -7.2856102    3791.4197         2410 
   83600   0.52964162   -7.2689721    3784.1047         2449 
   83700   0.52093019   -7.2847666    3782.7624         2451 
   83800   0.52139565   -7.2906139    3783.2116         2443 
   83900   0.53418908   -7.2818694    3788.4358         2432 
   84000   0.51997264   -7.2742683    3782.6138         2422 
   84100   0.51213702   -7.2724288    3785.5805         2426 
   84200   0.52190152   -7.2727885    3781.7862         2433 
   84300   0.51379604   -7.3075525    3786.0044         2460 
   84400   0.51550874   -7.2725955    3776.4087         2451 
   84500   0.52565315   -7.2944757    3791.7435         2474 
   84600   0.50953504   -7.2714864     3776.427         2480 
   84700   0.50885486   -7.2891992    3780.1748         2459 
   84800    0.5312946   -7.2819615    3777.6041         2447 
   84900   0.53249345    -7.291433     3778.351         2462 
   85000   0.50951812   -7.2991566    3785.2934         2477 
   85100   0.52166464   -7.2902231    3782.7793         2480 
   85200   0.51366119   -7.2642176    3780.6281         2444 
   85300    0.5073977   -7.2736822    3793.9051         2451 
   85400   0.51117918   -7.2840195    3774.8532         2455 
   85500   0.51688571     -7.29895    3786.4841         2473 
   85600   0.51669773   -7.2724779    3785.9678         2472 
   85700   0.52655364   -7.2855367    3784.9653         2473 
   85800   0.51579771   -7.2988782    3782.3193         2498 
   85900    0.5200118   -7.2777022    3778.2622         2476 
   86000    0.5292542   -7.2943854    3785.1248         2497 
   86100   0.50536179   -7.2820476     3777.739         2481 
   86200   0.51440394   -7.2895945    3784.5419         2469 
   86300   0.51605807   -7.2828966    3784.4894         2559 
   86400   0.51453691   -7.2793231    3778.0539         2526 
   86500   0.51733083   -7.3101193    3783.2344         2547 
   86600   0.52040499   -7.2844841    3784.8663         2549 
   86700    0.5204318   -7.2841214    3782.1129         2523 
   86800   0.52193163    -7.307818    3779.9833         2621 
   86900   0.52179207   -7.2832183    3782.5437         2573 
   87000    0.5225776   -7.2833818    3781.3229         2559 
   87100   0.51313455   -7.2860522      3783.26         2558 
   87200   0.52187797   -7.2855198    3785.1308         2583 
   87300   0.53217954   -7.2761955    3779.1701         2571 
   87400   0.52730921   -7.3009348    3785.4142         2547 
   87500    0.5252363    -7.310548    3777.2223         2576 
   87600   0.51554254   -7.2891559     3785.107         2585 
   87700   0.51333246   -7.2872662    3787.8214         2636 
   87800   0.50971578   -7.2956859    3777.1797         2680 
   87900   0.51493092   -7.3140706    3783.2831         2642 
   88000   0.51860477   -7.2822357    3774.0779         2596 
   88100   0.52490755   -7.2867897    3785.2543         2621 
   88200   0.52410458   -7.2825809    3786.9152         2619 
   88300   0.51630509   -7.2948566    3785.2385         2634 
   88400   0.51583541   -7.3014163    3771.4311         2618 
   88500   0.51968617   -7.3039993    3785.3903         2614 
   88600   0.51874884   -7.2829543    3779.3655         2638 
   88700   0.51785816   -7.3028433    3781.9558         2640 
   88800    0.5195084    -7.307645     3778.724         2592 
   88900    0.5321982   -7.2923465    3781.1322         2595 
   89000    0.5309037   -7.3109908     3783.703         2633 
   89100   0.52706347   -7.3015021    3775.5394         2684 
   89200   0.52104453   -7.3014837    3781.5194         2717 
   89300   0.52544349   -7.2984378    3780.7101         2749 
   89400   0.51977785   -7.2961612    3771.9181         2727 
   89500   0.52628367   -7.2964808    3778.0954         2629 
   89600    0.5252506   -7.2832345    3784.3254         2689 
   89700   0.52208325   -7.2929957    3780.0803         2632 
   89800   0.52526089   -7.3055454    3778.0681         2652 
   89900   0.52856661   -7.2956012    3789.7563         2587 
   90000   0.52827659    -7.273693    3784.7688         2631 
   90100   0.52232096   -7.2950616    3780.4255         2709 
   90200   0.51895571   -7.3141759    3778.8578         2653 
   90300   0.52082152   -7.2979424    3774.8831         2676 
   90400   0.51350501   -7.3027242    3783.5345         2735 
   90500   0.52496721   -7.2948016     3777.743         2722 
   90600   0.52288097   -7.2974876    3778.6996         2737 
   90700   0.51531439   -7.3032295    3780.6844         2744 
   90800   0.52447084   -7.3094725     3775.606         2730 
   90900   0.50860152   -7.3067056    3778.4696         2726 
   91000   0.52502867   -7.3047438    3783.2047         2722 
   91100   0.51704163   -7.3022348    3773.2845         2777 
   91200   0.51862534   -7.3034999      3782.53         2690 
   91300   0.51790255   -7.2828322    3778.2476         2698 
   91400   0.53102287   -7.3115632    3783.3381         2714 
   91500    0.5198948   -7.3136922    3779.6238         2719 
   91600   0.51821355   -7.3087455    3780.6308         2773 
   91700   0.52033176   -7.2936893    3778.8651         2726 
   91800   0.52467848   -7.3028594    3791.1521         2689 
   91900   0.51442812   -7.3065542     3772.805         2706 
   92000   0.51982439   -7.3036131    3777.6157         2812 
   92100   0.53382445   -7.2945298    3778.3593         2758 
   92200   0.51579027   -7.2968732    3782.8757         2798 
   92300   0.51119706   -7.2931754    3774.9847         2800 
   92400   0.52050359   -7.3106036    3784.2675         2766 
   92500   0.52259818   -7.2986695    3774.8286         2779 
   92600   0.52433879   -7.3199757    3783.0167         2793 
   92700    0.5113656   -7.3029599     3775.035         2750 
   92800   0.52820178   -7.3027354    3776.9897         2739 
   92900   0.52441771   -7.3079912    3779.3137         2761 
   93000    0.5178702     -7.31351    3775.4426         2757 
   93100   0.51496383   -7.3330702    3783.6035         2804 
   93200   0.51883588   -7.2799747    3766.5306         2793 
   93300   0.51987065   -7.3174012    3787.7493         2822 
   93400   0.51496723    -7.293579     3768.638         2781 
   93500   0.52701663   -7.3108336    3780.1716         2718 
   93600   0.50535596    -7.301391    3778.4413         2730 
   93700    0.5258506   -7.3132247    3775.1663         2725 
   93800   0.52794708   -7.3041505       3780.7         2668 
   93900   0.52044936   -7.3105628    3783.5256         2746 
   94000   0.52875032   -7.3130758     3776.241         2760 
   94100   0.53817737   -7.3035132    3779.7495         2743 
   94200   0.51847894   -7.2948119    3770.8894         2737 
   94300   0.52953826   -7.3256743    3778.0489         2734 
   94400   0.51481181   -7.3103826    3774.7647         2727 
   94500   0.51690374   -7.3013138    3781.7466         2758 
   94600   0.51872098   -7.2987572    3778.2359         2774 
   94700   0.51889948   -7.3210137    3771.6681         2760 
   94800    0.5127456   -7.3202896    3777.3978         2717 
   94900   0.52179974   -7.2989662    3776.9525         2725 
   95000   0.51390397   -7.3099827    3785.3126         2753 
   95100    0.5228877   -7.3247419    3769.5019         2790 
   95200   0.51988959   -7.3033339    3777.2239         2779 
   95300   0.51822932   -7.2984644    3778.8049         2745 
   95400   0.51320025   -7.3174959    3774.6497         2744 
   95500   0.51692321    -7.316753    3776.0111         2745 
   95600   0.52240363   -7.3085416    3777.3105         2774 
   95700   0.51864248   -7.3130484    3773.6387         2749 
   95800   0.52196342   -7.3223325    3774.6745         2770 
   95900   0.52151595   -7.2978916    3780.5555         2792 
   96000   0.52007298   -7.2940126    3778.1797         2761 
   96100   0.51918333   -7.3098056    3777.3741         2806 
   96200    0.5124935    -7.310335    3771.4861         2799 
   96300   0.51922568   -7.3000837    3782.9105         2803 
   96400    0.5223373   -7.3104231    3774.3681         2828 
   96500   0.52216628   -7.3112272    3773.2014         2758 
   96600   0.52961695    -7.301805    3778.6723         2750 
   96700   0.51532182   -7.2996957    3775.2593         2780 
   96800   0.51819398   -7.3207296    3780.1829         2758 
   96900   0.51356564    -7.316407    3777.8248         2789 
   97000   0.52176588   -7.3228101     3772.445         2782 
   97100   0.53153477   -7.3091984    3777.1969         2740 
   97200   0.51849643   -7.3169804    3775.1144         2797 
   97300   0.52222621   -7.3144752    3771.3526         2800 
   97400   0.52288518   -7.2998532    3776.8024         2764 
   97500    0.5266485   -7.3319637    3783.5676         2795 
   97600   0.52114791   -7.3184757    3771.8602         2809 
   97700   0.53159756   -7.3132431    3778.4035         2854 
   97800   0.51915699   -7.3043383    3775.8959         2820 
   97900   0.52452091   -7.3199322     3776.252         2847 
   98000   0.51861596   -7.3069443    3777.4813         2842 
   98100   0.52599566   -7.3081978    3773.7144         2862 
   98200   0.51095884   -7.3233988    3778.3394         2770 
   98300   0.51577263   -7.3098092    3775.9591         2790 
   98400   0.52462864   -7.3196398    3772.0981         2791 
   98500   0.53151035   -7.3315849    3776.4211         2801 
   98600   0.51812325   -7.3103392    3773.3908         2816 
   98700    0.5137782   -7.3197696     3772.266         2800 
   98800     0.516522   -7.3012956    3777.4267         2752 
   98900   0.51067263    -7.306888    3774.6451         2831 
   99000   0.51873834   -7.3182792    3776.7862         2800 
   99100   0.51785342   -7.3053196    3769.5737         2841 
   99200   0.51930124   -7.3192358    3774.7308         2794 
   99300    0.5187419   -7.3445833     3771.532         2883 
   99400   0.51400039   -7.3184591    3769.7607         2815 
   99500   0.52296237   -7.3109435    3772.5809         2821 
   99600   0.51531174   -7.3110078    3772.2396         2812 
   99700   0.51976277   -7.3393361    3770.7412         2850 
   99800   0.52047461   -7.3324061    3771.1582         2858 
   99900   0.52399855   -7.3111814    3770.7802         2822 
  100000   0.51871118   -7.3303446     3774.063         2850 
  100100   0.51298126   -7.3390948    3769.5608         2830 
  100200    0.5209587   -7.3251763    3775.9749         2869 
  100300   0.52552792   -7.3158948    3768.8489         2835 
  100400   0.51458915   -7.3339859      3778.98         2841 
  100500   0.52170882   -7.3126248    3765.9269         2832 
  100600   0.50838949   -7.3269044    3773.5761         2823 
  100700   0.52760571   -7.3138277    3769.8976         2806 
  100800   0.51889744   -7.3301092    3772.9732         2850 
  100900   0.51560998   -7.3259437    3769.0177         2813 
  101000   0.52427576   -7.3183533    3776.2597         2836 
  101100   0.50872558   -7.3227734      3772.31         2827 
  101200   0.52338017   -7.3345845    3768.4683         2863 
  101300   0.51902151    -7.317787     3771.108         2846 
  101400   0.53023004   -7.3250461    3777.7471         2884 
  101500   0.51156161   -7.3299925    3780.2226         2852 
  101600   0.51141541   -7.3203457    3769.1952         2811 
  101700   0.51614808   -7.3220166    3778.2426         2817 
  101800   0.53198613   -7.3099561    3769.6919         2793 
  101900   0.52016001    -7.330843    3771.8362         2821 
  102000   0.52584068   -7.3291882    3771.5946         2801 
  102100   0.52712288   -7.3153251     3770.088         2799 
  102200   0.52280685   -7.3358985    3770.6219         2834 
  102300   0.51377638   -7.3205173    3771.7191         2814 
  102400   0.52241794    -7.318729    3772.3271         2843 
  102500   0.51336497    -7.329809     3775.033         2878 
  102600   0.52840478   -7.3300934    3769.7387         2843 
  102700   0.53303995   -7.3300148    3778.3377         2796 
  102800   0.51510837   -7.3079412    3770.8344         2785 
  102900   0.51828125   -7.3277706    3769.3274         2843 
  103000   0.52567692    -7.311605    3773.1879         2858 
  103100   0.50953714   -7.3105302    3776.4952         2851 
  103200   0.51400092   -7.3232141    3767.8237         2823 
  103300   0.52432559   -7.3312113    3776.0403         2826 
  103400   0.52124799   -7.3198118    3772.3549         2880 
  103500    0.5116359   -7.3267902    3771.7718         2858 
  103600   0.53468914   -7.3234184     3771.192         2819 
  103700   0.52241498   -7.3188882    3778.0381         2812 
  103800   0.51490054   -7.3195171    3769.4846         2789 
  103900    0.5381838   -7.3281837    3775.7135         2826 
  104000   0.52469771   -7.3205426    3770.5908         2802 
Loop time of 192.439 on 28 procs for 100000 steps with 4000 atoms

Performance: 89794.780 tau/day, 519.646 timesteps/s
99.7% CPU use with 28 MPI tasks x no OpenMP threads

MPI task timing breakdown:
Section |  min time  |  avg time  |  max time  |%varavg| %total
---------------------------------------------------------------
Pair    | 18.865     | 20.037     | 21.347     |  14.5 | 10.41
Neigh   | 1.5733     | 1.6129     | 1.6819     |   2.3 |  0.84
Comm    | 10.9       | 12.926     | 14.324     |  25.8 |  6.72
Output  | 7.2511     | 7.252      | 7.264      |   0.1 |  3.77
Modify  | 143.62     | 146.38     | 151.17     |  20.0 | 76.07
Other   |            | 4.228      |            |       |  2.20

Nlocal:        142.857 ave         154 max         131 min
Histogram: 1 0 2 8 1 7 5 1 1 2
Nghost:        2323.71 ave        2339 max        2307 min
Histogram: 3 3 1 3 1 7 2 3 0 5
Neighs:        17519.2 ave       19143 max       15992 min
Histogram: 1 2 2 6 5 5 2 1 2 2
FullNghs:      35039.0 ave       38104 max       32112 min
Histogram: 1 0 3 6 4 6 5 0 1 2

Total # of neighbors = 981091
Ave neighs/atom = 245.27275
Neighbor list builds = 4265
Dangerous builds = 0

#clear
#
#next RN
#
#jump SELF
Total wall time: 0:03:13
