
units lj                  # Use reduced LJ style units
atom_style atomic         # Uncharged point particles
atom_modify map hash      # Needed for indexing of clusters etc
                          # Used to be able to find where atoms are in relation to each other.

# Define a lattice with which to populate the simulation cell. With units
# set to 'lj' the second argument to the lattice command is the reduced
# density rho* and the spacings are multiples of that required to acheive
# that density. Also define a simulation cell called 'box' in lattice units
# and fill it with atoms. Here we're creating a box which is ten lattice
# constants in each direction.
lattice fcc 1.0 spacing 1 1 1                 # All equal sizes - gives the right reduced density.
Lattice spacing in x,y,z = 1.5874011 1.5874011 1.5874011

region box block 0 10 0 10 0 10 units lattice # Defines a region, "box", in lattice units
create_box 1 box                              # Creates a simulation box as specified above,
Created orthogonal box = (0.0000000 0.0000000 0.0000000) to (15.874011 15.874011 15.874011)
  3 by 4 by 4 MPI processor grid
                                              # with one type of atom
create_atoms 1 box                            # Creates particles on lattice points
Created 4000 atoms
  using lattice units in orthogonal box = (0.0000000 0.0000000 0.0000000) to (15.874011 15.874011 15.874011)
  create_atoms CPU = 0.003 seconds


# Set the mass of the first (and only) atom type.
mass 1 1.0

# Lennard-Jones interactions between particles, 3.5 sigma cut-off. Apply
# long range tail corrections to energy and pressure and set all coefficients
# to unity since we work in reduced units here. Note that this doesn't shift
# the potential such that it goes to zero at the cutoff. That would require
# pair_modify('shift', 'yes').
pair_style lj/cut  3.5      # non-GPU version
pair_modify tail  yes
pair_coeff 1  1  1.0  1.0   # Intearaction between 1 and 1 set with epsilon = 1 and sigma = 1

write_data data.*
System init for write_data ...
Neighbor list info ...
  update every 1 steps, delay 10 steps, check yes
  max neighbors/atom: 2000, page size: 100000
  master list distance cutoff = 3.8
  ghost atom cutoff = 3.8
  binsize = 1.9, bins = 9 9 9
  1 neighbor lists, perpetual/occasional/extra = 1 0 0
  (1) pair lj/cut, perpetual
      attributes: half, newton on
      pair build: half/bin/atomonly/newton
      stencil: half/bin/3d
      bin: standard

#############################
#   M E L T   S Y S T E M   #
#############################

velocity all create 2.4 9622624 mom yes dist gaussian # Assign velocities
                                                    # Temperature 2.4, random number seed, zero linear momentum
						                                                        # Gaussian distribution

timestep 0.002   # simulation timestep
thermo 1000       # output thermodynamic data every 1000 steps

# Define a fix  in this case with index 1 applied to all
# particles in the simulation. This fix is for simulations
# in the anisotropic NPT ensemble. Note that we use the MTK
# correction.
fix 1 all npt temp 2.4 2.4 0.1 iso 5.68 5.68 0.5 mtk yes tchain 5 pchain 5 # Use NPT ensemble
                                                                         # Set temperature and pressure and damping
                                                                         # Numbers of thermostats in chain and in barostat
run 1000         # run for 10000 steps
Per MPI rank memory allocation (min/avg/max) = 3.642 | 3.644 | 3.648 Mbytes
Step Temp E_pair E_mol TotEng Press Volume 
       0          2.4   -8.3859253            0   -4.7868253   -2.2405722         4000 
    1000    2.3675277   -4.4709979            0  -0.92059417    5.6600046    5150.2326 
Loop time of 0.22007 on 48 procs for 1000 steps with 4000 atoms

Performance: 785206.272 tau/day, 4544.018 timesteps/s
99.4% CPU use with 48 MPI tasks x no OpenMP threads

MPI task timing breakdown:
Section |  min time  |  avg time  |  max time  |%varavg| %total
---------------------------------------------------------------
Pair    | 0.093699   | 0.1006     | 0.11225    |   1.2 | 45.71
Neigh   | 0.017876   | 0.018858   | 0.021428   |   0.5 |  8.57
Comm    | 0.066099   | 0.075509   | 0.085053   |   1.6 | 34.31
Output  | 2.4173e-05 | 2.5369e-05 | 3.3398e-05 |   0.0 |  0.01
Modify  | 0.01816    | 0.023546   | 0.028715   |   1.9 | 10.70
Other   |            | 0.001534   |            |       |  0.70

Nlocal:        83.3333 ave          90 max          75 min
Histogram: 3 2 3 4 10 0 12 2 7 5
Nghost:        1388.62 ave        1413 max        1360 min
Histogram: 1 2 4 4 7 12 8 6 2 2
Neighs:        7393.46 ave        8492 max        6395 min
Histogram: 2 3 7 3 11 8 7 4 2 1

Total # of neighbors = 354886
Ave neighs/atom = 88.721500
Neighbor list builds = 87
Dangerous builds = 21

# Equilibrate just above the melting temperature to avoid step fn in T

fix 1 all npt temp 1.25 1.25 0.1 iso 5.68 5.68 0.5 mtk yes tchain 5 pchain 5
run 1000
Per MPI rank memory allocation (min/avg/max) = 3.642 | 3.644 | 3.648 Mbytes
Step Temp E_pair E_mol TotEng Press Volume 
    1000    2.3675277   -4.4709979            0  -0.92059417    5.6600046    5150.2326 
    2000    1.2613379    -5.848842            0   -3.9573082    5.7258602    4335.5859 
Loop time of 0.213621 on 48 procs for 1000 steps with 4000 atoms

Performance: 808907.837 tau/day, 4681.180 timesteps/s
99.6% CPU use with 48 MPI tasks x no OpenMP threads

MPI task timing breakdown:
Section |  min time  |  avg time  |  max time  |%varavg| %total
---------------------------------------------------------------
Pair    | 0.092167   | 0.099849   | 0.10982    |   1.1 | 46.74
Neigh   | 0.015604   | 0.016524   | 0.017359   |   0.3 |  7.74
Comm    | 0.063499   | 0.073024   | 0.079756   |   1.6 | 34.18
Output  | 2.4233e-05 | 2.485e-05  | 3.1388e-05 |   0.0 |  0.01
Modify  | 0.0188     | 0.022301   | 0.026661   |   1.5 | 10.44
Other   |            | 0.001899   |            |       |  0.89

Nlocal:        83.3333 ave          91 max          78 min
Histogram: 6 4 3 15 4 4 7 1 2 2
Nghost:        1554.67 ave        1575 max        1533 min
Histogram: 2 4 1 5 7 14 6 4 2 3
Neighs:        8779.02 ave        9592 max        8178 min
Histogram: 5 6 7 5 5 7 7 1 3 2

Total # of neighbors = 421393
Ave neighs/atom = 105.34825
Neighbor list builds = 76
Dangerous builds = 9


# Small amount of linear quench

fix 1 all npt temp 1.25 ${temp} 0.1 iso 5.68 5.68 0.5 mtk yes tchain 5 pchain 5
fix 1 all npt temp 1.25 0.77 0.1 iso 5.68 5.68 0.5 mtk yes tchain 5 pchain 5
run 2000
Per MPI rank memory allocation (min/avg/max) = 3.643 | 3.645 | 3.648 Mbytes
Step Temp E_pair E_mol TotEng Press Volume 
    2000    1.2613379    -5.848842            0   -3.9573082    5.7258602    4335.5859 
    3000    1.0379757   -6.1491164            0    -4.592542    5.8117073      4193.63 
    4000    0.7921025   -6.5524847            0    -5.364628    5.8718981     4023.809 
Loop time of 0.459088 on 48 procs for 2000 steps with 4000 atoms

Performance: 752796.260 tau/day, 4356.460 timesteps/s
99.7% CPU use with 48 MPI tasks x no OpenMP threads

MPI task timing breakdown:
Section |  min time  |  avg time  |  max time  |%varavg| %total
---------------------------------------------------------------
Pair    | 0.20426    | 0.21822    | 0.2605     |   2.0 | 47.53
Neigh   | 0.026112   | 0.027416   | 0.031538   |   0.6 |  5.97
Comm    | 0.11984    | 0.16064    | 0.18364    |   2.9 | 34.99
Output  | 4.8019e-05 | 4.9653e-05 | 6.2886e-05 |   0.0 |  0.01
Modify  | 0.038103   | 0.047754   | 0.064013   |   3.0 | 10.40
Other   |            | 0.005007   |            |       |  1.09

Nlocal:        83.3333 ave          92 max          78 min
Histogram: 1 3 12 12 10 6 1 2 0 1
Nghost:        1638.73 ave        1652 max        1624 min
Histogram: 4 1 5 8 4 5 6 7 4 4
Neighs:        9480.44 ave       10774 max        8859 min
Histogram: 3 7 14 15 3 3 1 0 1 1

Total # of neighbors = 455061
Ave neighs/atom = 113.76525
Neighbor list builds = 120
Dangerous builds = 0

#############################
# F R E E Z E  S Y S T E M  #
#############################

# Define solid atoms. This closely follows ten Wolde  Ruiz-Montero and Frenkel  Faraday Discuss  1996  104  93-110
# Compute components of the per-atom q6 vector
compute q6 all orientorder/atom degrees 1 6 components 6 nnn NULL cutoff 1.3 # compute the Q6 parameter.
                                                                             # Use all neighbours within 1.3 unit cell.

# get number of connections
compute coord_number all coord/atom orientorder q6 0.5

# An atom is solid if it has 8 or more connections (of a possible 14)
variable is_solid atom c_coord_number>=8
group solid dynamic all var is_solid    # Must be dynamic to update
dynamic group solid defined

# do clustering
compute cluster solid cluster/atom 1.3 # Create a cluster where all atoms within are solid and max 1.3 units from another member

# define chunks one chunk per cluster
compute clus_chunks solid chunk/atom c_cluster nchunk every compress yes  # Says which atoms are in which chunk

# count the size of each chunk
compute size_chunks solid property/chunk clus_chunks count


# Find the maximum entry in the vector of chunk sizes
variable max_n equal max(c_size_chunks)


# Thermo style which includes this variable
thermo_style custom step temp pe vol v_max_n

thermo ${N}  # Print the thermo information every 100 steps
thermo 1000  

# Reset the npt fix at a lower temperature (below freezing)
fix 1  all npt temp  ${temp} ${temp}  0.1  iso  5.68  5.68  0.5  mtk yes tchain  5  pchain  5
fix 1  all npt temp  0.77 ${temp}  0.1  iso  5.68  5.68  0.5  mtk yes tchain  5  pchain  5
fix 1  all npt temp  0.77 0.77  0.1  iso  5.68  5.68  0.5  mtk yes tchain  5  pchain  5

dump dmp2 all dcd ${N} traj_${rand}.dcd
dump dmp2 all dcd 1000 traj_${rand}.dcd
dump dmp2 all dcd 1000 traj_462431.dcd


# fix rnuntil all halt ${N} v_max_n >= 3980 error soft message no   # Stop when solidified


run 1000000 # 5000000  # Run for this many steps
Neighbor list info ...
  update every 1 steps, delay 10 steps, check yes
  max neighbors/atom: 2000, page size: 100000
  master list distance cutoff = 3.8
  ghost atom cutoff = 3.8
  binsize = 1.9, bins = 9 9 9
  4 neighbor lists, perpetual/occasional/extra = 1 3 0
  (1) pair lj/cut, perpetual
      attributes: half, newton on
      pair build: half/bin/atomonly/newton
      stencil: half/bin/3d
      bin: standard
  (2) compute orientorder/atom, occasional
      attributes: full, newton on
      pair build: full/bin/atomonly
      stencil: full/bin/3d
      bin: standard
  (3) compute coord/atom, occasional
      attributes: full, newton on
      pair build: full/bin/atomonly
      stencil: full/bin/3d
      bin: standard
  (4) compute cluster/atom, occasional
      attributes: full, newton on
      pair build: full/bin/atomonly
      stencil: full/bin/3d
      bin: standard
Per MPI rank memory allocation (min/avg/max) = 9.374 | 9.378 | 9.381 Mbytes
Step Temp PotEng Volume v_max_n 
    4000    0.7921025   -6.5524847     4023.809           15 
    5000   0.76619905   -6.6776992    3992.5129           11 
    6000   0.76745094   -6.7060396    3975.0296           23 
    7000   0.76092969   -6.7145049    3980.3876           30 
    8000   0.77585583   -6.6952094    3984.7569           15 
    9000   0.77601103   -6.6829323     3983.055           13 
   10000   0.75728996   -6.7224933    3975.0678           13 
   11000   0.77018085   -6.6890854     3985.263           38 
   12000   0.77913982   -6.6868686    3973.2192           42 
   13000   0.79844759   -6.7145881    3979.5354           48 
   14000   0.76697292   -6.7070884     4002.605           46 
   15000   0.77318298   -6.7182229    3994.5133          109 
   16000   0.78215853   -6.6942622    3978.7362          132 
   17000   0.76023914   -6.7275545    3981.8707           99 
   18000   0.77402443   -6.7112743     3978.728           70 
   19000   0.77484317   -6.7205037    3976.3031           93 
   20000   0.77504511   -6.7132816    3984.6297          110 
   21000   0.75465416   -6.7010561     3987.042           85 
   22000   0.76330221   -6.7134116    3986.6924           43 
   23000   0.75898501   -6.6950675    3985.8769           61 
   24000   0.77942136   -6.6839913    3994.8572           18 
   25000    0.7828431   -6.7249101    3970.6504           24 
   26000   0.77597186   -6.7091984    3978.6439           25 
   27000   0.75501119   -6.6868869    3999.8388           35 
   28000   0.76270943   -6.7144639    3971.6418           20 
   29000    0.7761238    -6.735812    3980.6062           38 
   30000   0.75370327   -6.7096462    3971.9558           63 
   31000   0.76587999   -6.7338588    3987.9455           48 
   32000   0.75683018   -6.7146401     3993.081           67 
   33000   0.77547993   -6.6752793    3990.1114           26 
   34000   0.76719645   -6.7262608    3998.2406           38 
   35000   0.76339587    -6.729194    3972.0893           48 
   36000   0.76473801    -6.741046    3977.6521           80 
   37000   0.78178361   -6.6974834    3963.9124           43 
   38000   0.76240617     -6.70645    3983.7782           31 
   39000   0.76394249   -6.7125831    3968.1514           59 
   40000   0.78179048   -6.6758833    3980.6739           32 
   41000   0.75537121   -6.6996827    3985.0976           56 
   42000   0.78141665    -6.730688    3983.8538           46 
   43000    0.7638688   -6.6846595    3990.5739           43 
   44000   0.76738261   -6.7099734    3982.2467           95 
   45000   0.77474991   -6.6973285    3977.2973           16 
   46000   0.78046057   -6.7142992    3978.6541           63 
   47000    0.7736623   -6.7270119    3984.2018           16 
   48000   0.78264385   -6.7175372    3976.6237           29 
   49000   0.75827065   -6.7172228    3978.6531           29 
   50000   0.77200086   -6.6868282    3993.1109           12 
   51000   0.75989092   -6.7314676    3981.4912           13 
   52000   0.76172198   -6.7135193    3985.3376           19 
   53000   0.76143897   -6.7126264    3978.3392           13 
   54000    0.7791561    -6.709526    3981.1593           14 
   55000   0.76642702   -6.6936493     3989.862           22 
   56000   0.74662159   -6.7050045    3984.9149           16 
   57000   0.79083844   -6.7312995    3981.5372           20 
   58000   0.78295727   -6.7055783    3984.3932           28 
   59000   0.76875826   -6.7090867    3971.5821           19 
   60000   0.76481953   -6.7001215    3987.8368           34 
   61000   0.77228383   -6.7223292    3978.1685           21 
   62000   0.76995082   -6.6815389     3985.999           35 
   63000   0.75815544   -6.7318973    3976.5391           25 
   64000   0.76813154   -6.6980956    3983.8613           16 
   65000   0.77494388   -6.7005281    3989.7058           17 
   66000   0.77535693    -6.698133    3977.1272           23 
   67000   0.75814243   -6.7024954    3978.0541           48 
   68000   0.76761732   -6.6959784    3986.4582           29 
   69000   0.77573098   -6.7261511    3979.6881           19 
   70000   0.76810588   -6.6987598    3975.2399           45 
   71000   0.75958126   -6.7258654    3987.1408           52 
   72000   0.77270664   -6.7121284     3979.529           34 
   73000   0.77954879   -6.7213675    3975.8668           48 
   74000     0.770275   -6.6995489    3984.1404           86 
   75000   0.76672775   -6.6902348       3982.6           52 
   76000   0.76922667   -6.7180165    3966.1018          129 
   77000   0.78675546   -6.6981031    3960.8845           87 
   78000   0.76785685   -6.7382982    3984.2361           94 
   79000   0.76228931   -6.7059481    3976.2542           70 
   80000   0.77938191   -6.6971659    3975.7815           83 
   81000   0.79174972   -6.7468134    3968.3389           35 
   82000   0.75507792   -6.7326679    3982.6043           28 
   83000   0.76120594   -6.7116075     3977.596           26 
   84000   0.75804385   -6.7100983    3962.3652           29 
   85000   0.77121095   -6.7096112    3989.9735           21 
   86000   0.76540165   -6.7091247    3962.6072           29 
   87000    0.7569832   -6.7250054    3973.5975           68 
   88000   0.75296812   -6.6975588    3975.1007           39 
   89000   0.77958789   -6.6725449     3996.299           22 
   90000   0.76674922   -6.7293874    3964.2438           49 
   91000   0.76517409   -6.7277436    3984.1527           29 
   92000   0.77556223   -6.7410541    3988.4065           30 
   93000   0.76194196    -6.702106    3988.2225           11 
   94000   0.80608858   -6.7083564    3986.8468           15 
   95000    0.7668753   -6.6935821    3995.5077           14 
   96000    0.7736413   -6.7089257    3975.9635           28 
   97000    0.7885748   -6.7060341    3987.1582           20 
   98000   0.77616738   -6.7092739     3978.006           34 
   99000   0.77047168   -6.7070407    3975.2089           39 
  100000   0.76895178   -6.7274934    3974.5309           37 
  101000     0.750887   -6.7120243    3983.8917           64 
  102000   0.78006025   -6.7478588    3990.8609           28 
  103000   0.78511436   -6.6810474    3980.0878           56 
  104000   0.75695461   -6.6996512    3983.9492           44 
  105000   0.77586609    -6.700843    3977.4417          126 
  106000   0.78659229   -6.7136425    3980.4051           85 
  107000   0.75595695   -6.7251949    3979.8978          151 
  108000    0.7758696   -6.7324409    3967.2954          143 
  109000   0.75499939   -6.7229797      3972.28          147 
  110000   0.77254326    -6.717418    3974.9463          223 
  111000   0.76595549    -6.703849    3971.4314          260 
  112000   0.76404107    -6.733853    3975.9258          318 
  113000   0.78035524   -6.7231001    3954.9538          303 
  114000   0.78833705     -6.75284    3972.5198          331 
  115000   0.76477705   -6.7430056    3961.0259          175 
  116000   0.75149416   -6.6924417    3989.0011          202 
  117000   0.74515626   -6.7386689    3981.4942          199 
  118000   0.76873508   -6.7126055     3969.846          236 
  119000   0.77598419   -6.7431294    3986.8371          272 
  120000   0.77450814   -6.7157554    3971.9529          182 
  121000   0.76751623   -6.7346788    3959.4654          253 
  122000   0.79228865   -6.7416066    3976.0035          169 
  123000   0.77268514   -6.6995491    3981.1143           96 
  124000   0.76651892   -6.7363299    3981.3001           31 
  125000   0.78808644   -6.6830891    3986.8795           49 
  126000   0.77437614     -6.72654    3981.1947           69 
  127000   0.76635406   -6.7267624    3985.7902           26 
  128000   0.76948702    -6.694012      3977.35           48 
  129000   0.78110639   -6.6906405    3977.6608           38 
  130000     0.767995   -6.7059266    3978.7895           29 
  131000   0.76984825   -6.6960157    3979.4026           36 
  132000   0.76930189   -6.6810881    3981.8666           29 
  133000   0.77723082   -6.7147187    3977.8267           17 
  134000   0.77120005   -6.6968069    3986.5606           51 
  135000   0.77880266   -6.7225255    3983.6148           88 
  136000   0.78349334   -6.7044413    3976.2849          123 
  137000   0.76998474   -6.7183035    3970.5245           39 
  138000   0.77468447     -6.71727    3975.8713           94 
  139000   0.79050155     -6.72863    3974.1752           76 
  140000   0.75519688   -6.7362683    3974.6891           52 
  141000   0.76037135   -6.7433509    3966.7758           71 
  142000   0.75573825   -6.7338032    3984.0145           31 
  143000   0.77473046   -6.7382483    3983.5682          101 
  144000   0.76641403   -6.7198452    3957.3709          108 
  145000   0.77756658   -6.7170842     3976.567           39 
  146000   0.76890609   -6.7117911    3991.6063           48 
  147000   0.78039648   -6.7251281    3976.0185           46 
  148000     0.750602   -6.7400197     3973.878           46 
  149000   0.75092339   -6.7200527    3971.7945           47 
  150000   0.77720873   -6.7317596    3972.8805           33 
  151000   0.76851485   -6.7307431     3975.084           51 
  152000   0.77266289   -6.7209825    3977.4611           52 
  153000   0.77796549   -6.7110558    3981.2697           51 
  154000   0.76153884   -6.7184578    3985.1408           35 
  155000   0.76742762   -6.7128531    3972.1893           15 
  156000   0.76206095   -6.7008819    3980.0728           40 
  157000   0.76114697   -6.7369875    3981.8761           16 
  158000   0.77690874   -6.7171901    3984.9745           19 
  159000    0.7503301    -6.691171    3971.9162           18 
  160000   0.77146044   -6.7219183     3968.169           25 
  161000   0.76296025   -6.7043809     3984.633           28 
  162000   0.79030407   -6.7060227     3982.616           14 
  163000   0.76074852   -6.7155229    3975.7165            7 
  164000   0.77153254   -6.7192035    3982.7633           41 
  165000    0.7577423   -6.7209092    3978.4959           50 
  166000   0.75091085   -6.7240215    3970.1994           16 
  167000    0.7656321   -6.7041652     3976.777           46 
  168000    0.7731898   -6.7071449    3978.3625           23 
  169000   0.77576454   -6.7085047    3997.3992           17 
  170000   0.77698874   -6.7065189    3991.4329           20 
  171000   0.76347877    -6.718902    3970.0453           16 
  172000   0.78406794   -6.6916555    3990.6759           21 
  173000   0.79156693   -6.6880959    3981.3789           13 
  174000   0.78008531   -6.7086912    3992.3729           55 
  175000    0.7666639   -6.7098089    3979.8046           30 
  176000   0.78229825   -6.7113393    3988.2127           30 
  177000   0.74471415   -6.6965244    3993.1619           18 
  178000   0.76776207    -6.706352    3976.4516           35 
  179000   0.75837187   -6.7074457      3977.82           17 
  180000   0.77058976   -6.7158547     3976.884           24 
  181000   0.77223398   -6.7110537    3986.3967           24 
  182000   0.75816296   -6.7235658    3983.6871           44 
  183000   0.76737062   -6.7129672    3961.8612          100 
  184000   0.76638111   -6.7380726    3967.2435           75 
  185000   0.77249058   -6.7131311    3975.9096          134 
  186000   0.76221755   -6.7449349     3965.403          178 
  187000   0.75993193   -6.7345355    3969.3937          218 
  188000   0.79412275   -6.7082796    3971.1758          148 
  189000   0.76017367   -6.7193562    3984.0788          132 
  190000   0.78169541    -6.704499    3979.7169          153 
  191000   0.75958237   -6.7301092    3979.9501          217 
  192000   0.77226642   -6.7599183    3984.6793          238 
  193000    0.7705482   -6.6991744    3986.7342          169 
  194000    0.7685628   -6.7383681    3970.5082          198 
  195000    0.7604021   -6.7339394    3969.7823          246 
  196000   0.76299556   -6.7160754    3976.5079          275 
  197000   0.77571136   -6.7247441     3977.754          321 
  198000   0.76777705   -6.7401875    3969.6843          343 
  199000   0.78374252   -6.7300193    3970.0471          369 
  200000   0.77477307   -6.7162057     3977.523          287 
  201000   0.77111617   -6.7432481    3972.9356          314 
  202000   0.76906933   -6.7673337    3978.8022          431 
  203000    0.7741478   -6.7302453    3974.4986          433 
  204000   0.76721827    -6.756863    3969.9815          470 
  205000   0.76497452   -6.7291886     3966.355          444 
  206000   0.75732145   -6.7331956    3963.8361          459 
  207000   0.75640232   -6.7551245    3952.9371          506 
  208000   0.77251261   -6.7534479    3960.7761          563 
  209000   0.78726259   -6.7873171    3956.5334          578 
  210000   0.76972022   -6.7633244     3961.989          701 
  211000   0.75443206   -6.7612357    3975.6715          610 
  212000   0.76333481   -6.7647188    3961.6018          748 
  213000   0.78930987   -6.7715996    3974.9599          771 
  214000   0.76756126   -6.7610013    3956.6517          845 
  215000   0.77044337   -6.7879886    3958.9393          904 
  216000   0.75720018   -6.7613227     3952.186          891 
  217000    0.7770499   -6.8307975    3939.7191          983 
  218000   0.79517826   -6.7693473    3953.7642         1086 
  219000   0.77554515   -6.8060052     3941.786         1143 
  220000   0.76317798   -6.8576869    3931.8997         1221 
  221000   0.77205614   -6.8416556    3944.2832         1267 
  222000   0.75134271    -6.846819    3939.4102         1252 
  223000   0.77558291    -6.834056    3930.5139         1414 
  224000   0.78693061   -6.8750996    3923.4913         1623 
  225000   0.77661931   -6.8876715    3930.1565         1676 
  226000   0.76527465   -6.9069872    3907.4432         1927 
  227000   0.76972263   -6.9467415    3900.1146         2088 
  228000   0.76555274   -6.9484248    3891.9185         2289 
  229000   0.75919643   -7.0291717     3869.446         2491 
  230000   0.77707189   -7.0553575    3885.9582         2764 
  231000   0.77778823   -7.0812937    3856.3644         2917 
  232000   0.77657215   -7.1794672    3844.8263         3127 
  233000   0.77050701   -7.1710476     3837.812         3305 
  234000   0.76234598   -7.2040345    3824.6437         3470 
  235000   0.76892503   -7.2630029    3804.7377         3575 
  236000   0.77543873   -7.2522449    3797.7989         3623 
  237000    0.7795881   -7.2728348    3813.4361         3703 
  238000   0.77506739   -7.2902129    3802.6444         3736 
  239000    0.7692606   -7.3170243    3793.4607         3802 
  240000   0.75303607   -7.2688076    3791.9925         3768 
  241000   0.76297915   -7.2953612     3790.448         3817 
  242000   0.76618786   -7.2951045    3795.9795         3804 
  243000   0.77813691   -7.2925764    3799.2604         3847 
  244000   0.76978533    -7.274844    3789.7521         3804 
  245000   0.75182961   -7.2997361    3785.9696         3804 
  246000   0.76617801   -7.2942729    3791.9937         3825 
  247000   0.77237826   -7.3077863    3798.0158         3861 
  248000   0.75955407   -7.3253152    3794.2346         3864 
  249000   0.76513211   -7.2909034    3797.0416         3872 
  250000   0.75532284   -7.3184707    3783.7659         3896 
  251000   0.76733068   -7.2957113    3789.9994         3915 
  252000   0.76267325   -7.3070399    3787.4991         3895 
  253000   0.77030853   -7.3118552      3788.74         3877 
  254000   0.77333573   -7.2890497    3780.6739         3869 
  255000   0.77955917    -7.314969    3789.2192         3878 
  256000   0.76158173   -7.3496781    3780.1977         3890 
  257000   0.76331683   -7.3131656    3787.6988         3905 
  258000   0.77151177   -7.3197479    3793.9051         3871 
  259000   0.76757009   -7.3339794    3788.4285         3879 
  260000    0.7976498    -7.294485     3791.239         3886 
  261000    0.7693669   -7.3379933    3791.3447         3907 
  262000   0.75684203   -7.3229023     3787.409         3875 
  263000   0.76622936   -7.3310653     3794.269         3889 
  264000   0.77599993   -7.3139269    3777.8581         3901 
  265000   0.75426214   -7.3236862    3793.3537         3895 
  266000   0.76644209   -7.3249131     3797.642         3896 
  267000   0.76332836   -7.2951949    3792.4818         3893 
  268000   0.78162255   -7.3216092    3793.8728         3922 
  269000   0.76230713   -7.3042443    3789.3786         3874 
  270000   0.78414591   -7.3113523    3786.7585         3902 
  271000   0.75342623   -7.3310341    3777.4273         3890 
  272000   0.79287006   -7.3022241    3777.6243         3892 
  273000   0.78635612   -7.3037041    3787.2276         3877 
  274000   0.76090122   -7.2928495    3781.4516         3895 
  275000   0.75915176   -7.3141735    3790.0557         3886 
  276000   0.76743822   -7.3351134    3791.9556         3893 
  277000   0.75682904   -7.3225275     3785.791         3878 
  278000   0.78541887   -7.2996145    3792.7736         3890 
  279000   0.76719727   -7.3423866    3793.0554         3879 
  280000   0.76743371   -7.3223608    3794.0746         3890 
  281000   0.78461728   -7.3351508    3795.7716         3877 
  282000   0.76705162   -7.3304466    3792.9302         3892 
  283000   0.77605023   -7.3246653     3787.107         3884 
  284000   0.78377413   -7.3172895    3780.2611         3911 
  285000   0.77874583   -7.3082078    3789.8354         3882 
  286000   0.77925579    -7.341694    3790.0225         3896 
  287000   0.77820504   -7.3328995    3790.5257         3885 
  288000    0.7853352   -7.3420398    3794.5046         3875 
  289000   0.76798109   -7.3429865    3783.8619         3903 
  290000    0.7641265   -7.3081993    3776.6133         3899 
  291000   0.77029118   -7.3459546    3779.7952         3927 
  292000   0.77044715   -7.3132336    3793.8744         3880 
  293000   0.76329626   -7.3133337     3786.847         3895 
  294000   0.75765232   -7.3240427    3784.8262         3896 
  295000   0.75630929   -7.3128342    3792.1855         3881 
  296000   0.76847295   -7.3204209    3797.9794         3901 
  297000   0.77089864   -7.3320366    3773.9455         3881 
  298000   0.77582125    -7.335019    3788.5813         3895 
  299000   0.78954115   -7.3122574    3794.4544         3904 
  300000   0.77136739   -7.3335192    3787.5672         3888 
  301000   0.76782782   -7.3075712    3789.6132         3893 
  302000   0.77401154   -7.3234514    3769.5842         3907 
  303000   0.75542302   -7.3109149     3790.097         3922 
  304000   0.77128757   -7.3338925    3780.9776         3894 
  305000   0.76763131   -7.2960538    3799.4979         3901 
  306000   0.75892585   -7.3411867    3789.4285         3908 
  307000   0.77557174    -7.344856    3794.2093         3921 
  308000   0.76316954   -7.2886412    3787.5221         3887 
  309000    0.7725001   -7.3420267    3784.5889         3891 
  310000   0.77503006     -7.31159    3799.3332         3916 
  311000   0.77687362   -7.3310882    3776.4196         3894 
  312000   0.77326719   -7.3256481    3798.7768         3872 
  313000   0.76995466   -7.3381075     3782.071         3889 
  314000   0.76452422   -7.3359286    3782.9062         3926 
  315000   0.76963043   -7.3412967    3775.9466         3894 
  316000   0.78000425   -7.3336957    3783.8949         3902 
  317000   0.76762745   -7.3270267    3792.2044         3922 
  318000   0.77536494    -7.322535    3788.1007         3901 
  319000   0.75848046   -7.3213558    3787.7316         3914 
  320000   0.75982448   -7.3014596    3789.9566         3896 
  321000   0.76916439   -7.3403915    3795.0696         3904 
  322000   0.77924552   -7.3114729    3789.4259         3887 
  323000   0.77473479   -7.3363992    3785.4777         3901 
  324000   0.76368097   -7.3390258    3783.7274         3907 
  325000    0.7796758   -7.2972196    3788.2396         3896 
  326000   0.77784435   -7.3464015    3778.4152         3928 
  327000   0.76102012   -7.3261119    3786.6356         3889 
  328000   0.76167419   -7.3328391    3780.6774         3896 
  329000   0.79080691   -7.3147067    3790.7467         3902 
  330000   0.78970456   -7.3690739    3782.8074         3905 
  331000   0.76349725   -7.3280316    3775.0271         3897 
  332000   0.76456918   -7.3028362    3784.6439         3903 
  333000   0.77448011   -7.3302948    3795.8431         3909 
  334000   0.77798363   -7.3019673    3781.6254         3898 
  335000   0.78412126    -7.340951    3794.9849         3892 
  336000   0.76728023   -7.3361751    3772.6116         3921 
  337000   0.77201389   -7.3220275    3791.1351         3882 
  338000   0.76473008   -7.3604906    3784.1084         3909 
  339000    0.7700761   -7.3417954    3784.1978         3901 
  340000    0.7698912   -7.3380026    3781.6647         3901 
  341000   0.77565736   -7.3251286    3787.1052         3879 
  342000   0.78744114   -7.3133748    3778.8601         3887 
  343000   0.78308054   -7.3508615    3786.5999         3861 
  344000   0.77509667   -7.3230964    3782.0022         3894 
  345000   0.77993361   -7.3083504    3792.5031         3877 
  346000   0.76103509   -7.3469671    3781.7469         3888 
  347000   0.76090735   -7.3300675    3785.3601         3894 
  348000   0.75928663   -7.3279435    3776.7005         3902 
  349000   0.77717828   -7.3399942    3780.2478         3903 
  350000   0.76649883   -7.3513722    3779.1853         3901 
  351000   0.78663633   -7.3382006    3790.4883         3895 
  352000   0.79035829   -7.3141549    3790.5913         3905 
  353000   0.78615166   -7.3320512    3783.4269         3883 
  354000    0.7687979   -7.3325549    3782.3636         3888 
  355000   0.76806459   -7.3277327     3792.559         3892 
  356000   0.76320327   -7.3036019    3775.7523         3909 
  357000   0.75986317   -7.3148366    3779.3088         3910 
  358000   0.77605788   -7.3163938    3772.1068         3892 
  359000   0.78810277   -7.3423339    3786.0075         3890 
  360000   0.76983297   -7.3346333      3780.82         3908 
  361000   0.77340682   -7.3423501    3789.6956         3890 
  362000   0.76837183   -7.3447391    3777.4195         3923 
  363000   0.78137713   -7.3289253    3791.3566         3928 
  364000   0.78345498   -7.3342896    3782.3266         3917 
  365000   0.75753037    -7.344835    3792.4627         3896 
  366000   0.76144686   -7.3222752    3795.2596         3886 
  367000   0.77355878   -7.3217233    3778.1827         3891 
  368000   0.77887547   -7.3482994    3788.3832         3916 
  369000   0.76212207   -7.3202513     3779.048         3922 
  370000   0.76966778   -7.3242385    3779.1232         3907 
  371000   0.77697191   -7.3151912    3782.7376         3900 
  372000   0.77572011   -7.3224661    3783.2417         3902 
  373000   0.76903558   -7.3194285    3781.7566         3883 
  374000   0.77548778   -7.3403678    3788.0059         3907 
  375000   0.77067538    -7.368308    3787.2392         3899 
  376000   0.79577592   -7.3509005    3774.0241         3912 
  377000   0.76980976   -7.3467884    3783.3603         3895 
  378000   0.76107525    -7.346809    3776.9369         3901 
  379000    0.7808238   -7.3244279    3776.6805         3908 
  380000   0.75447186   -7.3581239    3773.0317         3898 
  381000   0.77363749   -7.3436072    3774.6155         3928 
  382000   0.78717244   -7.3494794       3792.9         3881 
  383000   0.76199651   -7.3180152    3783.4037         3905 
  384000   0.76900881   -7.3456956    3776.0778         3903 
  385000   0.75976396   -7.3473517    3770.8246         3892 
  386000   0.78448784   -7.3423759    3772.1264         3915 
  387000   0.76687593   -7.3261465    3789.6641         3921 
  388000   0.76102251   -7.3363183    3788.2428         3918 
  389000   0.76857974    -7.331301    3780.1354         3890 
  390000   0.78618099   -7.3336642    3789.9604         3909 
  391000   0.77931895    -7.333283    3774.0025         3923 
  392000   0.76922938    -7.360801    3776.9927         3906 
  393000   0.76831524   -7.3281358     3772.301         3921 
  394000   0.78970481   -7.3323746    3789.8689         3903 
  395000   0.77227208   -7.3338865    3769.3753         3907 
  396000   0.76989744   -7.3260389    3781.1896         3909 
  397000    0.7745977   -7.3444112    3775.0054         3919 
  398000   0.77150367   -7.3186029    3789.6519         3924 
  399000    0.7603608   -7.3336602    3769.6456         3897 
  400000   0.77818373   -7.3383308    3785.1845         3893 
  401000   0.76489006   -7.3424956    3784.5625         3936 
  402000   0.78575159   -7.3250868    3792.0905         3902 
  403000   0.76919862   -7.3358929    3782.1642         3880 
  404000   0.76254986   -7.3300539    3784.1181         3884 
  405000   0.78621321   -7.3623347    3778.2972         3901 
  406000   0.76488614   -7.3255869     3784.832         3903 
  407000   0.77872457   -7.3230163    3785.4256         3911 
  408000   0.77133351   -7.3335573    3770.4262         3918 
  409000   0.75419445    -7.326859    3787.7528         3903 
  410000   0.75632667   -7.3344729    3777.0027         3888 
  411000   0.76888626   -7.3215053    3778.9214         3888 
  412000   0.77394003    -7.314474    3776.9731         3899 
  413000   0.77290532   -7.3364262    3782.5353         3920 
  414000   0.76137066   -7.3430632    3790.1879         3895 
  415000   0.77283355   -7.3307939    3792.2298         3927 
  416000   0.75693298   -7.3373291    3774.8991         3892 
  417000   0.76439779   -7.3254551    3774.8086         3905 
  418000   0.75766782   -7.3121254      3775.53         3901 
  419000   0.77044949    -7.331406     3790.547         3904 
  420000    0.7858968   -7.3277941    3788.4342         3910 
  421000   0.77667947   -7.3293327    3770.3544         3900 
  422000   0.76727374   -7.3610699    3779.7979         3896 
  423000   0.75825217   -7.3399947    3775.9758         3908 
  424000    0.7669269   -7.3295248    3790.3187         3898 
  425000   0.78202634   -7.3244376    3782.0209         3899 
  426000   0.78022101   -7.3389921    3785.7471         3883 
  427000   0.77202979   -7.3288877    3789.0726         3899 
  428000   0.76442455   -7.3291777     3781.981         3910 
  429000   0.77440637   -7.3322099    3783.8058         3896 
  430000   0.76263266   -7.2776446    3782.7525         3894 
  431000   0.76911058   -7.3398318    3775.7252         3900 
  432000   0.75295671   -7.3312271     3776.997         3895 
  433000   0.77065869   -7.3415047    3791.2307         3888 
  434000   0.76969862   -7.3392875    3779.8709         3900 
  435000   0.77631005   -7.3319105    3771.4916         3914 
  436000   0.76811549   -7.3424258     3782.632         3906 
  437000   0.76117853   -7.3524509    3785.4158         3909 
  438000   0.76588271   -7.3387032    3788.3247         3893 
  439000   0.77125924   -7.3316321    3780.8824         3899 
  440000   0.76773278   -7.3404616    3784.8213         3893 
  441000   0.75722416   -7.3379002    3786.4891         3884 
  442000   0.76182779   -7.3119269    3772.1863         3898 
  443000   0.77669799   -7.3285432    3791.4329         3879 
  444000   0.77040342   -7.3238125    3791.3658         3868 
  445000   0.77430089   -7.3135744    3772.4408         3882 
  446000   0.76761462   -7.3496689    3784.0411         3899 
  447000   0.79252431   -7.3098824    3788.1671         3898 
  448000   0.78069681   -7.3558909    3781.3943         3901 
  449000    0.7771102   -7.3098103    3777.1971         3907 
  450000   0.76454584   -7.3201144     3792.574         3896 
  451000   0.77009998   -7.3252314    3782.1908         3899 
  452000   0.75288315   -7.3310757    3773.4817         3922 
  453000   0.77253523   -7.3407873    3788.3948         3893 
  454000   0.77299978   -7.3338548    3790.3475         3910 
  455000   0.77618072   -7.3465761    3791.3568         3878 
  456000   0.77766945   -7.3457363    3780.3137         3907 
  457000   0.77184195    -7.329427    3792.2535         3890 
  458000   0.75828516    -7.325275    3787.2971         3908 
  459000   0.76725811   -7.3338402    3774.6035         3882 
  460000   0.76618561   -7.3461308    3783.4957         3893 
  461000   0.76175198   -7.3484767    3780.4191         3903 
  462000   0.76008783   -7.3369974     3791.046         3876 
  463000   0.77996304   -7.3468134    3788.0138         3896 
  464000   0.77040256   -7.3353828    3785.9494         3906 
  465000   0.76738641   -7.3481194    3784.2075         3904 
  466000   0.76484084    -7.313676    3784.9796         3901 
  467000   0.77952157   -7.3372118    3785.8975         3895 
  468000   0.77124726   -7.3306435    3781.9172         3896 
  469000   0.77676466   -7.3418878    3780.4864         3922 
  470000   0.76840705   -7.3512531    3780.3023         3898 
  471000   0.76622418   -7.3407313    3787.8019         3916 
  472000   0.76609617   -7.3394357    3783.0604         3909 
  473000   0.76946075   -7.3279994    3780.6567         3901 
  474000   0.76782801   -7.3246108    3773.8941         3902 
  475000   0.77729392   -7.3180773    3783.4255         3906 
  476000   0.76939205   -7.3234698    3784.0325         3889 
  477000   0.77092009   -7.3095453    3779.5635         3899 
  478000   0.75439811   -7.3361534    3782.8875         3901 
  479000   0.76057809   -7.3372532     3786.039         3859 
  480000   0.77186951   -7.3439039    3770.4523         3902 
  481000    0.7512358   -7.3611298    3779.5484         3893 
  482000   0.76592593   -7.3289203    3775.4137         3900 
  483000   0.77294981   -7.3040425    3780.1503         3882 
  484000   0.76806182    -7.342441     3789.217         3862 
  485000   0.76265603   -7.3347709    3787.7694         3893 
  486000   0.78666523   -7.3329522    3793.9455         3879 
  487000   0.77302914   -7.3544449    3767.6255         3901 
  488000   0.75574706   -7.3286899    3779.3035         3894 
  489000    0.7710119   -7.3311081    3784.8103         3888 
  490000   0.78406108   -7.3218955    3796.9842         3872 
  491000   0.76528835   -7.3384096    3786.6024         3906 
  492000   0.78877649   -7.3406222    3795.2721         3887 
  493000    0.7712264   -7.3363011    3787.4407         3892 
  494000   0.76522535   -7.3384065    3774.7012         3911 
  495000   0.77873821    -7.327261    3778.1055         3868 
  496000   0.75005679   -7.3448928     3788.608         3865 
  497000    0.7561307   -7.3193889    3777.5962         3909 
  498000   0.76934959   -7.3243999    3789.9071         3883 
  499000   0.74976534   -7.3476027    3790.6868         3884 
  500000   0.77765739    -7.338118    3773.5486         3889 
  501000   0.76979338   -7.3136102    3779.5327         3904 
  502000    0.7612224   -7.3458044    3786.9552         3896 
  503000   0.78777594   -7.3192856    3773.4477         3889 
  504000   0.77052301    -7.359424    3773.9129         3896 
  505000   0.77147017   -7.3314154    3776.1724         3898 
  506000   0.76466641   -7.3268909    3767.0376         3880 
  507000   0.78008035   -7.3282086    3784.5475         3914 
  508000    0.7563266   -7.3291444     3778.709         3895 
  509000   0.77694102   -7.3306929    3772.9257         3885 
  510000   0.78471509   -7.3615081    3771.6998         3911 
  511000   0.78173072   -7.3513186    3774.9277         3904 
  512000   0.76173964   -7.3337474    3792.1305         3915 
  513000   0.76882114   -7.3251692     3786.983         3896 
  514000   0.77161834   -7.3502457    3788.0664         3899 
  515000   0.75490052   -7.3303837    3788.7845         3894 
  516000   0.77486917   -7.3146498    3783.9756         3888 
  517000   0.76992795   -7.3450374    3784.4194         3894 
  518000   0.77324073   -7.3342525    3771.7115         3897 
  519000   0.76285798   -7.3237109    3793.1051         3899 
  520000   0.76537272   -7.3231253    3781.8443         3889 
  521000   0.77001749   -7.3341602    3780.5041         3875 
  522000   0.78006374   -7.3524346    3766.4682         3906 
  523000    0.7793036   -7.3192371    3780.1539         3901 
  524000   0.77310087   -7.3395228     3781.124         3894 
  525000   0.76993929   -7.3499691    3786.2649         3883 
  526000   0.76588014   -7.3213271    3782.8997         3895 
  527000   0.76416935   -7.3300437    3768.0159         3883 
  528000   0.75863734   -7.3367576    3777.3089         3893 
  529000   0.76737976   -7.3283443    3781.0919         3896 
  530000   0.77541191   -7.3466823     3778.303         3908 
  531000   0.76210021   -7.3424903    3780.6805         3914 
  532000   0.77125276   -7.3126742    3778.1568         3888 
  533000   0.76441314   -7.3591056    3788.4704         3908 
  534000   0.76121993   -7.3341034    3795.4312         3897 
  535000   0.78241707   -7.3395849    3785.8106         3911 
  536000   0.77136382   -7.3083982    3781.0345         3908 
  537000   0.76787789   -7.3184685    3779.2011         3895 
  538000   0.76038365   -7.2988194    3786.1073         3887 
  539000    0.7845029   -7.3088115    3780.8291         3865 
  540000    0.7670797   -7.3229525    3776.7879         3847 
  541000   0.78101911   -7.3367258    3776.6105         3891 
  542000   0.77375274   -7.3172588    3792.3944         3919 
  543000   0.76725455   -7.3385356     3785.385         3893 
  544000   0.77120335   -7.3235573    3796.1329         3890 
  545000    0.7682397   -7.3343484    3792.9052         3896 
  546000   0.76593103   -7.3200368    3780.9265         3880 
  547000   0.78104397   -7.3265026    3786.8448         3886 
  548000   0.77931141   -7.3471412    3786.3151         3891 
  549000   0.77745318     -7.33508    3789.2001         3896 
  550000   0.76826499   -7.3456904    3787.0932         3902 
  551000   0.76385792   -7.2962685     3781.704         3869 
  552000   0.76575979   -7.3386769     3770.889         3889 
  553000   0.75270521   -7.3264137    3775.5926         3921 
  554000    0.7648644   -7.3280989    3791.5103         3877 
  555000    0.7767396   -7.3142072    3789.7621         3898 
  556000   0.76085405   -7.3301902    3785.9448         3894 
  557000   0.76295504   -7.3320569    3773.9841         3908 
  558000   0.77251037   -7.3171703    3779.6183         3891 
  559000    0.7649791   -7.3215928    3774.7729         3902 
  560000     0.770059   -7.3451133    3778.5465         3892 
  561000   0.78174374   -7.3356702    3783.7332         3893 
  562000   0.75694316   -7.3593807    3774.4413         3910 
  563000   0.77153521   -7.3229684    3782.5055         3897 
  564000    0.7793258   -7.3381657    3775.9785         3886 
  565000   0.78333962   -7.3372012    3781.8866         3888 
  566000   0.76278914   -7.3107444    3779.8975         3884 
  567000   0.77675776   -7.3362176    3775.1331         3899 
  568000   0.77832106   -7.3316086    3796.4222         3893 
  569000   0.75852134   -7.3399379    3786.3819         3877 
  570000   0.78447052   -7.3488896    3783.0802         3891 
  571000    0.7848207   -7.3485084    3783.5099         3900 
  572000   0.77139295    -7.337636    3779.8612         3888 
  573000   0.78933382   -7.3227461    3780.1387         3901 
  574000   0.78069859   -7.3383622    3784.5675         3892 
  575000   0.76477625   -7.3410188    3795.4356         3884 
  576000   0.75562407   -7.3349111    3783.3473         3889 
  577000   0.77445257   -7.3294313    3780.3138         3886 
  578000   0.77747056   -7.3357243    3776.4469         3885 
  579000   0.77060572    -7.313011    3787.7612         3916 
  580000   0.78129572   -7.3351673    3791.2887         3913 
  581000   0.77140114   -7.3389048    3795.6143         3899 
  582000   0.75494738   -7.3397114    3786.3072         3909 
  583000   0.76615332   -7.3280981    3779.0794         3915 
  584000   0.76650813   -7.3172899    3775.2972         3916 
  585000   0.77667538    -7.342829    3774.5415         3892 
  586000   0.76537475   -7.3229751     3789.694         3910 
  587000   0.76565181   -7.3151088    3776.6995         3899 
  588000   0.76521857   -7.3074459    3787.8462         3877 
  589000   0.76236059   -7.3457936    3791.5368         3888 
  590000   0.77622039   -7.3103362    3781.6797         3912 
  591000   0.76809028   -7.3325622     3775.896         3886 
  592000    0.7884148   -7.3435212    3784.6775         3892 
  593000   0.76706098   -7.3102001    3783.0997         3891 
  594000   0.77382028    -7.346697    3779.9614         3907 
  595000   0.78033788   -7.3322414    3788.9729         3916 
  596000   0.76709227   -7.3408677    3775.4139         3901 
  597000   0.76875562   -7.3381169     3790.659         3908 
  598000   0.78071648   -7.3358295    3779.0902         3880 
  599000   0.77620235   -7.3512672    3786.2992         3912 
  600000   0.76170369   -7.3329735    3781.1416         3907 
  601000   0.76504803   -7.3448739    3787.6481         3916 
  602000   0.78937389   -7.3368582    3784.5126         3898 
  603000   0.77333508   -7.3259366    3781.1778         3912 
  604000   0.77343353   -7.3088123    3781.7969         3899 
  605000   0.77209866    -7.348474    3785.5491         3902 
  606000   0.76585879    -7.351928     3778.247         3914 
  607000   0.77845364   -7.3425943    3773.4927         3894 
  608000   0.76997135   -7.3204034    3784.3872         3922 
  609000    0.7610918   -7.3649956    3784.7258         3905 
  610000   0.77254406    -7.330223    3784.0034         3919 
  611000   0.78258788   -7.3397548    3781.4943         3901 
  612000   0.77453566   -7.3042577    3789.4029         3887 
  613000   0.77135982   -7.3565341    3774.4512         3918 
  614000   0.77679841    -7.336075    3774.5322         3918 
  615000   0.76638836   -7.3157319    3777.9977         3903 
  616000   0.77606203   -7.3112712    3779.3922         3921 
  617000   0.78236057   -7.3146686    3769.8432         3912 
  618000   0.76997555   -7.3365773    3795.1109         3922 
  619000   0.76774766   -7.3272364    3785.4396         3909 
  620000   0.77993026   -7.3593786    3776.7393         3887 
  621000   0.76184461   -7.3598073    3771.1666         3919 
  622000   0.75301882   -7.3460072    3767.0759         3917 
  623000    0.7818552   -7.3558367    3782.6753         3919 
  624000   0.77523558   -7.3063754    3788.2505         3902 
  625000   0.75635533   -7.3397252    3786.0603         3902 
  626000   0.76897002   -7.3568986    3772.9193         3915 
  627000   0.75641918   -7.3133725    3790.6801         3910 
  628000   0.77959858   -7.3388915    3786.0003         3908 
  629000   0.78014768   -7.3297501    3792.5989         3870 
  630000   0.76204311   -7.3322281    3778.2275         3906 
  631000   0.77434275   -7.3504444    3775.2076         3916 
  632000   0.76642537   -7.3162485    3784.3655         3896 
  633000   0.74725075   -7.3553454      3776.13         3898 
  634000   0.76184198   -7.3225907    3792.5714         3897 
  635000    0.7776775   -7.3359623    3785.1869         3910 
  636000   0.76818218   -7.3594701    3790.8363         3906 
  637000   0.77131836   -7.3190895    3781.6786         3925 
  638000   0.77580581   -7.3218551    3782.0256         3907 
  639000   0.76498912   -7.3473073     3782.912         3898 
  640000   0.77898393   -7.3132156    3773.7668         3901 
  641000   0.76661044   -7.3334943     3781.942         3898 
  642000   0.77075447    -7.333335    3780.3151         3910 
  643000   0.77176252   -7.3158236    3772.2916         3908 
  644000   0.76637607   -7.3403581    3788.2685         3907 
  645000   0.76029983   -7.3295662    3764.2071         3923 
  646000    0.7815926   -7.3495554    3794.2314         3912 
  647000    0.7456294   -7.3148126    3786.8976         3894 
  648000   0.78280621   -7.3098551     3776.905         3927 
  649000   0.77203175   -7.3442826    3790.3161         3899 
  650000   0.75140324   -7.3333998    3785.9567         3923 
  651000   0.76115004    -7.315534    3780.2037         3918 
  652000   0.76690431    -7.332711    3784.8698         3910 
  653000   0.78135971   -7.3545851    3773.1971         3898 
  654000   0.76083786   -7.3272839    3785.2482         3919 
  655000   0.77869812   -7.3173953    3778.8519         3902 
  656000   0.79778647   -7.3594744     3792.232         3909 
  657000   0.76465764   -7.3281955    3780.4352         3921 
  658000   0.78376734   -7.3504677    3778.6053         3913 
  659000   0.77282551   -7.3368667    3784.1259         3931 
  660000   0.76809245   -7.3363743    3781.3281         3898 
  661000   0.76075368   -7.3236638    3786.9554         3903 
  662000   0.76597656    -7.324112    3782.1578         3913 
  663000   0.76870541   -7.3371103    3776.5288         3898 
  664000   0.75744961   -7.3352848    3780.5883         3903 
  665000   0.76741885   -7.3245307    3784.0586         3892 
  666000   0.77888963   -7.3242154    3783.5766         3908 
  667000    0.7556391   -7.3016445    3791.7294         3929 
  668000   0.77529457   -7.3533752    3787.6534         3908 
  669000   0.76326431   -7.3383221    3775.1934         3905 
  670000   0.75936047   -7.3186246    3789.1666         3905 
  671000   0.77027934   -7.3253942     3796.138         3909 
  672000   0.75378722   -7.3282713     3785.217         3913 
  673000   0.77574731   -7.3403264     3785.872         3913 
  674000    0.7647689   -7.3197636    3785.8482         3908 
  675000   0.75967826   -7.3189884    3786.1096         3893 
  676000   0.77147512   -7.3145765    3773.7138         3891 
  677000   0.77142533   -7.3652486    3782.3703         3912 
  678000   0.77293056   -7.3352943    3792.2278         3910 
  679000   0.77249042   -7.3285084    3786.0868         3899 
  680000   0.75836546   -7.3271278    3776.7311         3917 
  681000   0.76306488   -7.3498678    3790.9529         3922 
  682000   0.77807635   -7.3161298    3779.3688         3886 
  683000   0.77797798   -7.3217686    3779.0552         3937 
  684000   0.75973086   -7.3376686    3783.0529         3912 
  685000    0.7685127   -7.3324459    3784.2357         3912 
  686000   0.77265145   -7.3177637    3783.9208         3898 
  687000    0.7683585   -7.3003321    3790.7291         3917 
  688000   0.77748082   -7.3407656    3773.7311         3913 
  689000   0.77635984   -7.3278423    3777.7083         3890 
  690000   0.77368281   -7.3156128    3776.3436         3921 
  691000   0.73812608   -7.3372639    3784.2903         3912 
  692000   0.76092575   -7.3213864    3780.6255         3912 
  693000   0.77645373   -7.3231825    3788.6313         3891 
  694000   0.77590944   -7.3428491    3784.1058         3922 
  695000   0.75599178   -7.3390094    3776.0361         3910 
  696000   0.78017525   -7.3581206    3778.6429         3893 
  697000   0.75794321   -7.3300278    3790.9738         3887 
  698000   0.76667285   -7.3296359    3773.3033         3901 
  699000   0.75308298   -7.3642436    3785.7434         3914 
  700000   0.74917109   -7.3285623    3778.9467         3904 
  701000   0.77430193   -7.3381257    3791.8274         3902 
  702000   0.75301303      -7.3219    3778.6697         3905 
  703000   0.76039876   -7.3449991    3784.8088         3888 
  704000   0.76471565   -7.3342934    3785.1283         3912 
  705000   0.75823939   -7.3319029    3784.9166         3900 
  706000   0.75856386   -7.3112714    3776.2354         3893 
  707000   0.77088224   -7.3108984     3783.166         3909 
  708000   0.77704506    -7.328056    3788.6485         3916 
  709000    0.7678791   -7.3286488    3770.7235         3915 
  710000   0.76713237    -7.321009     3780.126         3898 
  711000   0.75674112   -7.3345486    3785.3409         3890 
  712000   0.75366616   -7.3279007    3781.4098         3897 
  713000   0.76263944   -7.3238807    3801.5712         3890 
  714000   0.77138261   -7.3749119    3785.1793         3921 
  715000   0.75500865   -7.3259319    3786.9887         3886 
  716000   0.77076805   -7.3268985    3772.9078         3905 
  717000   0.77149999   -7.3068243    3780.1688         3910 
  718000   0.77792264   -7.3195981    3785.5566         3893 
  719000   0.77164781   -7.2893501    3779.1563         3887 
  720000   0.77137832   -7.3198314    3785.0277         3882 
  721000   0.76412156   -7.3498451    3783.5434         3899 
  722000   0.76348848   -7.3188746    3786.7982         3909 
  723000   0.78010441   -7.3210509    3777.2514         3889 
  724000   0.77231625   -7.3341682    3795.3744         3898 
  725000   0.78194779   -7.3273073    3791.7309         3906 
  726000   0.76982092   -7.3155022    3780.8556         3899 
  727000   0.77809811   -7.3409725    3778.7301         3908 
  728000   0.75949563   -7.3234679    3793.0504         3880 
  729000   0.75168547    -7.335928    3778.6812         3916 
  730000   0.76593711   -7.3152747    3785.6058         3903 
  731000   0.75743858   -7.3411465    3787.3649         3896 
  732000   0.77595952   -7.3393305    3776.4283         3891 
  733000   0.78116526   -7.3238761    3790.3353         3901 
  734000   0.74962273   -7.3339375     3779.149         3905 
  735000    0.7898447   -7.3227096    3783.0059         3883 
  736000   0.77170456   -7.3404788    3780.4502         3900 
  737000    0.7788995   -7.3285315    3798.0907         3894 
  738000   0.76030096   -7.3572684    3782.9776         3895 
  739000   0.77376434   -7.3165301    3788.0164         3879 
  740000   0.76557701   -7.3253864    3771.3217         3915 
  741000   0.78195156   -7.3229611    3777.4995         3894 
  742000    0.7682276   -7.3193701    3783.3788         3909 
  743000   0.77841904   -7.3464765    3778.0457         3899 
  744000     0.776448   -7.3167533     3777.614         3899 
  745000   0.78503338   -7.3321035    3779.4719         3897 
  746000   0.75314995   -7.3300426    3787.3454         3905 
  747000   0.78450573   -7.3398285    3794.3211         3890 
  748000   0.77503036    -7.359064    3776.7131         3905 
  749000   0.77690634   -7.3465495    3791.6943         3880 
  750000   0.77773199   -7.3439196     3770.245         3907 
  751000   0.75572738   -7.3413332     3780.621         3873 
  752000   0.74622154   -7.3183521    3783.9272         3912 
  753000   0.75794753   -7.3289234    3773.6427         3891 
  754000   0.77791507    -7.292202    3804.9143         3890 
  755000   0.75760147   -7.3349935    3782.6434         3887 
  756000   0.78166802   -7.3368766    3787.6674         3885 
  757000   0.76470688   -7.3450057    3784.1821         3879 
  758000   0.78946784    -7.338177    3776.1638         3899 
  759000   0.76981295   -7.3248077    3792.4555         3879 
  760000   0.77459837   -7.3290338    3787.2171         3886 
  761000   0.77383701   -7.3134711    3780.0963         3906 
  762000    0.7789402   -7.3424271    3781.7325         3911 
  763000   0.78450413   -7.3279118    3790.3966         3884 
  764000   0.77363809   -7.3465214    3777.4983         3887 
  765000   0.75782952   -7.3006518    3780.5326         3894 
  766000   0.77265496   -7.3074051    3789.6205         3913 
  767000   0.77054549   -7.3673285    3781.8565         3893 
  768000   0.75353561   -7.3260609    3791.7751         3898 
  769000   0.77005527   -7.3327486     3783.654         3898 
  770000   0.77286085   -7.3435003    3789.0913         3908 
  771000   0.76784559   -7.3373845    3777.4424         3907 
  772000   0.77725309   -7.3038645     3780.576         3908 
  773000   0.77479842   -7.3068227    3783.7145         3916 
  774000   0.78210284   -7.3572111     3774.677         3899 
  775000   0.78084685   -7.3509011    3773.2186         3914 
  776000   0.77036493   -7.3299124    3784.4035         3906 
  777000   0.75626585   -7.3364679      3791.64         3900 
  778000   0.78309238   -7.3353327    3798.4926         3891 
  779000   0.76775834    -7.323911    3791.9149         3876 
  780000   0.76063244   -7.2974869     3787.525         3885 
  781000   0.77002492   -7.3253661    3769.6632         3898 
  782000   0.76856989   -7.3389812    3796.3897         3898 
  783000   0.76545833   -7.3307486    3785.4239         3905 
  784000   0.75055865   -7.3355193    3783.1561         3915 
  785000   0.75901008   -7.3384102    3785.7411         3912 
  786000   0.76638921     -7.33073    3759.7856         3888 
  787000   0.75860173   -7.3361217    3788.8561         3922 
  788000   0.77102345   -7.3418408    3791.2857         3896 
  789000   0.75874658    -7.323371    3790.1035         3897 
  790000   0.77663589   -7.3516183    3786.4411         3904 
  791000   0.77583188   -7.3325006    3787.5443         3898 
  792000   0.77120435   -7.3089255    3782.7711         3880 
  793000   0.77730913   -7.3257213    3789.5564         3922 
  794000   0.77397208   -7.3016361    3779.5237         3913 
  795000   0.76824467   -7.3446379    3786.5275         3904 
  796000   0.78813824   -7.3258995    3783.7558         3918 
  797000   0.77322674   -7.3299843    3776.6337         3912 
  798000   0.76077469    -7.352601    3781.4987         3913 
  799000   0.77697108   -7.3049314    3778.2934         3910 
  800000   0.75837272   -7.3349422    3778.1004         3883 
  801000   0.77346851   -7.3245395    3790.8247         3889 
  802000   0.78460878   -7.3455385    3789.4777         3909 
  803000   0.76976522   -7.3055111    3795.1941         3915 
  804000   0.77232624    -7.322221    3781.6219         3905 
  805000   0.77567135   -7.3027973    3788.1143         3901 
  806000   0.77459728   -7.3536559    3788.0632         3913 
  807000   0.77087857   -7.3313834    3773.8156         3881 
  808000   0.79795163   -7.3271857    3792.2856         3915 
  809000   0.77426597   -7.3178533    3782.7521         3890 
  810000   0.77032435   -7.3524858    3777.7796         3932 
  811000    0.7706917   -7.3306136    3778.2624         3903 
  812000    0.7551182   -7.3334155    3792.7448         3929 
  813000   0.77211397   -7.3352699    3782.6728         3913 
  814000   0.75680748   -7.3494498    3780.0213         3924 
  815000   0.76911171   -7.3265057    3774.6553         3890 
  816000   0.77255118   -7.3312702    3771.3703         3897 
  817000   0.77353994   -7.3445102    3789.7691         3886 
  818000   0.77975701   -7.3362216    3782.7241         3898 
  819000   0.75498579   -7.2877432    3782.6599         3910 
  820000   0.76900517   -7.3046571    3790.1111         3898 
  821000   0.77581775    -7.338023    3779.7355         3897 
  822000   0.76051329   -7.3520258    3778.5097         3908 
  823000   0.77031514   -7.3308801    3796.9819         3884 
  824000   0.76338162   -7.3449988    3782.0553         3917 
  825000   0.76881774    -7.327788      3785.07         3870 
  826000   0.77369625   -7.3275198     3789.677         3906 
  827000   0.76647043   -7.3420187     3782.503         3875 
  828000   0.78118234   -7.3181182    3778.7443         3888 
  829000   0.77203039   -7.3141472    3801.7611         3915 
  830000   0.76727001   -7.3304888    3790.8881         3880 
  831000   0.77005153   -7.3298976    3783.3663         3907 
  832000   0.76952988   -7.3366647    3778.1294         3904 
  833000   0.78021685   -7.3582536    3794.7343         3896 
  834000   0.76002101   -7.3339408    3793.2459         3916 
  835000   0.76666535   -7.3467908    3772.3163         3914 
  836000    0.7641149   -7.3532836    3775.9332         3898 
  837000   0.78551261   -7.3364997    3782.2981         3898 
  838000   0.76350644   -7.3254055    3792.8688         3910 
  839000    0.7820808   -7.3461093    3776.5827         3918 
  840000   0.75935321   -7.3404448    3792.0275         3890 
  841000   0.74722391   -7.3399781    3784.3715         3908 
  842000   0.77092602   -7.3267987    3791.7199         3885 
  843000   0.77657859    -7.338365    3787.0607         3886 
  844000   0.76089227   -7.3382033    3785.4097         3908 
  845000   0.75213045   -7.3205289    3776.4522         3894 
  846000   0.74955591   -7.3524956    3779.2253         3913 
  847000   0.77129887   -7.3019363    3794.6026         3892 
  848000   0.77922137   -7.3180543    3783.3365         3883 
  849000   0.77242046   -7.3298048    3778.3717         3886 
  850000    0.7766801   -7.3458231    3796.6144         3905 
  851000   0.75519423   -7.3461498    3795.0246         3919 
  852000   0.77098924   -7.3107213     3782.123         3915 
  853000   0.77398207    -7.339796    3777.7988         3890 
  854000   0.77374946   -7.3339696    3783.8652         3891 
  855000   0.75949667   -7.3269797    3779.3252         3902 
  856000   0.76669892   -7.3416402    3787.5285         3892 
  857000   0.76919775   -7.3067233    3783.0302         3903 
  858000   0.76085845    -7.346321    3774.6692         3905 
  859000   0.76014641   -7.3189986    3782.3447         3889 
  860000    0.7666047   -7.3391813    3778.1165         3886 
  861000   0.78716095   -7.3446472    3770.0362         3901 
  862000   0.77845094   -7.3127742    3784.9333         3880 
  863000   0.77983336   -7.3514615      3780.94         3906 
  864000   0.76497687   -7.3096379    3792.3567         3882 
  865000    0.7761276   -7.3202329    3778.3964         3897 
  866000   0.77252313   -7.3481682    3782.8398         3926 
  867000   0.77112583   -7.3460131    3788.3015         3915 
  868000   0.75891008   -7.3264261    3790.5196         3905 
  869000   0.77406422   -7.3159857    3782.2248         3875 
  870000   0.76108509   -7.3547331    3792.6286         3900 
  871000   0.76084879   -7.3406771    3781.8269         3897 
  872000   0.77984341   -7.3446015    3784.7812         3896 
  873000   0.75798886    -7.326168    3774.6189         3910 
  874000   0.77317122   -7.3084844    3784.5618         3899 
  875000   0.77285546   -7.3221953    3782.2071         3902 
  876000   0.76244109   -7.3099134    3787.0535         3908 
  877000   0.76321573   -7.3471965    3772.1265         3871 
  878000   0.75635756   -7.3182906    3788.0746         3900 
  879000   0.76630373   -7.3490542    3786.3946         3906 
  880000   0.77834386    -7.330696    3798.2152         3880 
  881000   0.79440778    -7.323343    3773.6557         3891 
  882000   0.76395139   -7.3260387    3786.3923         3891 
  883000   0.78775012   -7.3370368    3775.4547         3899 
  884000   0.75790451   -7.3171122     3792.743         3881 
  885000   0.75224324   -7.3443714    3774.1997         3886 
  886000   0.76280544   -7.3397208    3771.6695         3912 
  887000   0.77627081   -7.3386121    3790.6654         3898 
  888000   0.76605285   -7.3356451    3780.7605         3920 
  889000   0.75400824   -7.3500958    3776.1177         3900 
  890000   0.75755752   -7.3224136    3781.2602         3886 
  891000   0.77432921   -7.3643306    3788.0754         3906 
  892000   0.78368362   -7.3387181     3788.347         3920 
  893000   0.76104004   -7.3224825    3790.2541         3886 
  894000   0.78716611    -7.360771    3772.6227         3920 
  895000   0.78555402   -7.3238801    3777.9684         3892 
  896000   0.76989371   -7.3407069     3783.566         3914 
  897000   0.76694851   -7.3290107    3777.3005         3887 
  898000   0.78090195   -7.3347982    3780.9771         3891 
  899000   0.78282136   -7.3236078    3789.8194         3898 
  900000   0.77481636   -7.3296767    3784.4113         3915 
  901000   0.76744994   -7.3340576    3782.3817         3910 
  902000   0.77209053   -7.3318614    3779.6986         3903 
  903000    0.7671889   -7.3137094    3787.2057         3886 
  904000    0.7696348   -7.3061666    3792.4993         3906 
  905000   0.77406502   -7.3375174     3778.418         3885 
  906000   0.76996114   -7.3403871    3781.8939         3918 
  907000   0.76422314   -7.3370262    3782.7401         3922 
  908000   0.75737171   -7.3180862     3787.572         3875 
  909000   0.76359589   -7.3334408    3768.0703         3924 
  910000    0.7783668   -7.3193951    3777.9848         3896 
  911000    0.7761766   -7.3581866    3783.4636         3904 
  912000   0.77671966   -7.3187046    3782.1948         3905 
  913000   0.75670797   -7.3144641    3781.0467         3887 
  914000   0.76937313   -7.3338559    3774.1161         3907 
  915000   0.76887618   -7.3436342    3780.1969         3912 
  916000   0.77490313   -7.3436122    3784.0076         3907 
  917000   0.76949771   -7.3275889    3783.3145         3899 
  918000    0.7678409   -7.3360831    3775.9654         3900 
  919000    0.7510168    -7.330532    3789.9585         3894 
  920000   0.76652842   -7.3302107    3781.4988         3899 
  921000     0.762203   -7.3244019     3793.732         3899 
  922000   0.77848683   -7.3308474    3783.7243         3899 
  923000   0.78474287   -7.3322138    3789.5513         3911 
  924000   0.77543248   -7.3434622    3770.2537         3900 
  925000   0.76229421   -7.3507318    3785.5043         3914 
  926000   0.77949456   -7.3482001      3781.29         3915 
  927000   0.76121581   -7.3348919    3791.0683         3913 
  928000   0.77547291   -7.3532832    3778.8343         3916 
  929000   0.78127838   -7.3245919    3786.7431         3923 
  930000   0.75590941   -7.3423387    3789.2328         3917 
  931000   0.76651584   -7.3086401    3776.5072         3910 
  932000   0.76362398   -7.3305114    3779.8763         3916 
  933000   0.77596058   -7.3295803    3785.0443         3900 
  934000    0.7714058   -7.3556596    3780.9024         3921 
  935000   0.80584837   -7.3315597    3795.1006         3914 
  936000   0.77314539   -7.3205721    3782.4708         3916 
  937000   0.78501381   -7.3528501    3784.8412         3922 
  938000   0.77520449   -7.3444197    3785.4071         3901 
  939000   0.74912329   -7.3185291      3788.57         3900 
  940000   0.74920065   -7.3441894    3784.5366         3915 
  941000   0.77377472   -7.3419405    3774.0041         3906 
  942000   0.77370225   -7.3278531    3785.5525         3898 
  943000   0.77270071   -7.3383516    3776.3885         3888 
  944000   0.78021907   -7.3276584    3781.0672         3904 
  945000   0.77491445   -7.3285155    3786.8893         3913 
  946000   0.78290206   -7.3216298    3789.6539         3909 
  947000   0.76829879    -7.344548    3792.1744         3917 
  948000   0.77537138   -7.3214756    3789.6581         3895 
  949000   0.77311936   -7.3055209    3795.8199         3912 
  950000   0.75773854   -7.3308798    3767.2994         3900 
  951000   0.76804823   -7.3579565    3781.5023         3907 
  952000   0.76905672   -7.3168656    3788.2088         3874 
  953000   0.76041232   -7.3546859    3775.4176         3914 
  954000   0.78729257   -7.3142654    3787.3951         3902 
  955000   0.78959687   -7.3424749    3777.9875         3894 
  956000   0.76906698   -7.3466969    3790.0759         3888 
  957000   0.77350644   -7.3395542    3784.2959         3909 
  958000   0.77660244   -7.3355025    3783.6564         3900 
  959000   0.76254082   -7.3258367    3789.0055         3900 
  960000    0.7630959   -7.3236273      3780.37         3911 
  961000   0.76913745   -7.3470277     3768.928         3906 
  962000   0.78829142   -7.3354421    3785.3742         3910 
  963000   0.76999706    -7.314856    3779.3086         3905 
  964000   0.75701021   -7.3433889    3792.9608         3921 
  965000   0.76812615   -7.3346334    3778.9585         3899 
  966000   0.76746128   -7.3098576    3778.8881         3906 
  967000   0.77528188   -7.3377252    3781.3232         3910 
  968000   0.78876746   -7.3391363    3780.9448         3917 
  969000   0.78778913   -7.3409522    3791.3911         3894 
  970000   0.76204828    -7.316803     3776.433         3909 
  971000   0.77972078    -7.320543    3783.8853         3912 
  972000   0.76969436   -7.3277018    3787.1971         3904 
  973000   0.77702895   -7.3403606    3783.7646         3912 
  974000   0.77044785   -7.3248513    3791.6028         3902 
  975000   0.78575952   -7.3071339    3779.5411         3913 
  976000    0.7714088   -7.3456026    3788.6216         3914 
  977000   0.77001895   -7.3378528    3781.2054         3907 
  978000   0.77434587   -7.3373539      3790.96         3892 
  979000   0.77864433   -7.3113197    3788.7462         3905 
  980000   0.75342418   -7.3207439    3790.9494         3896 
  981000   0.76581384   -7.3052803    3774.7581         3904 
  982000   0.77838756   -7.3326688    3779.3916         3915 
  983000   0.77326411   -7.3413388     3786.449         3930 
  984000   0.75381965   -7.3438869    3783.1317         3904 
  985000   0.75823216   -7.3375629    3782.8018         3892 
  986000   0.77948451   -7.3477842    3781.4138         3897 
  987000   0.76121356    -7.319607    3791.3157         3906 
  988000   0.78175741   -7.2803183    3789.7602         3899 
  989000   0.77241773   -7.3466756    3792.1422         3881 
  990000   0.78786306    -7.341223    3782.4929         3901 
  991000    0.7674271   -7.3156234    3792.2216         3894 
  992000   0.77257964   -7.3386347    3786.5883         3904 
  993000   0.78248841   -7.3149844    3787.0917         3906 
  994000   0.77035791   -7.3468844    3776.2374         3923 
  995000   0.75248789   -7.3411471     3792.436         3908 
  996000   0.77671108   -7.3299403    3771.6702         3914 
  997000   0.76549348     -7.33883     3784.928         3918 
  998000    0.7483838   -7.3240127    3780.4035         3910 
  999000    0.7847564   -7.3550588    3788.0876         3918 
 1000000   0.78233273   -7.3164735    3795.2159         3912 
 1001000   0.76558448   -7.3412797    3782.1542         3917 
 1002000   0.77636499   -7.3205798    3791.5498         3928 
 1003000   0.77701156   -7.3245702    3782.7372         3919 
 1004000   0.77841008   -7.3172661    3784.4085         3913 
Loop time of 2151.17 on 48 procs for 1000000 steps with 4000 atoms

Performance: 80328.236 tau/day, 464.862 timesteps/s
99.4% CPU use with 48 MPI tasks x no OpenMP threads

MPI task timing breakdown:
Section |  min time  |  avg time  |  max time  |%varavg| %total
---------------------------------------------------------------
Pair    | 130.91     | 139.07     | 151.4      |  35.0 |  6.46
Neigh   | 12.606     | 13.12      | 13.699     |   7.6 |  0.61
Comm    | 103.14     | 122.32     | 135.18     |  58.4 |  5.69
Output  | 2.2391     | 2.2399     | 2.2571     |   0.2 |  0.10
Modify  | 1835.5     | 1848.4     | 1865       |  17.1 | 85.92
Other   |            | 26.04      |            |       |  1.21

Nlocal:        83.3333 ave          91 max          76 min
Histogram: 2 2 2 6 17 3 8 3 3 2
Nghost:        1707.12 ave        1732 max        1678 min
Histogram: 4 1 3 8 6 7 5 3 5 6
Neighs:        10085.4 ave       11240 max        9033 min
Histogram: 3 2 5 8 6 12 4 2 5 1
FullNghs:      20171.9 ave       22327 max       18008 min
Histogram: 2 2 2 12 6 9 7 1 5 2

Total # of neighbors = 968250
Ave neighs/atom = 242.06250
Neighbor list builds = 52352
Dangerous builds = 0

#clear
#
#next RN
#
#jump SELF
Total wall time: 0:35:52
