
units lj                  # Use reduced LJ style units
atom_style atomic         # Uncharged point particles
atom_modify map hash      # Needed for indexing of clusters etc
                          # Used to be able to find where atoms are in relation to each other.

lattice fcc 1.0 spacing 1 1 1
Lattice spacing in x,y,z = 1.5874011 1.5874011 1.5874011
region box block 0 10 0 10 0 10 units lattice
create_box 2 box
Created orthogonal box = (0.0000000 0.0000000 0.0000000) to (15.874011 15.874011 15.874011)
  3 by 4 by 4 MPI processor grid
create_atoms 1 box
Created 4000 atoms
  using lattice units in orthogonal box = (0.0000000 0.0000000 0.0000000) to (15.874011 15.874011 15.874011)
  create_atoms CPU = 0.002 seconds
set type 1 type/fraction 2 0.91 78393
Setting atom values ...
  3634 settings made for type/fraction
mass 1 1.0
mass 2 1.0
pair_style lj/cut  3.5
pair_modify tail  yes
pair_coeff 1  1  1.0  1.0   # Intearaction between 1 and 1 set with epsilon = 1 and sigma = 1
pair_coeff 1  2  1.5  0.8
pair_coeff 2  2  0.5  0.88

write_data data.0
System init for write_data ...
Neighbor list info ...
  update every 1 steps, delay 10 steps, check yes
  max neighbors/atom: 2000, page size: 100000
  master list distance cutoff = 3.8
  ghost atom cutoff = 3.8
  binsize = 1.9, bins = 9 9 9
  1 neighbor lists, perpetual/occasional/extra = 1 0 0
  (1) pair lj/cut, perpetual
      attributes: half, newton on
      pair build: half/bin/atomonly/newton
      stencil: half/bin/3d
      bin: standard
WARNING: Not all mixed pair coeffs generated from mixing. Use write_data with 'pair ij' option to store all pair coeffs. (../write_data.cpp:312)


#############################
#   M E L T   S Y S T E M   #
#############################

velocity all create 2.4 1741580 mom yes dist gaussian # Assign velocities
                                                    # Temperature 2.4, random number seed, zero linear momentum
                                                                                # Gaussian distribution

timestep 0.002   # simulation timestep
thermo 1000       # output thermodynamic data every 1000 steps bf 100

# Define a fix  in this case with index 1 applied to all
# particles in the simulation. This fix is for simulations
# in the anisotropic NPT ensemble. Note that we use the MTK
# correction.
fix 1 all npt temp 2.4 2.4 0.1 iso 5.68 5.68 0.5 mtk yes tchain 5 pchain 5 # Use NPT ensemble
                                                                         # Set temperature and pressure and damping
                                                                         # Numbers of thermostats in chain and in barostat
run 10000          # run for 10000 steps
Per MPI rank memory allocation (min/avg/max) = 3.642 | 3.644 | 3.648 Mbytes
Step Temp E_pair E_mol TotEng Press Volume 
       0          2.4    -3.140535            0     0.458565   -2.4974117         4000 
    1000    2.4208404   -2.1592422            0    1.4711106     5.703243    4021.0326 
    2000    2.3924776   -2.0911724            0    1.4966468    5.7083491    4083.2171 
    3000    2.4274544   -2.1615896            0    1.4786817    5.7755278     4009.789 
    4000    2.4325195   -2.2456664            0    1.4022006    5.3683397    4000.1539 
    5000    2.3895999   -2.1290517            0    1.4544522    5.9729168    3997.2075 
    6000    2.4189091   -2.2166769            0    1.4107797     5.579203    3994.1451 
    7000    2.4024234   -2.1913222            0     1.411412    5.5931458    4001.3083 
    8000    2.3967621   -2.1774273            0    1.4168171    5.7596574    3990.1039 
    9000    2.4319212   -2.0711812            0    1.5757886     5.947458    4064.4415 
   10000    2.3473033   -2.1578923            0    1.3621824     5.586454    4029.5402 
Loop time of 2.48203 on 48 procs for 10000 steps with 4000 atoms

Performance: 696204.565 tau/day, 4028.962 timesteps/s
99.6% CPU use with 48 MPI tasks x no OpenMP threads

MPI task timing breakdown:
Section |  min time  |  avg time  |  max time  |%varavg| %total
---------------------------------------------------------------
Pair    | 1.0782     | 1.1471     | 1.2114     |   3.1 | 46.22
Neigh   | 0.20429    | 0.21439    | 0.22761    |   0.9 |  8.64
Comm    | 0.78421    | 0.85778    | 0.93483    |   4.3 | 34.56
Output  | 0.00024917 | 0.00025485 | 0.00034826 |   0.0 |  0.01
Modify  | 0.22727    | 0.24717    | 0.27374    |   2.7 |  9.96
Other   |            | 0.01533    |            |       |  0.62

Nlocal:        83.3333 ave          92 max          75 min
Histogram: 2 3 7 1 12 9 4 8 1 1
Nghost:        1634.85 ave        1661 max        1599 min
Histogram: 2 1 2 6 5 5 10 10 5 2
Neighs:        9470.48 ave       10809 max        8099 min
Histogram: 3 3 1 6 11 8 8 3 3 2

Total # of neighbors = 454583
Ave neighs/atom = 113.64575
Neighbor list builds = 907
Dangerous builds = 212

# Equilibrate just above the melting temperature to avoid step fn in T

fix 1 all npt temp 1.25 1.25 0.1 iso 5.68 5.68 0.5 mtk yes tchain 5 pchain 5
run 2000
Per MPI rank memory allocation (min/avg/max) = 3.643 | 3.645 | 3.649 Mbytes
Step Temp E_pair E_mol TotEng Press Volume 
   10000    2.3473033   -2.1578923            0    1.3621824     5.586454    4029.5402 
   11000    1.2440722   -3.1986619            0   -1.3330201    5.7928693    3130.9866 
   12000    1.2433045   -3.2161846            0   -1.3516941    5.9713848    3104.9072 
Loop time of 0.597519 on 48 procs for 2000 steps with 4000 atoms

Performance: 578391.946 tau/day, 3347.176 timesteps/s
99.6% CPU use with 48 MPI tasks x no OpenMP threads

MPI task timing breakdown:
Section |  min time  |  avg time  |  max time  |%varavg| %total
---------------------------------------------------------------
Pair    | 0.27029    | 0.28821    | 0.31001    |   1.9 | 48.23
Neigh   | 0.039471   | 0.04155    | 0.04361    |   0.5 |  6.95
Comm    | 0.19195    | 0.21824    | 0.23803    |   2.4 | 36.52
Output  | 5.1711e-05 | 5.3616e-05 | 8.5031e-05 |   0.0 |  0.01
Modify  | 0.040978   | 0.044726   | 0.04834    |   0.9 |  7.49
Other   |            | 0.004737   |            |       |  0.79

Nlocal:        83.3333 ave          90 max          74 min
Histogram: 2 3 2 5 3 7 10 4 8 4
Nghost:        1945.17 ave        1970 max        1921 min
Histogram: 4 0 8 6 8 6 5 5 1 5
Neighs:        12301.8 ave       13930 max       10272 min
Histogram: 2 1 2 6 6 12 6 7 4 2

Total # of neighbors = 590486
Ave neighs/atom = 147.62150
Neighbor list builds = 145
Dangerous builds = 14

#############################
# L I N E A R  Q U E N C H  #
#############################

# Define solid atoms. This closely follows ten Wolde  Ruiz-Montero and Frenkel  Faraday Discuss  1996  104  93-110
# Compute components of the per-atom q6 vector
compute q6 all orientorder/atom degrees 1 6 components 6 nnn NULL cutoff 1.3 # compute the Q6 parameter.
                                                                             # Use all neighbours within 1.3 unit cell.

# get number of connections
compute coord_number all coord/atom orientorder q6 0.5

# An atom is solid if it has 8 or more connections (of a possible 14)
variable is_solid atom c_coord_number>=8
group solid dynamic all var is_solid    # Must be dynamic to update
dynamic group solid defined

# do clustering
compute cluster solid cluster/atom 1.3 # Create a cluster where all atoms within are solid and max 1.3 units from another member

# define chunks one chunk per cluster
compute clus_chunks solid chunk/atom c_cluster nchunk every compress yes  # Says which atoms are in which chunk

# count the size of each chunk
compute size_chunks solid property/chunk clus_chunks count


# Find the maximum entry in the vector of chunk sizes
variable max_n equal max(c_size_chunks)


# Thermo style which includes this variable
# thermo_style custom step temp pe vol v_max_n

thermo ${N}  # Print the thermo information every 100 steps
thermo 1000  

# Reset the npt fix at a lower temperature (below freezing)
fix 1  all npt temp  ${temp} ${temp}  0.1  iso  5.68  5.68  0.5  mtk yes tchain  5  pchain  5
fix 1  all npt temp  0.45 ${temp}  0.1  iso  5.68  5.68  0.5  mtk yes tchain  5  pchain  5
fix 1  all npt temp  0.45 0.45  0.1  iso  5.68  5.68  0.5  mtk yes tchain  5  pchain  5

dump dmp2 all dcd ${N} traj.dcd
dump dmp2 all dcd 1000 traj.dcd


compute msd all msd com yes
variable twopoint equal c_msd[4]/6/(step*dt+1.0e-6)
fix 9 all vector 10 c_msd[4]
variable fit equal slope(f_9)/6/(10*dt)
thermo_style custom step temp pe c_msd[4] v_twopoint v_fit v_max_n

fix 1 all npt temp 1.25 ${temp} 0.1 iso 5.68 5.68 0.5 mtk yes tchain 5 pchain 5
fix 1 all npt temp 1.25 0.45 0.1 iso 5.68 5.68 0.5 mtk yes tchain 5 pchain 5
run 5000000 # 5000000  # Run for this many steps
Neighbor list info ...
  update every 1 steps, delay 10 steps, check yes
  max neighbors/atom: 2000, page size: 100000
  master list distance cutoff = 3.8
  ghost atom cutoff = 3.8
  binsize = 1.9, bins = 8 8 8
  4 neighbor lists, perpetual/occasional/extra = 1 3 0
  (1) pair lj/cut, perpetual
      attributes: half, newton on
      pair build: half/bin/atomonly/newton
      stencil: half/bin/3d
      bin: standard
  (2) compute orientorder/atom, occasional
      attributes: full, newton on
      pair build: full/bin/atomonly
      stencil: full/bin/3d
      bin: standard
  (3) compute coord/atom, occasional
      attributes: full, newton on
      pair build: full/bin/atomonly
      stencil: full/bin/3d
      bin: standard
  (4) compute cluster/atom, occasional
      attributes: full, newton on
      pair build: full/bin/atomonly
      stencil: full/bin/3d
      bin: standard
Per MPI rank memory allocation (min/avg/max) = 9.822 | 9.828 | 9.832 Mbytes
Step Temp PotEng c_msd[4] v_twopoint v_fit v_max_n 
   12000    1.2433045   -3.2161846 6.6960486e-30 4.6500335e-32 8.3333333e+20            4 
   13000    1.2177914   -3.2168215    1.0160583 0.0065131937  0.086715918            1 
   14000    1.2252055     -3.16792    2.0367238  0.012123356  0.087023114            3 
   15000    1.2667726     -3.21812    3.1153659  0.017307588  0.086792154            3 
   16000    1.2368866   -3.2138055    4.0405573  0.021044569  0.085799099            3 
   17000    1.2708869   -3.2353273    5.1240704  0.025117992  0.084930429            2 
   18000     1.242159    -3.201039    6.1978106  0.028693567  0.085532952            2 
   19000    1.2607819   -3.1892599      7.40142  0.032462368  0.086832738            2 
   20000    1.2619339   -3.2272629    8.5087365  0.035453068  0.088084942            2 
   21000    1.2232571   -3.1743441    9.7233322   0.03858465   0.08916419            3 
   22000    1.2301664   -3.2161097    10.775281  0.040815458  0.089857379            1 
   23000    1.2342197   -3.1801317    11.909111  0.043148951  0.090241592            3 
   24000    1.2365621   -3.2031338    12.888374  0.044751297  0.090432587       -1e+20 
   25000    1.2454752   -3.2250709    14.093717  0.046979056  0.090564798            2 
   26000    1.2475044   -3.2073739    15.265591  0.048928175  0.090921087            1 
   27000    1.2417214   -3.2104227    16.462224  0.050809331  0.091374738            2 
   28000    1.2374534   -3.2143016    17.622355  0.052447484  0.091899842            4 
   29000    1.2617193   -3.2410531    18.765924  0.053925068  0.092314542            1 
   30000      1.23172   -3.2316049    19.815702  0.055043615  0.092632071            1 
   31000    1.2273503   -3.2061041    20.689766  0.055617649  0.092565999            2 
   32000    1.2265247    -3.240488    21.685785  0.056473396  0.092455015            3 
   33000    1.2516023    -3.206739    22.880943  0.057780158  0.092283105            2 
   34000    1.2432783   -3.2360359    23.883314  0.058537533  0.092175004            2 
   35000    1.2438848   -3.2206182    24.808245  0.059067249  0.091901303            3 
   36000    1.2650432   -3.2078797    25.880631  0.059908867  0.091664275            2 
   37000    1.2328673   -3.2712645    27.160382   0.06117203  0.091554025            4 
   38000    1.2337746   -3.2695624     28.29324  0.062046577  0.091516325            2 
   39000     1.261424   -3.2356313    29.463748  0.062956726   0.09153345            1 
   40000    1.2536004   -3.2106203    30.822949  0.064214476  0.091583104            1 
   41000    1.2480957   -3.2262717    31.709948  0.064451113   0.09168965            1 
   42000    1.2618098   -3.2325557    33.000044  0.065476276  0.091784333            5 
   43000    1.2201075   -3.2315156    34.202299  0.066283524  0.091933965            2 
   44000    1.2761066   -3.2054481    35.267192  0.066793924  0.092019603            1 
   45000    1.2675888    -3.231394    36.536279  0.067659776  0.092149644            2 
   46000    1.2619774    -3.212243    37.541871  0.068010635  0.092220557            4 
   47000    1.2486645   -3.2266963    38.641405   0.06851313   0.09229746            1 
   48000     1.255053   -3.2455559     39.94233  0.069344322  0.092410015            1 
   49000    1.2482806   -3.2057375    41.183546  0.070040044   0.09254272            1 
   50000    1.2361333   -3.2124604    42.319938  0.070533229  0.092667898            1 
   51000    1.2695821   -3.2125345     43.51011   0.07109495  0.092804629            3 
   52000    1.2338189   -3.2232596    44.409835  0.071169607  0.092925751            2 
   53000    1.2550254    -3.215926    45.644456  0.071768013    0.0929892            4 
   54000    1.2499348   -3.2444512     46.27661  0.071414521  0.092999741            2 
   55000    1.2438817    -3.231295    47.171992  0.071472715  0.092933545            1 
   56000    1.2400466   -3.2300404    48.330341   0.07192015  0.092880009            2 
   57000    1.2517434   -3.2639512     49.24178  0.071990905  0.092831767            1 
   58000    1.2371632   -3.2577942     50.49444  0.072549482  0.092725681            1 
   59000    1.2349638   -3.2577638    51.516547  0.072763484   0.09264837            3 
   60000    1.2576267   -3.1999095    52.254947  0.072576315  0.092532312            3 
   61000    1.2564536   -3.2476361    53.875299  0.073600135  0.092440513            1 
   62000    1.2483518   -3.2468196    54.993429  0.073915899  0.092397604            2 
   63000    1.2321091   -3.2098056    56.008131  0.074084828  0.092325383            3 
   64000    1.2477017   -3.2120239    57.004618  0.074224762   0.09228264            1 
   65000      1.26803   -3.2326917    57.941542  0.074284027  0.092224029            1 
   66000    1.2166653   -3.2465047    59.115313  0.074640546  0.092156209            6 
   67000    1.2141981   -3.2024247    60.086458    0.0747344  0.092079728            1 
   68000     1.220119   -3.2334434     61.14328   0.07493049  0.092006495            1 
   69000    1.2237824   -3.2673738    62.082835  0.074979269  0.091963035            5 
   70000    1.2646633    -3.183217    63.620213  0.075738349  0.091906891            2 
   71000    1.2362836    -3.255601    64.331064  0.075505943  0.091854204            1 
   72000    1.2422715   -3.2423582    65.535061  0.075850765  0.091804436            1 
   73000    1.2257367   -3.2388147    66.340111   0.07573072  0.091740179            1 
   74000    1.2441345   -3.2180165    67.239477  0.075720131   0.09166313            2 
   75000    1.2582753   -3.2191404    68.408031  0.076008923  0.091600716            2 
   76000    1.2404202   -3.2276087    69.546813   0.07625747  0.091528443            2 
   77000    1.2411758   -3.2344751    70.591552  0.076397783  0.091455554            1 
   78000    1.2514061   -3.2213369    71.720204  0.076624149  0.091360293            1 
   79000    1.2509789   -3.2504374    72.461521  0.076436204  0.091272166            1 
   80000    1.2338899   -3.2227691     73.61249  0.076679677  0.091187006            2 
   81000    1.2228515      -3.2407    74.237898  0.076376438  0.091103492            1 
   82000     1.227635   -3.2141564    76.033331  0.077269645  0.091016401            1 
   83000    1.2257201   -3.2254132    76.785955  0.077094331  0.090953904            3 
   84000    1.2422129   -3.2350197    77.753708  0.077136615  0.090881555            4 
   85000    1.2583214   -3.2306762    78.943909  0.077395989  0.090812289            1 
   86000    1.2539165   -3.2474252    80.393899  0.077901065  0.090762877            1 
   87000    1.2657349   -3.2372268    81.322308  0.077894931  0.090742208            3 
   88000    1.2330136   -3.2189633    83.481957  0.079054883  0.090752317            2 
   89000    1.2589127   -3.2354244    84.188201  0.078827903  0.090756519            2 
   90000    1.2289548   -3.2527413    84.890654  0.078602457  0.090752197            2 
   91000    1.2407031   -3.1916063    86.520237  0.079230986   0.09075461            4 
   92000    1.2428686   -3.2224129    87.661885  0.079403881  0.090773917            2 
   93000    1.2561903    -3.246494    88.429277  0.079237703  0.090789182            2 
   94000    1.2477096   -3.2328713    90.142317  0.079913401  0.090814696            2 
   95000    1.2362743   -3.2851143    90.408523  0.079305721  0.090847448            1 
   96000    1.2247189   -3.1950005    91.770388  0.079661795   0.09085743            1 
   97000    1.2500519   -3.2151037    92.481144  0.079451154  0.090852922            1 
   98000    1.2363185   -3.2283766    93.797716  0.079759962  0.090848735            1 
   99000    1.2442496   -3.2429059    94.672551  0.079690699  0.090855926            2 
  100000    1.2435878   -3.1924195    95.865816   0.07988818  0.090847288            1 
  101000    1.2348034   -3.2113527    97.075086  0.080094955  0.090827058            1 
  102000    1.2204046   -3.2330226    97.680886  0.079804645  0.090801312            2 
  103000      1.23162    -3.212836    98.957381  0.080062606  0.090772166            3 
  104000    1.2426461   -3.2253564     100.0961  0.080205212  0.090740056            2 
  105000    1.2121614   -3.2314619    101.20248  0.080319426  0.090728041            1 
  106000    1.2610453   -3.2267211    102.29894  0.080423696  0.090711536            4 
  107000     1.236632   -3.2432327    103.51869  0.080622031  0.090693823            2 
  108000    1.2449526   -3.2173587    104.81593  0.080876486  0.090690504            1 
  109000    1.2359562   -3.2518757    105.26492   0.08047777  0.090680669            5 
  110000    1.2219382   -3.2483861    105.67875  0.080059657   0.09066372            1 
  111000    1.2168996   -3.2378744    107.02696  0.080350571  0.090628744            1 
  112000    1.2610324   -3.2092301    108.75604  0.080919675  0.090617688            3 
  113000    1.2358158   -3.2108704    110.31873  0.081355995  0.090616468            3 
  114000    1.2444857   -3.2517811    111.36537  0.081407434  0.090628248            1 
  115000     1.204217   -3.2922325    111.70993  0.080949225  0.090632863            2 
  116000    1.2323431   -3.2143969    113.74499  0.081713357  0.090633485            2 
  117000    1.2277236   -3.2148279    114.79923  0.081765832  0.090633538            2 
  118000    1.2461674   -3.2516949    115.97856  0.081905765  0.090648959            1 
  119000    1.2122598    -3.262424    116.99546  0.081929593  0.090667771            1 
  120000    1.2249544   -3.2237333    118.44363  0.082252521  0.090694222            4 
  121000    1.2311041   -3.2188675    119.17648  0.082077466  0.090712371            1 
  122000      1.23473   -3.2189014    120.63107  0.082398272  0.090728339            2 
  123000    1.2070026   -3.2418791    121.56245  0.082359382  0.090755117            2 
  124000    1.2081707   -3.2105544     122.9538  0.082630243  0.090772095            1 
  125000    1.2397064   -3.2468394     123.7799  0.082519936   0.09079779            2 
  126000    1.2387464   -3.2215188    125.24023  0.082830842  0.090827007            2 
  127000    1.2241395   -3.2118005    125.88269  0.082600188  0.090851199            1 
  128000    1.2401905   -3.2256906    127.01831  0.082694214  0.090864726            2 
  129000    1.2285633   -3.2645672    127.27569  0.082219438  0.090870978            2 
  130000    1.2056892   -3.2366578    128.26098  0.082218574  0.090864263            1 
  131000    1.2211438   -3.2386172    129.65362  0.082476859  0.090858924            2 
  132000     1.235188   -3.2642996    131.45214   0.08298746  0.090872005            2 
  133000    1.2251743   -3.2511551    132.85575  0.083242953  0.090893033            2 
  134000    1.1933636   -3.2233081    133.96037  0.083308686  0.090916006            1 
  135000    1.2216857   -3.2328733    134.42997  0.082981464  0.090922802            1 
  136000    1.2332921   -3.2203531    135.17766   0.08282945  0.090918998            4 
  137000    1.2000299   -3.2630932    136.25416  0.082879658  0.090915743            1 
  138000    1.2255411   -3.2549661    137.24321  0.082876336  0.090907155            2 
  139000    1.2274729   -3.2009037    138.38627  0.082965387  0.090909393            2 
  140000     1.241064   -3.2577102    139.49976  0.083035568  0.090899643            1 
  141000    1.1974896   -3.2338472    139.90248   0.08268468  0.090883697            1 
  142000    1.2044094   -3.2408256    141.36019  0.082957856  0.090872277            1 
  143000    1.2120209   -3.2387031    142.01412  0.082758811  0.090851033            2 
  144000    1.2313679   -3.2291333    143.52274  0.083057143  0.090832229            1 
  145000      1.21123   -3.2825055    144.23583  0.082894155  0.090819044            3 
  146000    1.2268123    -3.266448    145.82591  0.083233965  0.090801509            1 
  147000    1.2439557   -3.2649479    146.21005  0.082885515  0.090793818            2 
  148000    1.2289654   -3.2585112    148.03574  0.083353457  0.090783608            1 
  149000    1.2360096   -3.2596593    148.33768  0.082962908  0.090760027            1 
  150000    1.2373626   -3.2217276    149.86988  0.083261042  0.090738776            1 
  151000    1.2146588   -3.2261994    149.31165  0.082401573  0.090711158            4 
  152000    1.2021191   -3.2411774    151.56635  0.083095586   0.09067807            3 
  153000    1.2520513   -3.2594045    151.96504  0.082769628  0.090647007            2 
  154000    1.2250229   -3.2868929    152.51024  0.082527188  0.090603417            1 
  155000    1.2162602    -3.244893    153.62613  0.082594692  0.090553322            1 
  156000    1.2637176   -3.2593426    154.64488  0.082609442  0.090503526            4 
  157000     1.237614   -3.2745689    155.25957  0.082409539  0.090458534            2 
  158000    1.2413219   -3.2427236    157.09219  0.082854529   0.09041953            2 
  159000    1.2333884   -3.2646461    157.87222  0.082742252   0.09038459            2 
  160000    1.2035985   -3.2322008    159.77721  0.083217296  0.090347415            4 
  161000    1.2027926   -3.2242295    160.65888  0.083156768  0.090314531            6 
  162000    1.2202203   -3.2882454    161.71802   0.08318828  0.090285247            3 
  163000    1.2182194   -3.2211582    162.29888  0.082974888  0.090250798            3 
  164000    1.2498724   -3.2165811    164.35927   0.08351589  0.090220953            1 
  165000      1.22439   -3.2546309    164.63914  0.083151081  0.090197093            3 
  166000    1.2101358   -3.2601702    165.65141  0.083158341   0.09017364            3 
  167000    1.2350636   -3.2659164    166.43512  0.083051457  0.090147893            1 
  168000    1.2311367   -3.2467796    167.25506  0.082963821  0.090113883            2 
  169000    1.2288856   -3.2438398    169.16949  0.083416906  0.090087462            7 
  170000    1.2259839    -3.222705    170.44569  0.083551807  0.090066133            4 
  171000    1.2477057   -3.2394893    172.44695  0.084038474  0.090057484            3 
  172000    1.2322256   -3.2682947    173.16835  0.083899394   0.09005291            3 
  173000    1.2360076   -3.2389227    173.73296  0.083686398  0.090045457            1 
  174000    1.2092206   -3.3046578    174.18331  0.083421127  0.090027059            2 
  175000    1.1986117   -3.2372032    177.05812   0.08431339  0.090023452            1 
  176000    1.2270217   -3.2890977    178.34185  0.084442165  0.090017281            4 
  177000    1.2065359   -3.2584449    178.72515  0.084145549  0.090013451            5 
  178000    1.2211546   -3.2530444    179.08823  0.083842804  0.090000148            1 
  179000    1.2298433   -3.2439359    180.10842  0.083849357  0.089984686            1 
  180000    1.2161111   -3.2790875    180.11618  0.083387119  0.089965399            1 
  181000    1.1995435   -3.2924335    182.21411  0.083892315   0.08995345            3 
  182000    1.2084705   -3.2456044    183.72357  0.084122514  0.089942155            4 
  183000    1.2398936   -3.2660769    184.34949  0.083947854  0.089924115            2 
  184000    1.2345196   -3.2497151    184.78416  0.083688479  0.089902081            1 
  185000    1.1972597   -3.2728113    186.09904  0.083828397   0.08988001            1 
  186000    1.2155924   -3.2317531    186.93689  0.083753085   0.08985868            3 
  187000    1.2177449   -3.2238945     189.4926  0.084444117  0.089842321            2 
  188000    1.2249656   -3.2564046     188.8548  0.083712234  0.089820775            2 
  189000    1.1978879   -3.2471522    190.48601   0.08398854  0.089796814            1 
  190000    1.2167904   -3.2594188    191.33369  0.083918284  0.089775084            1 
  191000    1.1838334   -3.2573468    191.41934   0.08351629  0.089750276            1 
  192000    1.2383338   -3.2288423    192.89612  0.083722276  0.089729944            1 
  193000    1.2484774   -3.2621917    195.02987  0.084209789  0.089706473            1 
  194000    1.2161776   -3.2348627    196.10922  0.084239355  0.089692786            2 
  195000    1.2250214   -3.2306894    197.40762  0.084362232  0.089673737            2 
  196000    1.2315165   -3.2740966    197.49509     0.083969  0.089656221            1 
  197000    1.2495521    -3.238333    198.94407  0.084155698  0.089636589            1 
  198000    1.2164495   -3.2313732    201.09144  0.084634443  0.089621439            2 
  199000    1.2081362   -3.2706367     200.8982  0.084128226  0.089612358            2 
  200000    1.2243946   -3.2639679    202.27889  0.084282869  0.089604061            2 
  201000    1.2150336   -3.2609268    203.25868  0.084269769  0.089596874            2 
  202000    1.2385176   -3.2224421     205.5765  0.084808786  0.089594577            3 
  203000    1.2128026   -3.2331149    206.56791  0.084797994  0.089595037            2 
  204000    1.2412303   -3.2496777    206.82547  0.084487529  0.089597371            2 
  205000    1.2075833    -3.270048    209.01469  0.084965319  0.089594116            1 
  206000    1.2222014   -3.2952529    209.36214  0.084693422  0.089586048            1 
  207000    1.2028033   -3.2710253    209.53731  0.084354795  0.089583021            2 
  208000    1.2238917   -3.2434319    210.36587  0.084281199  0.089579276            4 
  209000    1.2384565   -3.2820924    213.08179  0.084960839  0.089575768            1 
  210000    1.2086161   -3.2254553    215.26291   0.08542179  0.089575098            2 
  211000    1.1915684   -3.2851857    214.06962  0.084545665  0.089577299            1 
  212000    1.2288124   -3.2414965    216.29704  0.085022422  0.089576689            2 
  213000    1.2264488   -3.3161167    217.09122  0.084933969  0.089581144            2 
  214000    1.2132062   -3.2622793    217.91027  0.084856023  0.089580385            2 
  215000    1.1971758   -3.2632715    220.07623  0.085300865  0.089584985            2 
  216000    1.2081971   -3.2489066    220.20799  0.084956785  0.089590594            2 
  217000    1.2026162   -3.2485518    221.64257  0.085116194  0.089592794            1 
  218000    1.2104491   -3.2605138     222.3457  0.084994532  0.089594961            1 
  219000    1.2142171   -3.2580556    223.95655  0.085219386  0.089595373            1 
  220000    1.2070091   -3.2655621      223.555  0.084679925  0.089595252            2 
  221000    1.1818619   -3.2405484    224.23425  0.084552885  0.089587397            3 
  222000    1.2155773   -3.2387391    225.61015  0.084688495   0.08958079            2 
  223000    1.2233677   -3.2581171    228.11904  0.085246278  0.089572036            1 
  224000      1.21811    -3.265055    228.77798  0.085110856  0.089571658            2 
  225000    1.2005956   -3.2702057    229.82069  0.085118773  0.089569977            2 
  226000    1.1967962   -3.2574165    230.58877  0.085025359  0.089568662            1 
  227000    1.2273447   -3.2703214    230.48713  0.084613484  0.089562214            2 
  228000    1.1796233   -3.3139977    232.07349  0.084822181  0.089552232            2 
  229000    1.2256548   -3.2387873    233.42974  0.084945319  0.089539465            2 
  230000    1.2144709   -3.2591287    234.92418  0.085117458  0.089530696            4 
  231000    1.2336535   -3.2840815    235.30542  0.084886516  0.089519357            2 
  232000    1.2381275   -3.2702633    237.48735  0.085304363  0.089514975            3 
  233000    1.1976747   -3.2810977    239.15585  0.085534995  0.089510151            2 
  234000    1.2150105   -3.2749987    238.99259  0.085111322  0.089510277            2 
  235000    1.2423783   -3.2536667    240.97614  0.085452533  0.089513188            2 
  236000    1.2301463     -3.27302     241.1601  0.085155401  0.089514985            1 
  237000    1.2074568   -3.2788773    242.90484  0.085409577  0.089515578            3 
  238000    1.2039506   -3.2251056    244.76393  0.085701657  0.089514984            3 
  239000    1.2435364   -3.2549814    244.63309   0.08529745   0.08951589            1 
  240000    1.1989686   -3.2621156    246.15977  0.085472143  0.089517432            2 
  241000    1.2121023   -3.2935624    247.56731  0.085604188  0.089519085            4 
  242000    1.2417469   -3.2669516    249.00888  0.085746859  0.089517336            1 
  243000    1.2100256   -3.2831992    248.20015  0.085116649  0.089511833            2 
  244000    1.2069078    -3.241024    249.33585  0.085155687  0.089502396            1 
  245000    1.1989199   -3.2881963    249.53425  0.084875596  0.089493547            1 
  246000    1.2239326    -3.254737    251.29307   0.08512638   0.08948614            1 
  247000    1.1982105   -3.2768268    251.95739  0.085005868  0.089478814            2 
  248000    1.2437055   -3.2519502    253.74459  0.085263638  0.089470835            1 
  249000    1.1947645   -3.2534657    253.73162  0.084916873  0.089458785            2 
  250000    1.2290936   -3.2483921     255.6966  0.085232199  0.089446851            2 
  251000    1.2003856   -3.2715188    255.73548  0.084905538  0.089435305            1 
  252000    1.1792295   -3.2295621    257.30907  0.085088978  0.089425976            2 
  253000    1.2166918   -3.2862517     258.2867  0.085074672  0.089418569            1 
  254000    1.1791916    -3.253796    260.50627  0.085467935  0.089411002            1 
  255000    1.2209623   -3.2743878     262.2316    0.0856966  0.089405648            1 
  256000    1.2196004   -3.2870223    261.51636  0.085129025  0.089398434            4 
  257000    1.2240782   -3.2735886    262.16849  0.085009238  0.089389705            3 
  258000    1.1596773   -3.2808829    263.22898   0.08502228  0.089383691            2 
  259000    1.2358814   -3.2871161    265.22739  0.085336997  0.089378222            3 
  260000    1.2120087   -3.2739029    265.51167  0.085099893  0.089374137            1 
  261000    1.1978749   -3.2617415    267.48127  0.085402704  0.089364462            1 
  262000    1.2062808   -3.2767937    268.53579  0.085412147  0.089357531            1 
  263000    1.2010842   -3.2731122    268.67263  0.085130744  0.089349102            1 
  264000    1.2196862   -3.2741682    271.19833  0.085605534  0.089344416            3 
  265000    1.2008431   -3.2856758    272.24323   0.08561108   0.08933996            2 
  266000      1.18419   -3.2821825    272.60373   0.08540217  0.089334458            2 
  267000    1.2118846   -3.3042261     273.7686   0.08544588  0.089326488            2 
  268000    1.2228719   -3.2729766     273.5089  0.085046299  0.089315516            1 
  269000     1.195281   -3.2807765    275.04867  0.085207145  0.089306336            3 
  270000    1.1860383   -3.2436547    276.80944  0.085435012  0.089298037            1 
  271000    1.2070428   -3.2351829    277.17133  0.085231037  0.089291701            2 
  272000    1.2160961   -3.2791706    278.05899  0.085189643  0.089281284            2 
  273000    1.2278039   -3.2805564    279.70295  0.085379411  0.089269807            2 
  274000    1.2011895   -3.3035679    279.90604  0.085129574  0.089261963            1 
  275000    1.2070268   -3.2830788    281.02191  0.085158154  0.089251344            1 
  276000    1.2072416   -3.3071037    281.91282  0.085118605  0.089236689            1 
  277000    1.2168726   -3.2540908    283.98434  0.085434518  0.089223308            2 
  278000    1.2103902   -3.2622321    284.02552  0.085139545  0.089210634            4 
  279000    1.2069681    -3.261297    286.09068   0.08545122  0.089199681            3 
  280000    1.2119601   -3.2966704    286.62875  0.085306175  0.089185171            2 
  281000    1.2286051   -3.2778732    286.36446  0.084924217  0.089167492            1 
  282000    1.2293377   -3.2562674    288.21146  0.085168872  0.089151256            1 
  283000    1.1915597    -3.274548     289.7701  0.085326885  0.089135598            1 
  284000     1.206038   -3.2683816      289.581   0.08497095  0.089118635            2 
  285000    1.2114719   -3.2868449    290.18349  0.084848973  0.089107076            5 
  286000    1.2063434   -3.2878001    292.68847  0.085282188   0.08909662            1 
  287000    1.2099764   -3.2713064    292.93576  0.085056839  0.089087048            1 
  288000    1.2122031   -3.2296174    293.98233  0.085064331  0.089077233            2 
  289000    1.1982396   -3.2526582    295.96936  0.085342953  0.089064356            2 
  290000    1.2490967   -3.2608308    295.71156  0.084974585  0.089053843            1 
  291000    1.2000929   -3.3210161    296.99942  0.085051381  0.089042715            2 
  292000    1.1970905   -3.2580578    299.49249    0.0854716  0.089033501            2 
  293000     1.213745   -3.2765168    300.17173  0.085373075  0.089022907            2 
  294000     1.210907   -3.3107592    301.24553  0.085387056  0.089014845            1 
  295000    1.2022111   -3.2782429    301.39155  0.085138857  0.089002568            1 
  296000    1.2135214   -3.2659564    302.93213  0.085284946  0.088989118            2 
  297000    1.1864729   -3.2977619    302.96959  0.085008302  0.088976234            1 
  298000    1.1973035   -3.2492761    304.74442  0.085219356  0.088963475            1 
  299000    1.2082623   -3.2551247    307.37195  0.085666653  0.088951524            1 
  300000    1.1975134   -3.2623357    308.37973  0.085661037  0.088942178            2 
  301000    1.2060546   -3.2868093    308.17744  0.085320444  0.088935512            1 
  302000    1.1901625   -3.2654796    310.99757  0.085816106  0.088928558            2 
  303000    1.2194063   -3.2736049    311.68875  0.085722977  0.088924086            2 
  304000    1.1994933   -3.3022828    312.35249  0.085622941  0.088918643            3 
  305000    1.2028913   -3.2633719    314.62443  0.085962959  0.088915782            2 
  306000    1.2148574   -3.2742891    314.66037  0.085691821  0.088909121            3 
  307000    1.1769208    -3.285661    314.05802   0.08524919  0.088903068            1 
  308000    1.1977227   -3.2853748    314.79665  0.085172254  0.088893264            2 
  309000     1.197487   -3.2666762    317.06809  0.085509193  0.088881712            3 
  310000    1.1781249   -3.2724172    318.19951  0.085537504  0.088869629            1 
  311000    1.2222686   -3.2623015    318.82673  0.085430527  0.088857356            1 
  312000    1.2059856   -3.2644105    320.81462  0.085687666  0.088844272            2 
  313000    1.2032158   -3.2666281    320.19669  0.085249385  0.088832274            3 
  314000    1.2151412   -3.2925324    320.87142  0.085156959  0.088817498            1 
  315000    1.1913883   -3.2945834    322.30589  0.085266109  0.088805106            6 
  316000    1.2016384   -3.2471153    322.49959  0.085047361  0.088788409            1 
  317000    1.1939352    -3.270534    324.00867  0.085175781  0.088774659            3 
  318000    1.1880493   -3.2618312    325.01399  0.085171382  0.088759393            2 
  319000    1.2044377    -3.249056    327.92535   0.08566493  0.088747196            1 
  320000    1.1788148   -3.3152669    326.43079  0.085008017  0.088733098            2 
  321000    1.2088638   -3.2779682     327.5515  0.085034139  0.088715989            2 
  322000    1.1974314   -3.2669036    329.17238  0.085189538  0.088702698            1 
  323000    1.1844817    -3.237675    330.51514  0.085272225  0.088688493            1 
  324000    1.1983993   -3.2918372    331.31162  0.085213895  0.088676781            4 
  325000    1.2102448   -3.2701775    332.15531  0.085168028  0.088663529            2 
  326000    1.2088096   -3.2663086    334.69539  0.085556081  0.088654088            4 
  327000    1.1911431   -3.2811093    334.64164  0.085280745  0.088644326            2 
  328000    1.1922304    -3.298944    335.37969  0.085208254  0.088632282            1 
  329000      1.22421   -3.2986617    336.75701  0.085298129  0.088621309            1 
  330000     1.201801   -3.2898681    337.76654  0.085294581  0.088611711            2 
  331000    1.2283701   -3.2788318     339.3367    0.0854322  0.088602669            1 
  332000    1.1952268   -3.2823685    340.07324   0.08535975  0.088597547            2 
  333000    1.1951008   -3.2613783    342.84617  0.085797338  0.088592934            2 
  334000    1.1868634   -3.2784885    342.04937   0.08534166  0.088584503            3 
  335000    1.1561111   -3.2721734    343.73598  0.085506462  0.088576377            2 
  336000    1.2032162   -3.2942221     345.1471  0.085601958  0.088567869            1 
  337000    1.2313902   -3.2972683    345.34767  0.085397544  0.088561028            1 
  338000    1.2000533   -3.2875726    345.67587  0.085225805  0.088554666            1 
  339000    1.1985194   -3.3010945    349.69155  0.085961542  0.088549717            3 
  340000    1.2007427   -3.3001174    349.25845  0.085602561  0.088542606            3 
  341000    1.2086946   -3.2837304    351.71312  0.085951397  0.088537749            1 
  342000    1.1910451   -3.2479347     353.2599  0.086076974  0.088538605            2 
  343000     1.186493   -3.2992698    352.96151  0.085753525  0.088541827            2 
  344000    1.2066115   -3.2882475    355.58651  0.086140142  0.088543007            3 
  345000    1.2120866   -3.2535361    355.89206  0.085964265  0.088545995            3 
  346000     1.208432   -3.3136814    357.02571  0.085988851  0.088548358            3 
  347000     1.191856   -3.2932963    357.05773  0.085748734  0.088547404            3 
  348000    1.1904586    -3.282402    358.53915  0.085857076  0.088548012            1 
  349000     1.193089   -3.2668813    360.25348   0.08602041  0.088547267            4 
  350000    1.1845931   -3.2969542    362.45684  0.086299249  0.088548211            4 
  351000    1.1862852    -3.302869    361.60604  0.085851386  0.088551472            2 
  352000    1.1826551   -3.2831287    365.09999  0.086434656  0.088552147            4 
  353000    1.1830904   -3.2653244    365.25539  0.086226485  0.088556566            2 
  354000    1.2130079   -3.2878327    367.35868  0.086478032  0.088560927            1 
  355000    1.1853613   -3.3054729    367.03425  0.086158274  0.088568972            1 
  356000    1.2035413   -3.3033331    368.88592  0.086349701  0.088573629            2 
  357000     1.180934   -3.2704289      370.722  0.086536414  0.088576139            2 
  358000    1.1845548   -3.2819999    370.57098   0.08625954  0.088577638            1 
  359000    1.2009321   -3.2515449    373.86673  0.086784293  0.088580029            4 
  360000    1.2107234   -3.2716435    374.42506  0.086672466  0.088585966            3 
  361000    1.2140437   -3.2836138    375.07411  0.086582204   0.08859034            3 
  362000    1.2010588   -3.3026633     374.6753   0.08625122  0.088596102            1 
  363000    1.1756031    -3.305368    376.06593  0.086332858  0.088598213            2 
  364000     1.163224   -3.2891045     375.9097  0.086059914  0.088602432            2 
  365000     1.204904   -3.2782199    377.57475  0.086204281  0.088603674            3 
  366000    1.1890223   -3.2838387    377.64387  0.085984488  0.088605144            2 
  367000    1.1771998    -3.262154    381.13496  0.086542907  0.088607071            2 
  368000    1.1929877    -3.321339    378.98283  0.085820386  0.088608471            2 
  369000    1.1691182   -3.2901408    379.60449  0.085728206  0.088605777            3 
  370000    1.2193718   -3.2992873    381.95832  0.086026649  0.088602284            2 
  371000    1.1910509   -3.3105955     381.4769  0.085686635  0.088600626            1 
  372000    1.1940291   -3.3028911    384.46199  0.086124997  0.088598229            1 
  373000     1.184928   -3.3107013    387.40145  0.086550816  0.088597478            1 
  374000    1.2222322   -3.2825439    386.79434  0.086184122  0.088596029            2 
  375000    1.1584442   -3.2709838    386.85156  0.085967014  0.088592508            1 
  376000    1.1731492   -3.2941925    388.34569  0.086069524  0.088589392            4 
  377000    1.1877868   -3.2972782    388.54223  0.085884667  0.088583105            2 
  378000    1.1804631    -3.277175    388.77196  0.085708105  0.088575182            1 
  379000    1.1873064   -3.2771304    390.33525  0.085825692  0.088569005            4 
  380000     1.177468   -3.3403711    390.30725  0.085593696  0.088562769            3 
  381000    1.1755806   -3.3173126    391.65762  0.085664397  0.088555463            1 
  382000    1.1895866   -3.2566185    394.06632  0.085965602   0.08854957            2 
  383000    1.1730021   -3.3004384    391.50408  0.085183656  0.088541182            1 
  384000     1.189667   -3.2644149    395.21251  0.085766604  0.088532057            2 
  385000     1.175415   -3.2668006    397.40407  0.086018196  0.088524492            4 
  386000    1.1982036   -3.2894559    396.72711  0.085649204  0.088514395            1 
  387000    1.1859975    -3.280952     396.0552  0.085283204  0.088505379            2 
  388000    1.1962582   -3.2883954    398.41199  0.085569586  0.088496626            1 
  389000    1.1903287   -3.3029663    400.46358  0.085789113  0.088487199            3 
  390000    1.2227174   -3.2568527    400.32164  0.085538813  0.088476291            1 
  391000    1.1914501   -3.3122486    401.45167  0.085560885  0.088467532            1 
  392000    1.1604592   -3.3286437    402.85962  0.085641925  0.088457568            3 
  393000    1.1803045   -3.2956089    403.83222  0.085630243   0.08844754            1 
  394000     1.216609   -3.2909917    406.61054  0.086000538   0.08843819            1 
  395000    1.1927841   -3.3072895    406.11223  0.085677686  0.088429345            2 
  396000     1.186455    -3.312734    408.80737  0.086028487  0.088422254            1 
  397000    1.1873636   -3.2697129    408.27197  0.085699405  0.088415353            2 
  398000    1.1930657   -3.2979571    411.81848   0.08622665  0.088409156            1 
  399000    1.2084928   -3.2824689    411.58485  0.085961748  0.088402989            3 
  400000    1.1690123   -3.3070293     410.9097  0.085606188  0.088395151            1 
  401000    1.1673327    -3.287993    410.83716  0.085377631  0.088385674            2 
  402000    1.2197639   -3.3236138    412.31619  0.085471847   0.08837633            2 
  403000    1.1925214   -3.2565458     414.7784    0.0857689  0.088364128            2 
  404000    1.1798969    -3.297723    413.47785  0.085288334  0.088353001            2 
  405000    1.1614312   -3.2839196    416.33854  0.085666367  0.088341151            1 
  406000    1.1919676   -3.3335227    416.00132  0.085386149  0.088330335            2 
  407000    1.1972157   -3.3204564    417.52983  0.085489317  0.088319643            5 
  408000    1.1941638   -3.3145311    419.06802  0.085593957  0.088310735            2 
  409000    1.1601307   -3.2696005    419.16763  0.085404977  0.088299712            1 
  410000    1.1872437    -3.315508    418.70436  0.085102513  0.088287093            2 
  411000    1.1776602   -3.2675275    422.06292  0.085576424    0.0882746            2 
  412000    1.2016655   -3.2928256    421.20464  0.085195113   0.08826187            2 
  413000    1.1596328   -3.3164278    423.27621  0.085406822  0.088248739            2 
  414000    1.1887435   -3.3062536    424.54605  0.085456129  0.088236839            2 
  415000    1.1960942   -3.2797134    427.13175  0.085769427  0.088225118            1 
  416000    1.1921809   -3.2956388    426.10394  0.085357359  0.088212402            1 
  417000    1.2005953   -3.2938255    426.88086  0.085307925  0.088201431            5 
  418000    1.2168276   -3.3020418    426.94104  0.085115837  0.088189098            1 
  419000    1.1708432   -3.3110752    427.22176  0.084968529  0.088176311            1 
  420000     1.161756   -3.2797265    429.44567  0.085207475  0.088161993            1 
  421000    1.1731821    -3.301485    429.82848  0.085080856  0.088150935            1 
  422000     1.196483   -3.2977432    430.90028  0.085090893  0.088137471            3 
  423000    1.2098137   -3.2866216     432.3476  0.085174861  0.088123911            1 
  424000    1.1919824   -3.3011188    432.85744  0.085074182    0.0881085            1 
  425000    1.2077071   -3.3056172    434.53123  0.085202202  0.088093527            3 
  426000     1.197184   -3.3131802    437.50773  0.085584454   0.08808171            1 
  427000    1.1931723   -3.3168644    437.39201  0.085361439  0.088068564            2 
  428000    1.1935686    -3.281057    437.65297  0.085212805  0.088056755            1 
  429000    1.1952863   -3.3121254    439.62545   0.08539733  0.088044582            1 
  430000    1.1905983   -3.3186312     439.8891  0.085249825  0.088030428            3 
  431000    1.1727668   -3.2794906     441.2722  0.085319451  0.088017862            2 
  432000    1.1630916   -3.2886368    441.62501   0.08519001  0.088004821            3 
  433000    1.1733654   -3.2879429    443.77856  0.085407728  0.087991113            2 
  434000    1.1655665   -3.3101018    444.83687  0.085414145  0.087978863            1 
  435000    1.1906497    -3.318558    447.72365  0.085770814  0.087969001            3 
  436000    1.1811093   -3.3138013    446.75732  0.085389396  0.087958386            2 
  437000    1.2013857   -3.3053745    446.94975  0.085230693  0.087946111            1 
  438000    1.1636408   -3.3140016    449.51404  0.085523979  0.087932811            2 
  439000     1.179458   -3.3223456    448.29103  0.085097006  0.087918554            2 
  440000    1.1812105   -3.3066522    448.72396  0.084985599  0.087904824            3 
  441000    1.1709041   -3.2792044    452.40405  0.085488294  0.087890965            1 
  442000     1.167636    -3.264506    451.98409  0.085215704  0.087876968            2 
  443000    1.1713677   -3.3191562    453.78632  0.085362363  0.087865177            2 
  444000    1.1689177   -3.2812772    455.11522  0.085419523  0.087855204            1 
  445000    1.2000259   -3.2630882    453.63646  0.084950648  0.087844281            4 
  446000     1.170236    -3.304835    457.04819  0.085397643  0.087832027            3 
  447000    1.1839353   -3.2976477    457.00153  0.085197899  0.087820215            3 
  448000    1.1755951   -3.2930275    459.55752   0.08548317  0.087809548            2 
  449000    1.1806798   -3.3131362    459.23737  0.085233365  0.087799667            3 
  450000    1.1729137   -3.3291493    460.41737  0.085262476  0.087785976            3 
  451000    1.1774812   -3.3078761    461.58027  0.085288298  0.087772631            3 
  452000    1.1800841   -3.3325793    461.04129  0.085000237  0.087759219            1 
  453000    1.1710775   -3.2744055    462.34878  0.085053123  0.087746918            1 
  454000    1.1898534   -3.3568042    462.24236  0.084846248  0.087731795            2 
  455000    1.1778944   -3.3296207    463.29699  0.084852929  0.087718285            2 
  456000    1.1662742   -3.3006089    465.79894  0.085124075  0.087705389            2 
  457000    1.1668207   -3.3235773    466.70264  0.085102596  0.087690124            3 
  458000    1.1984522   -3.3238157    468.93868  0.085323632  0.087676251            2 
  459000    1.1739145   -3.3249551    469.98232  0.085327218  0.087664273            1 
  460000    1.1709447   -3.3128311    470.82787  0.085294903  0.087651925            1 
  461000    1.1582293   -3.3138331    472.46882  0.085406512  0.087638854            6 
  462000    1.1712862   -3.3045224      472.855  0.085291306   0.08762564            2 
  463000    1.1785431   -3.2755277    472.44466  0.085033235  0.087614108            2 
  464000    1.1738555   -3.3273631    471.73063  0.084721736  0.087604361            2 
  465000    1.1841349   -3.3096765    478.22489  0.085703385  0.087595322            1 
  466000    1.1766032   -3.3004156    477.13366  0.085324331  0.087585073            2 
  467000    1.1734219    -3.324931    476.72104  0.085067995  0.087574278            1 
  468000    1.1796407   -3.3087782    479.42027  0.085366857  0.087562204            1 
  469000    1.1527958   -3.3134806    481.02243  0.085469515  0.087550994            1 
  470000    1.1842335   -3.3327748    480.68132  0.085227185  0.087539796            1 
  471000    1.2080483    -3.323822    480.96948  0.085097219    0.0875276            2 
  472000    1.1546428   -3.3499853    480.36534  0.084810264  0.087514002            1 
  473000    1.1770661   -3.3097308    482.49684   0.08500649  0.087500972            4 
  474000    1.1784494   -3.3236993    484.27061  0.085138995  0.087487632            1 
  475000    1.1839102   -3.3074039    485.59614  0.085192305   0.08747613            2 
  476000    1.1796769   -3.3298386    487.25326  0.085303442   0.08746305            1 
  477000    1.1519479    -3.311044    485.28284   0.08478037  0.087450255            1 
  478000    1.2035005   -3.3135987    485.61689  0.084661243   0.08743688            2 
  479000    1.1542208   -3.3096712    486.49149  0.084636655   0.08742337            3 
  480000    1.1615846    -3.309062    488.54304    0.0848165  0.087409426            2 
  481000    1.1666722   -3.3184183    488.80275  0.084685161  0.087394634            2 
  482000    1.1835536   -3.3287418    489.33168  0.084600914  0.087379243            2 
  483000    1.2036649   -3.3295043    492.40456  0.084955929  0.087365552            4 
  484000    1.1883918   -3.3025019    493.43926   0.08495855   0.08735113            2 
  485000    1.1961424   -3.3189643    490.99318  0.084363089  0.087338325            3 
  486000    1.1761255   -3.2974004    495.52147  0.084965959  0.087324336            2 
  487000    1.1703097   -3.3006251    494.24101  0.084572384  0.087309213            1 
  488000    1.1974637   -3.3087197    496.96508  0.084864255  0.087293069            1 
  489000    1.1723034   -3.3349598    494.63427  0.084293502  0.087277435            1 
  490000    1.1607199   -3.3329232    495.87122  0.084331841  0.087260567            2 
  491000    1.1568086   -3.3169168    496.33162  0.084238224  0.087243316            1 
  492000    1.1860722   -3.3225474    499.99174  0.084686948  0.087227126            2 
  493000    1.1801814   -3.3269047    499.85284   0.08449169  0.087212052            2 
  494000    1.1615188    -3.315381    499.93102  0.084333843  0.087195797            2 
  495000    1.1622763   -3.2811964    502.67435  0.084625312  0.087177896            2 
  496000    1.1786935   -3.3296706    502.49168  0.084424005  0.087162066            3 
  497000    1.1671007   -3.3067124     503.3883  0.084404477   0.08714591            2 
  498000    1.1549566   -3.3126364    505.88194  0.084652266  0.087128396            2 
  499000    1.1628034   -3.3222845    504.97524  0.084331202  0.087113093            1 
  500000    1.1877435   -3.3479701    505.97734  0.084329556  0.087098402            3 
  501000    1.1666221   -3.3246196    508.77768  0.084627027  0.087083286            2 
  502000    1.1762274   -3.3597586    508.82519  0.084466334  0.087068571            1 
  503000    1.1524909    -3.356078    509.26379  0.084371072  0.087053707            5 
  504000    1.1730292   -3.3173816    513.91637  0.084972945  0.087042358            4 
  505000    1.1676015   -3.3206652    513.14867  0.084677998  0.087029706            2 
  506000    1.1717751   -3.3246255    515.29162  0.084863574  0.087018201            1 
  507000     1.164976   -3.3149229    516.37078  0.084873566  0.087006546            1 
  508000    1.1775177   -3.3526537    515.88904  0.084627467   0.08699501            1 
  509000    1.1587434   -3.3476936     518.4544  0.084881206  0.086982304            5 
  510000    1.1632755   -3.3106346    516.88638  0.084458559  0.086969511            2 
  511000    1.1564329   -3.3249073    519.59231  0.084734558  0.086956264            2 
  512000    1.1518127   -3.3310642    519.00161  0.084472918   0.08694394            2 
  513000    1.1590341   -3.3282737    520.66802  0.084578951  0.086929824            2 
  514000     1.161174   -3.3398242    520.11781  0.084325196  0.086913613            1 
  515000    1.1694161   -3.3310577    524.52806  0.084875091  0.086899404            1 
  516000    1.1597689    -3.360356    522.05712  0.084311551  0.086885325            1 
  517000    1.1796377   -3.3395572    525.85013  0.084759853  0.086871127            2 
  518000    1.1649251   -3.3194382    527.65298  0.084886258  0.086856872            1 
  519000    1.1516783    -3.316603    528.07036  0.084789718  0.086841839            2 
  520000    1.1539278   -3.3479356    525.43215   0.08420387  0.086826623            2 
  521000      1.17183   -3.2940261    529.81489  0.084743264   0.08681193            2 
  522000    1.1558525   -3.3150169    526.88321  0.084112901  0.086799499            2 
  523000    1.1858191   -3.3341361    530.22698   0.08448486  0.086784552            1 
  524000    1.1578201   -3.3047547    531.07536  0.084458549  0.086769815            2 
  525000     1.155239   -3.3307849     532.5135  0.084525952  0.086755212            4 
  526000    1.1665755   -3.3052708    533.26761  0.084484729  0.086741345            1 
  527000    1.1896873     -3.32171    532.24154  0.084162167  0.086725591            1 
  528000    1.1655694   -3.3309192    533.46034   0.08419513  0.086708588            3 
  529000    1.1777808   -3.3105833    535.09146   0.08429292  0.086693407            2 
  530000    1.1658243   -3.3163763    536.02637  0.084280876  0.086678302            1 
  531000    1.1638673    -3.317573    535.98135   0.08411509  0.086661482            2 
  532000    1.1541543   -3.3268291    539.03513  0.084435328   0.08664479            2 
  533000     1.171285   -3.3590859    535.98783  0.083800473   0.08662763            1 
  534000    1.1375017   -3.3305899    537.49696  0.083879051  0.086610393            2 
  535000    1.1640753   -3.3524597    538.44957  0.083870649  0.086592724            4 
  536000    1.1670576   -3.3341115    539.93611  0.083945291  0.086573876            2 
  537000    1.1449884     -3.33934    538.63556  0.083587144  0.086555757            1 
  538000    1.1610794   -3.3335346    540.28269   0.08368691  0.086539142            1 
  539000    1.1593685   -3.3447593    543.84765  0.084082815  0.086521557            1 
  540000    1.1670376   -3.3569126      545.459  0.084175771   0.08650521            3 
  541000    1.1634094   -3.3555366    545.13068  0.083969605  0.086490442            2 
  542000    1.1675162   -3.3598457    546.04664   0.08395551  0.086475727            5 
  543000    1.1734325   -3.2947697    547.94562  0.084092329  0.086460247            2 
  544000    1.1507552     -3.32153    548.42579  0.084011303  0.086445244            2 
  545000    1.1322405   -3.3309162    549.36616  0.084000942    0.0864308            2 
  546000    1.1760699    -3.322774    550.44712  0.084012076  0.086415854            2 
  547000    1.1707209   -3.3380708    553.90456  0.084385216  0.086401634            1 
  548000    1.1622434   -3.2887869    555.37233  0.084454429  0.086388122            2 
  549000    1.1682111   -3.3316258    551.94563  0.083780453  0.086374506            1 
  550000    1.1872246   -3.3559697    552.46319  0.083706545  0.086358546            2 
  551000    1.1687767   -3.3290392    553.68064  0.083738754  0.086342001            2 
  552000    1.1680853   -3.3432847    554.73471  0.083746181  0.086325345            2 
  553000    1.1602654   -3.3113403    557.96489  0.084081508  0.086308578            2 
  554000    1.1853396   -3.3225776     560.7807  0.084353295  0.086292215            1 
  555000    1.1623181   -3.3352407    559.90255  0.084069451  0.086277974            3 
  556000    1.1655856   -3.3029608    562.34266  0.084283971  0.086261146            2 
  557000    1.1719632   -3.3197009    561.34183  0.083982919  0.086246055            1 
  558000    1.1600411   -3.3311338    559.91261  0.083618968  0.086230324            1 
  559000    1.1448449   -3.3604552    563.03252  0.083934484  0.086213386            2 
  560000    1.1628086    -3.342608    564.11222  0.083945271  0.086195458            1 
  561000     1.153934   -3.3349496    563.19749  0.083659758  0.086179082            2 
  562000    1.1434387   -3.3184307     566.1379  0.083946901  0.086161902            4 
  563000    1.1839371   -3.3292692    567.51503  0.084001632  0.086145856            1 
  564000    1.1749152   -3.2973565    569.87146  0.084200865  0.086128559            4 
  565000     1.162335   -3.3256638    568.01456  0.083777959  0.086113061            1 
  566000    1.1826323     -3.31916    568.05289  0.083635585  0.086096192            2 
  567000    1.1729323   -3.3157839    572.25558  0.084105759  0.086080412            1 
  568000    1.1636993   -3.3380485      569.067  0.083489876  0.086064102            2 
  569000    1.1510262   -3.3521803    573.35302  0.083970859  0.086047683            2 
  570000    1.1431339   -3.3499576    573.63306  0.083864482  0.086032666            3 
  571000    1.1674685   -3.3223991    574.37117  0.083825331  0.086018463            2 
  572000    1.1675633   -3.3509755    576.33544  0.083964953  0.086004394            1 
  573000    1.1400355   -3.3274983    577.73987  0.084022669  0.085988907            1 
  574000     1.196336   -3.3229743    574.27201  0.083372823  0.085973893            2 
  575000    1.1443605   -3.3268067    578.01376   0.08377011  0.085956955            2 
  576000    1.1583323   -3.3175422    580.02775  0.083916052  0.085941699            3 
  577000    1.1349429   -3.3264816    579.84272  0.083743894  0.085927402            2 
  578000    1.1306666   -3.3013998    581.71619  0.083869117  0.085912086            1 
  579000     1.168509   -3.3276892    583.21371  0.083939796  0.085896805            1 
  580000    1.1476018   -3.3497248    582.41482   0.08368029  0.085880973            4 
  581000    1.1583089   -3.3013308    586.82657  0.084169043  0.085866224            2 
  582000    1.1480652   -3.3167185    585.87841  0.083888661  0.085852494            2 
  583000    1.1404641   -3.3463451    586.53469  0.083838578  0.085837728            3 
  584000    1.1751354   -3.3129983    587.29514  0.083803531  0.085821955            1 
  585000     1.187442   -3.3376846    587.82963  0.083736415  0.085808555            1 
  586000    1.1245933   -3.3226054    587.94052  0.083609289  0.085794741            2 
  587000    1.1456699   -3.3685911    586.31124  0.083235554  0.085780433            1 
  588000    1.1682203   -3.3918471    591.70376  0.083858242  0.085765589            1 
  589000    1.1603594   -3.3367985    591.01261  0.083618083  0.085753179            1 
  590000    1.2004162   -3.3163305    593.64735  0.083848495  0.085740405            2 
  591000    1.1617168   -3.3638405    592.14428  0.083494681  0.085727731            1 
  592000    1.1300576   -3.2965999    596.06392  0.083905395  0.085715655            3 
  593000    1.1420913   -3.3151085    594.63202  0.083562679  0.085703606            1 
  594000    1.1719439   -3.3581766    595.82172  0.083588906  0.085689252            2 
  595000    1.1362751   -3.3460334    598.44396   0.08381568  0.085674291            2 
  596000    1.1423368   -3.3337032    599.55399  0.083830256  0.085659545            2 
  597000    1.1299696    -3.348403    599.84045  0.083729823  0.085646306            1 
  598000    1.1819478   -3.3639413     597.9548  0.083327035  0.085633172            2 
  599000    1.1837531   -3.3468773    603.80892  0.084002354  0.085620508            1 
  600000    1.1484789   -3.3687062    601.87124  0.083593227  0.085608828            1 
  601000    1.1600649   -3.3344757    605.85098  0.084005959  0.085597545            3 
  602000    1.1667831   -3.3206975    606.26802  0.083924144   0.08558644            4 
  603000    1.1692029   -3.3538035     604.6222  0.083557518  0.085574938            1 
  604000    1.1443209   -3.3487651    607.48028  0.083813504  0.085562927            2 
  605000    1.1643562    -3.338033    607.74779  0.083711816  0.085549047            1 
  606000    1.1471535   -3.3457166    607.10632  0.083485467  0.085536459            2 
  607000      1.17179   -3.3742463     611.1314  0.083900522  0.085525243            3 
  608000    1.1317916   -3.3332053    613.40768  0.084074518  0.085514182            3 
  609000    1.1449114   -3.3272585    613.94914  0.084010555  0.085504846            1 
  610000    1.1473519   -3.3056772    612.81618  0.083718057  0.085495037            1 
  611000    1.1806916   -3.3237636    616.18318  0.084040259  0.085485845            2 
  612000    1.1804209   -3.3112465    620.20749  0.084450911  0.085476545            2 
  613000    1.1442174   -3.3149054    618.61681  0.084096902  0.085466891            2 
  614000    1.1498905   -3.3527639    618.88977  0.083996983  0.085457188            1 
  615000    1.1830896   -3.3363474    618.79039  0.083846936  0.085447288            3 
  616000    1.1559687   -3.3315884    620.77157  0.083978838  0.085436429            1 
  617000    1.1848855   -3.3542053    619.72639  0.083701566  0.085428151            2 
  618000    1.1726783    -3.330333    623.52827  0.084078785  0.085419465            2 
  619000    1.1333596   -3.3658103    623.12525  0.083888698  0.085409212            2 
  620000    1.1596463   -3.3671237    624.48363  0.083935971  0.085398665            3 
  621000    1.1601419    -3.372466    625.22365  0.083900114  0.085389343            4 
  622000    1.1571772    -3.315779    624.65037   0.08368842  0.085381775            2 
  623000     1.132953   -3.3613587    628.42824  0.084059423  0.085372718            2 
  624000     1.132063   -3.3458608    627.06136  0.083742169  0.085363465            1 
  625000    1.1592874   -3.3497371    627.25443  0.083633924  0.085355092            1 
  626000    1.1564712   -3.3613669    628.36216  0.083647785  0.085344614            5 
  627000    1.1547519   -3.3352504    634.58979  0.084342077  0.085336151            2 
  628000    1.1591316   -3.3309524    634.36343  0.084177737  0.085328427            1 
  629000    1.1442567   -3.3783144    631.59668  0.083677355  0.085319128            2 
  630000     1.157701   -3.3571562    634.48912  0.083927133  0.085309892            2 
  631000    1.1361062    -3.361393     634.9045  0.083848983  0.085301855            2 
  632000    1.1451565   -3.3528654    635.07694  0.083739048  0.085291377            3 
  633000    1.1612314   -3.3430406    635.74102  0.083694184  0.085278643            1 
  634000    1.1303298   -3.3561896    635.51439  0.083532386  0.085268304            1 
  635000    1.1428393   -3.3604037     638.1544  0.083747297  0.085257797            2 
  636000    1.1481531   -3.3529911    637.98235  0.083593075   0.08524785            2 
  637000      1.13946   -3.3582595    639.48455  0.083658366  0.085236557            3 
  638000     1.157197    -3.331752    639.26472  0.083498527  0.085224759            1 
  639000    1.1440895   -3.3500121     637.9661    0.0831985  0.085212068            2 
  640000    1.1451402   -3.3572236    640.84079  0.083442811  0.085198725            3 
  641000    1.1648739   -3.3554558    644.15327  0.083743275  0.085184991            1 
  642000     1.129561   -3.3584876      642.482  0.083395898  0.085172673            3 
  643000    1.1471131   -3.3184373    644.06217  0.083470991  0.085159561            1 
  644000    1.1569187   -3.3246203    645.72722  0.083556835  0.085146335            1 
  645000    1.1385788   -3.3639284     647.6369  0.083674019  0.085134746            2 
  646000    1.1743808   -3.3630606    647.82555  0.083568827  0.085123643            5 
  647000    1.1192599    -3.357538    646.95997  0.083328177  0.085111515            3 
  648000    1.1714941   -3.3634147    648.60715  0.083411413   0.08510226            2 
  649000    1.1301972    -3.335944    651.42633   0.08364488   0.08509167            2 
  650000    1.1399813   -3.3604566    652.80743   0.08369326    0.0850807            6 
  651000     1.134354   -3.3533139    654.18808  0.083741433  0.085069487            2 
  652000    1.1650599    -3.353513    652.00208  0.083333599  0.085057739            2 
  653000    1.1484736   -3.3517452    655.68449  0.083675918  0.085046412            5 
  654000    1.1335064   -3.3412824    655.17258  0.083482744  0.085035788            2 
  655000    1.1248609   -3.3738745    655.17939  0.083356156  0.085025119            2 
  656000    1.1639201   -3.3762139    658.50667  0.083651762  0.085013625            2 
  657000    1.1579197   -3.3366952    656.06352   0.08321455  0.085002419            3 
  658000    1.1252144    -3.349371    657.97686  0.083330402  0.084989525            2 
  659000    1.1406194   -3.3241497    660.95773  0.083580896  0.084977561            3 
  660000    1.1475709   -3.3359091    659.61771  0.083285064  0.084963736            2 
  661000    1.1659505   -3.3242149    660.26647  0.083240856  0.084950513            2 
  662000    1.1475438   -3.3332497    659.91857   0.08307132    0.0849369            2 
  663000    1.1442792   -3.3214566    661.29642  0.083119208  0.084922837            3 
  664000    1.1373013   -3.3703984    664.76735  0.083429637  0.084909263            1 
  665000    1.1365666   -3.3551995    660.97992  0.082829563  0.084894957            4 
  666000    1.1422665   -3.3765156    664.36511  0.083128767  0.084880604            1 
  667000    1.1535449   -3.3413217    665.22754  0.083111887  0.084866455            2 
  668000    1.1740447   -3.3674304     665.5944  0.083033234  0.084851841            2 
  669000    1.1276456   -3.3623829    669.32905  0.083374322  0.084839389            5 
  670000    1.1331876   -3.3732735    667.06574  0.082968375  0.084825015            2 
  671000    1.1605553   -3.3368059    667.33935  0.082878707  0.084810935            2 
  672000    1.1173625   -3.3356599    670.11398  0.083099451  0.084797593            1 
  673000      1.11215    -3.346237    670.24352  0.082992016  0.084783039            1 
  674000    1.1490854   -3.3662737     669.8927  0.082825507  0.084769592            2 
  675000    1.1514665   -3.3407959    672.86655  0.083069944  0.084754954            1 
  676000    1.1204157   -3.3836072    671.45017  0.082772456  0.084741438            1 
  677000    1.1315905   -3.3625221    670.74634  0.082563557  0.084724936            2 
  678000     1.160109   -3.3463355    672.55399  0.082663961  0.084709264            8 
  679000     1.141212   -3.3636459    674.06638  0.082727832   0.08469266            3 
  680000    1.1581397   -3.3337775    673.32183   0.08251493  0.084676291            2 
  681000    1.1344686   -3.3490918    676.86212  0.082826985  0.084660403            2 
  682000    1.1492972   -3.3503381    677.67355  0.082804686  0.084643527            2 
  683000    1.1731212   -3.3437318    675.66886  0.082438856  0.084627455            1 
  684000    1.1198899   -3.3663449    675.54402  0.082303121  0.084610265            3 
  685000    1.1214962   -3.3601122     678.7425  0.082572081  0.084594201            2 
  686000    1.1578584    -3.344207    682.47038  0.082904565  0.084578617            3 
  687000    1.1476559   -3.3621784    678.66293  0.082322044  0.084561831            1 
  688000    1.1292667   -3.3648641    678.43888  0.082175252    0.0845463            2 
  689000    1.1369292   -3.3855202    681.15438   0.08238442  0.084528753            3 
  690000      1.14006   -3.3447862    680.83708  0.082226701  0.084512137            4 
  691000    1.1627677   -3.3496933    684.52892  0.082552933  0.084495038            2 
  692000    1.1262918   -3.3712185    680.72446  0.081975488  0.084477472            8 
  693000    1.1072565   -3.3222321    688.89618  0.082839849  0.084459467            2 
  694000    1.1467053   -3.3739312    684.18694  0.082155012  0.084442764            3 
  695000    1.1537201   -3.3707853    686.85973  0.082357281  0.084424867            4 
  696000    1.1586826   -3.3637563    686.22098  0.082162473  0.084407251            2 
  697000    1.1323785   -3.3734359     689.0603  0.082384062  0.084389234            3 
  698000    1.1346554   -3.3526824      692.298  0.082652579  0.084371838            2 
  699000    1.1328544   -3.3582834    690.54209  0.082324998  0.084354194            3 
  700000    1.1313063   -3.3558817    692.03409  0.082385011  0.084337076            2 
  701000    1.1423121   -3.3648154    692.55415  0.082329309  0.084322193            1 
  702000    1.1386413   -3.3545721    691.58822  0.082097367  0.084305567            4 
  703000    1.1310917   -3.3765604    695.84217  0.082484847   0.08429002            1 
  704000    1.1339188   -3.3458967    695.90749  0.082375413  0.084274423            2 
  705000    1.1351038   -3.3802294    692.91087  0.081904359  0.084258676            2 
  706000    1.1531097   -3.3639628    696.83622  0.082251679  0.084241174            5 
  707000    1.1337891   -3.3778712    696.84935  0.082136888  0.084223273            2 
  708000    1.1712257   -3.3882258    698.35551  0.082198154  0.084206492            6 
  709000    1.1406313   -3.3665573    699.64073  0.082233278  0.084189887            1 
  710000    1.1227887   -3.3908385    701.22428  0.082303319  0.084173817            2 
  711000    1.1181905   -3.3815723    698.16241  0.081828694  0.084156652            3 
  712000    1.1282524   -3.3660213    699.97822   0.08192629  0.084139886            4 
  713000     1.148926   -3.4001169    701.04102  0.081935602  0.084123318            2 
  714000    1.1193333   -3.3650184    704.66602  0.082243933  0.084106714            2 
  715000     1.144698   -3.3797379    701.71907   0.08178544  0.084087875            1 
  716000    1.1419929   -3.3588898    706.52312  0.082230345  0.084070036            2 
  717000     1.127024   -3.3883234    702.22692  0.081616332  0.084051223            1 
  718000    1.1405492   -3.3882989      704.024  0.081711235   0.08403287            2 
  719000    1.1477177   -3.3667742    706.57488  0.081893241  0.084014816            2 
  720000    1.1417081   -3.3455356    706.37375  0.081756221  0.083998491            3 
  721000    1.1342086   -3.3882466    710.51447  0.082121414  0.083980696            3 
  722000    1.1477939   -3.3718282     708.9645  0.081828774  0.083963506            2 
  723000    1.1340452   -3.3579642    711.47737  0.082005229  0.083945966            1 
  724000     1.137413    -3.375651    713.01685  0.082069159  0.083928493            2 
  725000    1.1379898   -3.3767579    712.96864  0.081950419  0.083911739            2 
  726000    1.1446977      -3.3744    713.41668  0.081888966  0.083894289            2 
  727000     1.142033   -3.3615796    711.93522  0.081606513  0.083876907            4 
  728000    1.1433172    -3.391707    711.68358  0.081465611  0.083859839            2 
  729000    1.1290103   -3.3740721    715.01219  0.081734361  0.083841551            2 
  730000    1.1427764   -3.3772777    716.05988  0.081741995  0.083822141            2 
  731000    1.1452483   -3.3596821     715.6631   0.08158494  0.083803291            5 
  732000    1.1265516   -3.4046017    717.54563  0.081687799  0.083784868            2 
  733000    1.1460329   -3.3848344    719.23865  0.081768832  0.083766869            2 
  734000    1.1125931   -3.3668054    719.58679  0.081696956  0.083749179            1 
  735000    1.1292983   -3.3769117    718.50228  0.081462843   0.08373101            2 
  736000    1.1260764   -3.3492911    718.84918  0.081391438  0.083714057            2 
  737000    1.1391453   -3.3879417    721.99826  0.081637071  0.083697013            2 
  738000    1.1355944   -3.3843704    724.51291  0.081810401  0.083679026            2 
  739000      1.13812   -3.3823705    722.36271  0.081457229  0.083661078            2 
  740000    1.1391241   -3.3691915    724.51433  0.081589451  0.083642595            5 
  741000    1.1196376   -3.3642221     725.2507  0.081562157  0.083623604            2 
  742000    1.1409005   -3.3386357    728.93864  0.081866424  0.083604762            4 
  743000    1.1336363   -3.3630225    726.91975  0.081529806  0.083585962            2 
  744000    1.1250241   -3.3400159    725.99352  0.081316478  0.083566424            3 
  745000    1.1262072   -3.3608889    725.85859  0.081192235  0.083547883            3 
  746000    1.1383619   -3.3503863    729.37959  0.081476719  0.083528992            2 
  747000    1.1424515   -3.3634527    728.72811   0.08129497   0.08350925            1 
  748000    1.1382469    -3.371658    729.46376  0.081268244  0.083489384            2 
  749000    1.1240295   -3.3963295    728.46178  0.081048263  0.083469609            1 
  750000    1.1244041    -3.385193    730.22889  0.081136544  0.083449602            2 
  751000    1.1360742   -3.3692049    733.30917  0.081370303  0.083428332            3 
  752000    1.1395283   -3.3899784    731.17269  0.081025342  0.083408266            2 
  753000    1.1267044   -3.3638445    733.40214  0.081164469  0.083387481            1 
  754000    1.1300894   -3.3667363     731.5997  0.080857615  0.083366804            3 
  755000    1.1259619   -3.3585104     733.7129  0.080983764  0.083345167            3 
  756000    1.1306534   -3.3746599    735.25205  0.081046302  0.083324273            2 
  757000    1.1251907   -3.3545887    736.14109  0.081037109  0.083303057            2 
  758000    1.1111009   -3.4069868    733.56992  0.080647529  0.083282564            2 
  759000    1.1367435   -3.3484275    738.78157  0.081113479  0.083261326            2 
  760000    1.1643529   -3.3872131    738.87776  0.081017298  0.083240807            3 
  761000     1.143612   -3.3583664    738.74344  0.080896128  0.083220298            3 
  762000    1.1492615   -3.4010174    737.91392  0.080699248  0.083199757            2 
  763000    1.1218797   -3.3580373    740.00913  0.080822316  0.083178368            2 
  764000    1.1059204   -3.3713914    739.08477  0.080615703  0.083157605            2 
  765000    1.1586415   -3.3752256    741.33025  0.080754929  0.083136526            1 
  766000    1.1473833   -3.4141725    738.74527  0.080368284  0.083115309            7 
  767000    1.1557497   -3.3678909    742.40408  0.080661025  0.083094099            3 
  768000     1.124386   -3.3731081    742.85913  0.080605374  0.083072616            1 
  769000    1.1240416   -3.3810071    745.54727  0.080791858  0.083050951            4 
  770000    1.1287157    -3.383018    743.67007  0.080483774  0.083030442            2 
  771000    1.1116297   -3.3759887     749.0049  0.080955999  0.083010032            2 
  772000    1.1131407   -3.3804337    746.07194  0.080534535  0.082988968            1 
  773000    1.1126319   -3.4004991    750.66662  0.080925681  0.082969182            3 
  774000    1.1286198   -3.3816652    749.94654  0.080743598  0.082949053            1 
  775000    1.1594153   -3.4015784    754.68504  0.081148929  0.082928618            3 
  776000    1.1547145   -3.4142798    752.32687  0.080791115  0.082910076            2 
  777000    1.1245368    -3.379177    752.44106  0.080699384   0.08289029            1 
  778000    1.1272457   -3.4182394     754.9492  0.080864311  0.082870901            2 
  779000    1.1404064   -3.3839603    754.08621  0.080668187  0.082851793            2 
  780000    1.1230947   -3.4110738    756.39717  0.080811664  0.082832231            2 
  781000    1.1308359   -3.3567692    757.33408   0.08080816  0.082813638            1 
  782000    1.1284105    -3.353402    760.69553  0.081063036   0.08279481            1 
  783000    1.1305279   -3.3761506    759.68484  0.080851941  0.082776009            2 
  784000     1.116518   -3.3950387    760.00302  0.080782634  0.082757803            2 
  785000    1.1540841   -3.3984318    762.12677  0.080905177  0.082739502            2 
  786000    1.1307551   -3.3732602    761.64299  0.080750953  0.082721127            1 
  787000    1.1279468   -3.3343291    770.24907  0.081559622  0.082702723            3 
  788000    1.1387454   -3.4054758    764.86408  0.080886641  0.082685357            2 
  789000    1.1277964   -3.3972136    767.91925  0.081106807  0.082668046            1 
  790000    1.1309604   -3.3873706    767.57447  0.080967771  0.082651509            2 
  791000    1.1207971   -3.3667305    770.58253  0.081182315  0.082635376            2 
  792000    1.1220827   -3.3713426    768.01024  0.080809158  0.082618753            4 
  793000    1.1242277   -3.3861369     772.2899  0.081156989  0.082602574            2 
  794000    1.1136483   -3.3837181    771.37693  0.080958956  0.082586968            2 
  795000     1.110811    -3.396085    773.72235  0.081102971  0.082571606            3 
  796000    1.1225543   -3.3831019    772.77329  0.080901726  0.082556864            1 
  797000    1.1098462   -3.4244447    778.10593  0.081357792  0.082541982            3 
  798000    1.1049828   -3.3616445    778.99652  0.081348843  0.082527819            3 
  799000     1.136142   -3.3411873    780.43888  0.081397464  0.082514431            2 
  800000    1.1338731   -3.3979409    779.76686  0.081225715  0.082501399            2 
  801000    1.1166457   -3.3746516    780.76557  0.081228212  0.082488368            2 
  802000    1.1194016   -3.3807423    781.59275  0.081212879  0.082474985            1 
  803000    1.1262861   -3.4317413    780.56367  0.081004947  0.082461463            1 
  804000    1.1361993   -3.3796588    781.52903  0.081004253  0.082447647            3 
  805000    1.0957472   -3.3735415    785.35054  0.081299228  0.082433631            5 
  806000    1.1074617   -3.4019895    784.31253  0.081091039  0.082420407            2 
  807000    1.1180264   -3.3759513    788.21155  0.081393179  0.082406821            1 
  808000     1.126939   -3.3867348    787.78911  0.081248877  0.082393986            1 
[...]
 4800000   0.48066799   -4.4654565    2162.6282  0.037545628  0.036121765           17 
 4801000   0.47577876    -4.463816    2162.9402  0.037543223  0.036112475           13 
 4802000   0.47788888   -4.4717799    2159.8739  0.037482193  0.036103192           22 
 4803000   0.48324166   -4.4575156    2161.8444  0.037508578  0.036093913           14 
 4804000    0.4967941   -4.4650443    2165.5057  0.037564282  0.036084666           10 
 4805000   0.48600709   -4.4685425    2160.5723  0.037470903  0.036075457            9 
 4806000   0.47490986   -4.4705229    2163.8581   0.03752008  0.036066248           29 
 4807000   0.48345058    -4.475831     2158.977  0.037427657  0.036057028           17 
 4808000   0.47821299   -4.4556281     2165.499  0.037532913  0.036047833           13 
 4809000   0.48395918   -4.4611858      2164.32  0.037504679  0.036038618           23 
 4810000   0.48370468   -4.4542075    2160.8445  0.037436668  0.036029404           48 
 4811000   0.49461359   -4.4580986    2161.8032  0.037445493  0.036020206           18 
 4812000   0.48809572   -4.4669268    2164.1889  0.037479026  0.036010999           35 
 4813000    0.4753561   -4.4695305    2160.8459  0.037413358  0.036001778           45 
 4814000   0.46945624   -4.4770012    2168.8174  0.037543578  0.035992553           70 
 4815000   0.48804952   -4.4730003    2165.7005  0.037481837  0.035983328           95 
 4816000   0.47274179   -4.4603459    2165.5257  0.037471029  0.035974094           97 
 4817000   0.49328931   -4.4748091    2165.5519  0.037463703  0.035964901          111 
 4818000   0.49454475   -4.4701579    2160.2263  0.037363815    0.0359557          110 
 4819000   0.46975093   -4.4754676    2156.8193  0.037297145  0.035946463          126 
 4820000   0.47507516   -4.4637792     2160.433  0.037351885  0.035937199          176 
 4821000   0.47571746   -4.4725242    2161.2363  0.037358023  0.035927955          109 
 4822000   0.48974769   -4.4754386    2160.2777  0.037333708  0.035918734          111 
 4823000   0.48460827   -4.4813284    2158.0541  0.037287548  0.035909471          144 
 4824000   0.47064494   -4.4550455    2164.1438  0.037385017  0.035900241           78 
 4825000   0.47973815   -4.4698572    2164.4001  0.037381694  0.035891037           87 
 4826000   0.47502329   -4.4806784    2165.6256  0.037395109  0.035881816           47 
 4827000   0.47727288   -4.4911947     2164.081  0.037360697  0.035872612           84 
 4828000   0.47097464   -4.4901242    2163.2059  0.037337854   0.03586339          119 
 4829000   0.47424604    -4.478089    2161.9439  0.037308344   0.03585416           83 
 4830000   0.47606865   -4.4656525    2165.3226  0.037358913  0.035844972           99 
 4831000   0.48250974   -4.4698953    2163.9141  0.037326883  0.035835784           74 
 4832000   0.47915532   -4.4910986    2159.9564  0.037250904  0.035826579          113 
 4833000   0.48217439   -4.4695316    2164.4829  0.037321244  0.035817375          126 
 4834000   0.47346498   -4.4670748    2162.2578  0.037275165  0.035808174          141 
 4835000   0.47986183   -4.4861278    2162.7626  0.037276157  0.035798952           77 
 4836000   0.48243835   -4.4725672    2165.5228  0.037316012  0.035789792          158 
 4837000   0.47572832    -4.475864    2163.6419  0.037275893  0.035780617           60 
 4838000   0.47602003   -4.4711968    2161.4337  0.037230152  0.035771462          172 
 4839000   0.48791954    -4.465032    2161.4228  0.037222271  0.035762274          196 
 4840000   0.46754469   -4.4921276    2162.5348  0.037233727  0.035753095          129 
 4841000   0.48890481   -4.4682154    2160.9109   0.03719808  0.035743909          125 
 4842000   0.47851199   -4.4662263    2164.3245  0.037249148  0.035734745          118 
 4843000   0.47459777    -4.482057    2164.4626  0.037243834  0.035725568           98 
 4844000   0.48115902   -4.4842875    2161.2975  0.037181693  0.035716449           75 
 4845000   0.47808387   -4.4826042    2160.5778  0.037161641  0.035707275           60 
 4846000   0.48199558   -4.4758861    2163.1842  0.037198792  0.035698105           58 
 4847000   0.47156806   -4.4688665    2160.6592  0.037147707  0.035688914           68 
 4848000   0.46853188   -4.4793666     2159.753  0.037124468  0.035679719           40 
 4849000   0.46989984   -4.4901532    2165.7132  0.037219242  0.035670544           52 
 4850000   0.46773438   -4.4697891    2158.8824  0.037094199  0.035661368           37 
 4851000   0.47881407   -4.4733459    2165.9313  0.037207644  0.035652199           38 
 4852000   0.48465085   -4.4767303    2161.0607  0.037116322  0.035643051           30 
 4853000   0.46836621   -4.4756473    2161.6783  0.037119278  0.035633891           18 
 4854000   0.48279627   -4.4729899    2161.2286  0.037103911  0.035624744           39 
 4855000   0.47082377   -4.4835518    2162.4084   0.03711652  0.035615602           30 
 4856000   0.46901375   -4.4663139    2162.1524  0.037104483   0.03560646           17 
 4857000   0.46773475   -4.4858973    2161.8881  0.037092309  0.035597337           21 
 4858000   0.46684816   -4.4857716    2166.3858  0.037161826   0.03558821           30 
 4859000   0.46974563    -4.493019    2160.1187  0.037046695  0.035579072           20 
 4860000   0.47684868   -4.4743375    2162.1599  0.037074072  0.035569938           20 
 4861000   0.48579076   -4.4813378    2160.8845  0.037044582  0.035560823           19 
 4862000   0.46791501   -4.4668212    2162.2283  0.037059994  0.035551707           25 
 4863000   0.47735135   -4.4766473    2163.2376  0.037069669   0.03554259           36 
 4864000   0.48409224   -4.4726165    2162.8484   0.03705538   0.03553347            9 
 4865000   0.47688402   -4.4756013    2165.4413  0.037092178  0.035524345           28 
 4866000   0.46714457   -4.4622877    2162.7753  0.037038898  0.035515224           21 
 4867000   0.47489506   -4.4865242    2160.5457  0.036993111  0.035506104           77 
 4868000    0.4766192   -4.4614999    2167.0579  0.037096992  0.035497009           47 
 4869000   0.48071186   -4.4796729    2161.8571  0.037000362  0.035487909           53 
 4870000   0.47630035    -4.464251    2160.3539  0.036967041  0.035478814           57 
 4871000   0.47903988   -4.4872909    2162.4119  0.036994661  0.035469698           34 
 4872000   0.47711141   -4.4893271    2162.4958  0.036988502  0.035460586           41 
 4873000   0.47701811   -4.4781634    2167.5352   0.03706709   0.03545146           38 
 4874000   0.47023915   -4.4777785    2166.6673  0.037044647  0.035442347           15 
 4875000   0.46950684   -4.4908379     2160.341  0.036928906  0.035433254           38 
 4876000    0.4885243    -4.501512     2163.003  0.036966828  0.035424135           17 
 4877000   0.47502074   -4.4721941    2161.7845  0.036938426  0.035415005           16 
 4878000   0.47696989   -4.4780739    2167.0877  0.037021451    0.0354059           39 
 4879000    0.4722518   -4.4809387     2159.046  0.036876512  0.035396786           52 
 4880000   0.46619568    -4.503999    2159.6746   0.03687969  0.035387655           61 
 4881000   0.46908682   -4.4832642    2158.8187   0.03685752  0.035378553           28 
 4882000   0.47968193    -4.484913    2164.0306  0.036938935  0.035369462           41 
 4883000   0.47419558   -4.4976645    2157.9174  0.036827043  0.035360365           60 
 4884000    0.4731108   -4.4729193    2160.7287  0.036867471  0.035351287           28 
 4885000   0.45957838   -4.4973042    2161.9695  0.036881089  0.035342193           31 
 4886000   0.47090913   -4.4989567    2159.1193   0.03682493  0.035333089           38 
 4887000   0.45783552    -4.493842    2159.9051  0.036830794  0.035323956           23 
 4888000     0.466514   -4.5045084    2162.0517  0.036859856  0.035314807           35 
 4889000   0.46706132   -4.4788403    2165.3149  0.036907937  0.035305703           25 
 4890000   0.47495285   -4.4862486    2161.6588  0.036838084  0.035296615           21 
 4891000   0.47203077   -4.4950388    2159.3014  0.036790388  0.035287538           24 
 4892000   0.46009605   -4.4844437     2165.266  0.036884471  0.035278471           22 
 4893000   0.46089021   -4.4891168    2157.2057  0.036739657  0.035269408           18 
 4894000   0.45676906   -4.4915223    2162.6682  0.036825164  0.035260313           23 
 4895000   0.46814658   -4.4852919    2158.8894   0.03675331  0.035251249           35 
 4896000   0.46606359   -4.4982624     2162.503  0.036807308  0.035242162           21 
 4897000   0.47111614   -4.5075119    2161.4322  0.036781571   0.03523306           37 
 4898000    0.4644016   -4.4959439    2161.6577  0.036777898  0.035223991           67 
 4899000   0.45718844    -4.504078    2162.8227  0.036790207  0.035214896           57 
 4900000   0.46761728   -4.5120682    2163.1596  0.036788428  0.035205811           32 
 4901000   0.46933474   -4.5087622     2157.579  0.036686034   0.03519672           27 
 4902000   0.46613154   -4.4990544    2159.4231  0.036709899  0.035187631           36 
 4903000   0.46365264    -4.493792    2158.2254  0.036682056  0.035178512           38 
 4904000   0.45597702    -4.475612    2158.9789  0.036687379  0.035169429           34 
 4905000   0.47555367   -4.4923763    2157.1798  0.036649334  0.035160372           42 
 4906000   0.46084696   -4.5020399    2164.7949  0.036771214  0.035151319           46 
 4907000   0.45358553   -4.4926671    2159.6887  0.036677003  0.035142272           22 
 4908000    0.4751644   -4.4922105    2164.2294  0.036746628  0.035133236           34 
 4909000   0.46896615   -4.4934109    2160.3047  0.036672519  0.035124182           68 
 4910000   0.46500402   -4.4956813    2163.0922  0.036712359  0.035115145          138 
 4911000   0.46783017    -4.511223    2164.8142  0.036734104  0.035106106           55 
 4912000   0.45815284   -4.4989114    2159.8262  0.036642003  0.035097046           27 
 4913000   0.47301173     -4.49204    2160.8516  0.036651937  0.035088007           13 
 4914000   0.47158716   -4.4874359    2161.2596  0.036651398  0.035078954           24 
 4915000   0.46656092   -4.4913512     2156.246  0.036558935    0.0350699           31 
 4916000   0.46169752   -4.5012286    2157.5622   0.03657381  0.035060822           26 
 4917000   0.46078548   -4.4995842    2159.0814  0.036592119  0.035051763           65 
 4918000   0.46784893    -4.492903     2154.847  0.036512928   0.03504269           70 
 4919000   0.45821402   -4.5105132    2159.0912  0.036577408  0.035033635           30 
 4920000   0.45386956   -4.5008131      2158.74  0.036564025  0.035024581           51 
 4921000   0.45841481   -4.5202096    2160.4093  0.036584863  0.035015542           61 
 4922000   0.47214042   -4.5099868    2161.0803  0.036588791  0.035006504           50 
 4923000   0.46249533   -4.5076733    2157.0488  0.036513116   0.03499747          129 
 4924000   0.45755828   -4.5035368    2158.4653  0.036529673  0.034988413          138 
 4925000   0.46699145   -4.4906079    2162.9471   0.03659809  0.034979373           95 
 4926000    0.4571975   -4.5119534    2161.9365  0.036573564  0.034970343           29 
 4927000      0.46382   -4.5096578    2158.8865  0.036514555   0.03496131           72 
 4928000   0.46233762   -4.5229546    2159.6391  0.036519872  0.034952268           76 
 4929000   0.45376836   -4.5165237    2159.2288  0.036505524   0.03494323          108 
 4930000   0.46709121   -4.5224134    2161.3649  0.036534227  0.034934161           85 
 4931000   0.46827996   -4.5056664    2161.6094   0.03653095  0.034925126           78 
 4932000   0.45259035    -4.496537    2158.8942  0.036477667   0.03491611           78 
 4933000   0.45581214   -4.5057389    2162.0491  0.036523567  0.034907115           26 
 4934000   0.45498726   -4.4961416    2161.0024  0.036498486  0.034898121           40 
 4935000   0.46071779   -4.5009087    2159.6661  0.036468525  0.034889128           58 
 4936000   0.45739667   -4.5117014    2158.5812  0.036442822  0.034880113           89 
 4937000   0.46709562   -4.5096888    2159.9784  0.036459024  0.034871098           76 
 4938000   0.46112486   -4.5004151    2160.7014  0.036463842    0.0348621          101 
 4939000   0.46896165   -4.5218777    2161.2715  0.036466078  0.034853093           62 
 4940000   0.46249115   -4.5126582    2159.3505  0.036426291  0.034844084           36 
 4941000   0.47036484   -4.5029341    2161.6278  0.036457326  0.034835069           56 
 4942000    0.4529112   -4.4988585    2160.4096  0.036429407  0.034826092           29 
 4943000   0.45462139   -4.5026233    2158.5409  0.036390533  0.034817121           41 
 4944000   0.45832732   -4.4924493    2166.8957  0.036523997  0.034808148           42 
 4945000   0.47099912   -4.4896407    2155.2677  0.036320656  0.034799187           45 
 4946000   0.46610678   -4.5247121    2160.7657  0.036405946  0.034790206           45 
 4947000   0.46128101   -4.5166416    2162.6765  0.036430774    0.0347812           27 
 4948000   0.46025329   -4.5049369    2160.5972  0.036388393  0.034772231           36 
 4949000    0.4638646   -4.5109922    2160.3901  0.036377553  0.034763249           38 
 4950000   0.45062649   -4.5188267    2161.5182  0.036389195   0.03475426           59 
 4951000   0.45925326   -4.5200134    2161.5377  0.036382174  0.034745255           29 
 4952000    0.4696518   -4.5165464    2157.3409  0.036304202  0.034736256           14 
 4953000   0.45526997   -4.5169104    2159.2657  0.036329256  0.034727269           18 
 4954000   0.46596972   -4.5257402     2156.579   0.03627673  0.034718286           13 
 4955000   0.44522773   -4.5179767    2154.0034  0.036226091  0.034709285           11 
 4956000   0.46530814   -4.5232294    2156.5755   0.03626203  0.034700297           30 
 4957000   0.46568607   -4.5197713    2160.1194  0.036314293  0.034691301           22 
 4958000   0.46278706   -4.5189694    2154.0502  0.036204958  0.034682319           41 
 4959000   0.46780357   -4.5144997    2160.4422  0.036305071   0.03467335           44 
 4960000   0.45870203   -4.5174645    2159.4076   0.03628037  0.034664406           43 
 4961000   0.45207853    -4.513962    2153.7226  0.036177561  0.034655418           32 
 4962000    0.4547601   -4.5253594    2160.6184  0.036286081  0.034646454           32 
 4963000   0.45917687    -4.515043    2158.3844  0.036241259  0.034637498            9 
 4964000   0.45540965   -4.5002314    2156.8234  0.036207752  0.034628531           20 
 4965000   0.46077451   -4.5211434    2162.8373  0.036301399  0.034619556           15 
 4966000   0.46218006   -4.5039621    2159.8674   0.03624425  0.034610579           37 
 4967000   0.45416392   -4.5137208    2152.3598  0.036110996  0.034601614           70 
 4968000   0.45678737   -4.5126948    2156.3488  0.036170639  0.034592649           46 
 4969000   0.45757501   -4.5049974    2158.1803  0.036194074  0.034583677           61 
 4970000    0.4640327    -4.513132    2155.8915  0.036148416  0.034574715           89 
 4971000   0.44595291   -4.5041887    2161.0028  0.036226829  0.034565753           87 
 4972000   0.45553485   -4.5340158    2155.8621  0.036133382  0.034556784          189 
 4973000   0.45820599   -4.5193582    2157.9948  0.036161854  0.034547803          100 
 4974000   0.45930869   -4.5199081    2157.0334  0.036138477  0.034538818          168 
 4975000   0.45900968   -4.5178981    2155.4485  0.036104665  0.034529855           99 
 4976000   0.46260111   -4.4989772    2160.6213  0.036184038  0.034520905           54 
 4977000   0.46156499   -4.5078422    2162.6995  0.036211565  0.034511983           30 
 4978000   0.44486211   -4.5016614    2160.1067  0.036160887  0.034503086           55 
 4979000   0.44371631   -4.5131613    2161.4231  0.036175656  0.034494166           57 
 4980000     0.457124   -4.5013387    2162.5246  0.036186824  0.034485253           46 
 4981000    0.4529872   -4.5229188    2159.4878  0.036128753  0.034476345           43 
 4982000   0.44567782   -4.5099082    2160.1564  0.036132684  0.034467433           27 
 4983000   0.45369293   -4.5299351    2158.5121  0.036097935  0.034458531           25 
 4984000   0.46079903   -4.5053345    2159.3456  0.036104627  0.034449617           64 
 4985000   0.46578643   -4.5029206    2163.7772  0.036171468  0.034440715           60 
 4986000   0.45282503   -4.5352469     2161.813  0.036131385  0.034431805           79 
 4987000    0.4474128   -4.5222706    2162.2055  0.036130699  0.034422887           83 
 4988000   0.45193225   -4.5206069    2156.6547  0.036030719  0.034413977           86 
 4989000   0.46439868    -4.525988    2152.4036  0.035952488  0.034405079           76 
 4990000   0.45454789   -4.5268165    2158.5034  0.036047151  0.034396155          111 
 4991000   0.45560394   -4.5187599    2155.5101  0.035989951  0.034387256          113 
 4992000   0.45099174   -4.5246768    2159.5738  0.036050577  0.034378384          112 
 4993000   0.44252504   -4.5265222    2158.0111  0.036017277  0.034369492           51 
 4994000   0.45649843   -4.5306075    2158.7245  0.036021968  0.034360597           65 
 4995000   0.45856614   -4.5118255    2156.9713  0.035985507  0.034351702          105 
 4996000   0.44856869   -4.5247434    2162.8711  0.036076713  0.034342803           52 
 4997000   0.45141544   -4.5176683    2156.5353  0.035963834  0.034333919           81 
 4998000   0.44771841   -4.5232182    2155.3724  0.035937248  0.034324997           56 
 4999000   0.45949729   -4.5377834    2157.3992  0.035963846  0.034316096           81 
 5000000   0.43882319   -4.5324089    2153.8063  0.035896772   0.03430718           73 
 5001000   0.44745223   -4.5259689    2163.0781  0.036044093  0.034298283          134 
 5002000   0.44623011   -4.5378649    2157.9655   0.03595171  0.034289368           60 
 5003000   0.45877879   -4.5201783    2155.1805  0.035898136  0.034280471           36 
 5004000   0.45762269   -4.5534102    2153.2834  0.035859369  0.034271562          107 
 5005000   0.44227327   -4.5201608    2158.0274  0.035931192  0.034262647           79 
 5006000   0.44900921   -4.5360884    2157.7902  0.035920065  0.034253731          111 
 5007000    0.4452693   -4.5485658    2153.8315  0.035847006    0.0342448          127 
 5008000   0.45335406   -4.5336219    2153.6766  0.035837271  0.034235883          118 
 5009000   0.45447461   -4.5284939    2158.4261  0.035909131  0.034226952           77 
 5010000   0.45129307   -4.5265041     2159.299  0.035916484  0.034218048           81 
 5011000   0.44489182    -4.549096    2157.8238  0.035884783  0.034209143          177 
 5012000   0.45077277   -4.5366783    2156.5395   0.03585627  0.034200229          211 
Loop time of 12400.8 on 48 procs for 5000000 steps with 4000 atoms

Performance: 69672.883 tau/day, 403.200 timesteps/s
99.4% CPU use with 48 MPI tasks x no OpenMP threads

MPI task timing breakdown:
Section |  min time  |  avg time  |  max time  |%varavg| %total
---------------------------------------------------------------
Pair    | 833.81     | 888.98     | 940.72     | 103.0 |  7.17
Neigh   | 83.221     | 86.465     | 90.253     |  19.0 |  0.70
Comm    | 813.96     | 857.47     | 911.51     | 106.4 |  6.91
Output  | 14.136     | 14.141     | 14.222     |   0.3 |  0.11
Modify  | 10419      | 10441      | 10461      |  10.7 | 84.19
Other   |            | 113.2      |            |       |  0.91

Nlocal:        83.3333 ave          91 max          71 min
Histogram: 1 0 1 1 4 15 12 5 3 6
Nghost:        2245.83 ave        2267 max        2210 min
Histogram: 1 0 1 7 2 9 10 6 7 5
Neighs:        15079.1 ave       17104 max       12354 min
Histogram: 1 0 0 4 12 11 11 3 3 3
FullNghs:      30159.7 ave       33651 max       25666 min
Histogram: 1 1 0 2 16 9 11 2 4 2

Total # of neighbors = 1447666
Ave neighs/atom = 361.91650
Neighbor list builds = 270536
Dangerous builds = 1

#clear
#
#next RN
#
#jump SELF
Total wall time: 3:26:44
