
units lj                  # Use reduced LJ style units
atom_style atomic         # Uncharged point particles
atom_modify map hash      # Needed for indexing of clusters etc
                          # Used to be able to find where atoms are in relation to each other.

lattice fcc 1.0 spacing 1 1 1
Lattice spacing in x,y,z = 1.5874011 1.5874011 1.5874011
region box block 0 10 0 10 0 10 units lattice
create_box 2 box
Created orthogonal box = (0.0000000 0.0000000 0.0000000) to (15.874011 15.874011 15.874011)
  3 by 4 by 4 MPI processor grid
create_atoms 1 box
Created 4000 atoms
  using lattice units in orthogonal box = (0.0000000 0.0000000 0.0000000) to (15.874011 15.874011 15.874011)
  create_atoms CPU = 0.008 seconds
set type 1 type/fraction 2 0.77 78393
Setting atom values ...
  3073 settings made for type/fraction
mass 1 1.0
mass 2 1.0
pair_style lj/cut  3.5
pair_modify tail  yes
pair_coeff 1  1  1.0  1.0   # Intearaction between 1 and 1 set with epsilon = 1 and sigma = 1
pair_coeff 1  2  1.5  0.8
pair_coeff 2  2  0.5  0.88

write_data data.0
System init for write_data ...
Neighbor list info ...
  update every 1 steps, delay 10 steps, check yes
  max neighbors/atom: 2000, page size: 100000
  master list distance cutoff = 3.8
  ghost atom cutoff = 3.8
  binsize = 1.9, bins = 9 9 9
  1 neighbor lists, perpetual/occasional/extra = 1 0 0
  (1) pair lj/cut, perpetual
      attributes: half, newton on
      pair build: half/bin/atomonly/newton
      stencil: half/bin/3d
      bin: standard
WARNING: Not all mixed pair coeffs generated from mixing. Use write_data with 'pair ij' option to store all pair coeffs. (../write_data.cpp:312)


#############################
#   M E L T   S Y S T E M   #
#############################

velocity all create 2.4 6583654 mom yes dist gaussian # Assign velocities
                                                    # Temperature 2.4, random number seed, zero linear momentum
                                                                                # Gaussian distribution

timestep 0.002   # simulation timestep
thermo 1000       # output thermodynamic data every 1000 steps bf 100

# Define a fix  in this case with index 1 applied to all
# particles in the simulation. This fix is for simulations
# in the anisotropic NPT ensemble. Note that we use the MTK
# correction.
fix 1 all npt temp 2.4 2.4 0.1 iso 5.68 5.68 0.5 mtk yes tchain 5 pchain 5 # Use NPT ensemble
                                                                         # Set temperature and pressure and damping
                                                                         # Numbers of thermostats in chain and in barostat
run 10000          # run for 10000 steps
Per MPI rank memory allocation (min/avg/max) = 3.642 | 3.644 | 3.648 Mbytes
Step Temp E_pair E_mol TotEng Press Volume 
       0          2.4   -3.8453673            0  -0.24626728   -3.4249601         4000 
    1000    2.4127391    -3.255175            0   0.36302893     5.710991    3754.1025 
    2000    2.3450523    -3.261657            0   0.25504206    5.5628393    3764.2827 
    3000    2.4175585   -3.3398592            0   0.28557191    5.3887385    3754.5938 
    4000    2.3796408   -3.2891242            0   0.27944456    5.5802657    3759.2259 
    5000    2.3849528   -3.3176391            0   0.25889565    5.4239239    3742.4747 
    6000      2.44031   -3.3208266            0   0.33872329    5.5299687    3748.0452 
    7000    2.3353645   -3.3045877            0   0.19758321    5.4930784    3748.4146 
    8000    2.3983933   -3.2952943            0   0.30139628    5.9238597    3714.8002 
    9000    2.3370439   -3.3222685            0   0.18242097    5.6315931    3726.0706 
   10000    2.4273858   -3.2827922            0   0.35737617    5.9048219    3734.5847 
Loop time of 2.60507 on 48 procs for 10000 steps with 4000 atoms

Performance: 663322.473 tau/day, 3838.672 timesteps/s
99.6% CPU use with 48 MPI tasks x no OpenMP threads

MPI task timing breakdown:
Section |  min time  |  avg time  |  max time  |%varavg| %total
---------------------------------------------------------------
Pair    | 1.1716     | 1.2313     | 1.319      |   3.2 | 47.27
Neigh   | 0.21447    | 0.2213     | 0.23725    |   1.0 |  8.49
Comm    | 0.78585    | 0.88955    | 0.96258    |   4.2 | 34.15
Output  | 0.00024894 | 0.00025415 | 0.00032263 |   0.0 |  0.01
Modify  | 0.22294    | 0.2473     | 0.27581    |   2.4 |  9.49
Other   |            | 0.01535    |            |       |  0.59

Nlocal:        83.3333 ave          95 max          72 min
Histogram: 1 2 4 9 5 10 14 0 1 2
Nghost:        1715.06 ave        1743 max        1677 min
Histogram: 2 1 5 7 2 7 7 6 6 5
Neighs:        10220.1 ave       11726 max        8644 min
Histogram: 1 3 6 4 7 11 8 3 3 2

Total # of neighbors = 490563
Ave neighs/atom = 122.64075
Neighbor list builds = 908
Dangerous builds = 228

# Equilibrate just above the melting temperature to avoid step fn in T

fix 1 all npt temp 1.25 1.25 0.1 iso 5.68 5.68 0.5 mtk yes tchain 5 pchain 5
run 2000
Per MPI rank memory allocation (min/avg/max) = 3.644 | 3.646 | 3.649 Mbytes
Step Temp E_pair E_mol TotEng Press Volume 
   10000    2.4273858   -3.2827922            0   0.35737617    5.9048219    3734.5847 
   11000     1.253948   -4.8677419            0   -2.9872901    5.8146979    2862.8592 
   12000    1.2247276   -4.8907699            0   -3.0541378     5.703303    2852.6848 
Loop time of 0.649081 on 48 procs for 2000 steps with 4000 atoms

Performance: 532445.128 tau/day, 3081.280 timesteps/s
99.6% CPU use with 48 MPI tasks x no OpenMP threads

MPI task timing breakdown:
Section |  min time  |  avg time  |  max time  |%varavg| %total
---------------------------------------------------------------
Pair    | 0.29291    | 0.31486    | 0.35225    |   2.3 | 48.51
Neigh   | 0.040999   | 0.043232   | 0.04681    |   0.6 |  6.66
Comm    | 0.20089    | 0.2408     | 0.26523    |   2.9 | 37.10
Output  | 5.1046e-05 | 5.2243e-05 | 6.4206e-05 |   0.0 |  0.01
Modify  | 0.042939   | 0.045243   | 0.048072   |   0.7 |  6.97
Other   |            | 0.004888   |            |       |  0.75

Nlocal:        83.3333 ave          88 max          77 min
Histogram: 3 4 3 3 4 9 3 7 2 10
Nghost:        2064.62 ave        2091 max        2041 min
Histogram: 3 5 2 9 10 3 6 5 2 3
Neighs:        13373.0 ave       15010 max       12198 min
Histogram: 6 1 8 10 5 7 6 3 1 1

Total # of neighbors = 641905
Ave neighs/atom = 160.47625
Neighbor list builds = 144
Dangerous builds = 13

#############################
# L I N E A R  Q U E N C H  #
#############################

# Define solid atoms. This closely follows ten Wolde  Ruiz-Montero and Frenkel  Faraday Discuss  1996  104  93-110
# Compute components of the per-atom q6 vector
compute q6 all orientorder/atom degrees 1 6 components 6 nnn NULL cutoff 1.3 # compute the Q6 parameter.
                                                                             # Use all neighbours within 1.3 unit cell.

# get number of connections
compute coord_number all coord/atom orientorder q6 0.5

# An atom is solid if it has 8 or more connections (of a possible 14)
variable is_solid atom c_coord_number>=8
group solid dynamic all var is_solid    # Must be dynamic to update
dynamic group solid defined

# do clustering
compute cluster solid cluster/atom 1.3 # Create a cluster where all atoms within are solid and max 1.3 units from another member

# define chunks one chunk per cluster
compute clus_chunks solid chunk/atom c_cluster nchunk every compress yes  # Says which atoms are in which chunk

# count the size of each chunk
compute size_chunks solid property/chunk clus_chunks count


# Find the maximum entry in the vector of chunk sizes
variable max_n equal max(c_size_chunks)


# Thermo style which includes this variable
# thermo_style custom step temp pe vol v_max_n

thermo ${N}  # Print the thermo information every 100 steps
thermo 1000  

# Reset the npt fix at a lower temperature (below freezing)
fix 1  all npt temp  ${temp} ${temp}  0.1  iso  5.68  5.68  0.5  mtk yes tchain  5  pchain  5
fix 1  all npt temp  0.45 ${temp}  0.1  iso  5.68  5.68  0.5  mtk yes tchain  5  pchain  5
fix 1  all npt temp  0.45 0.45  0.1  iso  5.68  5.68  0.5  mtk yes tchain  5  pchain  5

dump dmp2 all dcd ${N} traj.dcd
dump dmp2 all dcd 1000 traj.dcd


compute msd all msd com yes
variable twopoint equal c_msd[4]/6/(step*dt+1.0e-6)
fix 9 all vector 10 c_msd[4]
variable fit equal slope(f_9)/6/(10*dt)
thermo_style custom step temp pe c_msd[4] v_twopoint v_fit v_max_n

fix 1 all npt temp 1.25 ${temp} 0.1 iso 5.68 5.68 0.5 mtk yes tchain 5 pchain 5
fix 1 all npt temp 1.25 0.45 0.1 iso 5.68 5.68 0.5 mtk yes tchain 5 pchain 5
run 500000 # 5000000  # Run for this many steps
Neighbor list info ...
  update every 1 steps, delay 10 steps, check yes
  max neighbors/atom: 2000, page size: 100000
  master list distance cutoff = 3.8
  ghost atom cutoff = 3.8
  binsize = 1.9, bins = 8 8 8
  4 neighbor lists, perpetual/occasional/extra = 1 3 0
  (1) pair lj/cut, perpetual
      attributes: half, newton on
      pair build: half/bin/atomonly/newton
      stencil: half/bin/3d
      bin: standard
  (2) compute orientorder/atom, occasional
      attributes: full, newton on
      pair build: full/bin/atomonly
      stencil: full/bin/3d
      bin: standard
  (3) compute coord/atom, occasional
      attributes: full, newton on
      pair build: full/bin/atomonly
      stencil: full/bin/3d
      bin: standard
  (4) compute cluster/atom, occasional
      attributes: full, newton on
      pair build: full/bin/atomonly
      stencil: full/bin/3d
      bin: standard
Per MPI rank memory allocation (min/avg/max) = 9.840 | 9.845 | 9.849 Mbytes
Step Temp PotEng c_msd[4] v_twopoint v_fit v_max_n 
   12000    1.2247276   -4.8907699 7.5632039e-31 5.2522247e-33 8.3333333e+20            1 
   13000    1.2190419   -4.9110348   0.72985789  0.004678576  0.060516716            1 
   14000    1.2270639   -4.8920643    1.5432073 0.0091857573  0.064880021            3 
   15000    1.2380494   -4.8432378    2.2747561  0.012637533  0.064974706            5 
   16000    1.2554492   -4.9041545    2.9969024  0.015608866  0.063414377            3 
   17000    1.2533728   -4.8992668    3.7493146  0.018378993  0.062724201            3 
   18000    1.2312081   -4.9080593    4.5282712  0.020964218  0.062719371            2 
   19000    1.2139744   -4.9140174     5.299564  0.023243701  0.062939593            3 
   20000    1.2249546   -4.9240511    6.0774151  0.025322562   0.06334805            2 
   21000    1.2151437   -4.9047515    6.8216534  0.027070052   0.06354156            3 
   22000    1.2502104   -4.9281537    7.6334724  0.028914668  0.063384821            2 
   23000     1.257566   -4.9189598    8.4512562  0.030620493  0.063711923            2 
   24000    1.2129424   -4.9081937     9.233814  0.032061854  0.063998503            1 
   25000    1.2320735    -4.953778    9.9910404  0.033303467  0.064087037            8 
   26000    1.2306801   -4.9178109     10.74189  0.034429133  0.064191322            1 
   27000    1.2281475    -4.890925     11.42161  0.035251882   0.06409968            1 
   28000    1.2161638   -4.9306026    12.174807  0.036234543  0.063932448            2 
   29000      1.25763   -4.9639651    12.970406  0.037271281  0.063872772            2 
   30000    1.2290768   -4.9565835    13.669263  0.037970175  0.063813292            5 
   31000    1.1986272   -4.9278537    14.492366  0.038957973   0.06375625            1 
   32000    1.2374711   -4.9273815    15.184615  0.039543268  0.063655983            3 
   33000    1.1953989      -4.9515    15.744111  0.039757855  0.063461467            2 
   34000    1.2124113   -4.9226637    16.519009  0.040487768  0.063186395            2 
   35000    1.2344984   -4.9326758    17.079574  0.040665653  0.062931731            2 
   36000    1.2185406   -4.9377767    17.796091  0.041194654  0.062658476            1 
   37000    1.1988486   -4.9503824    18.266642  0.041141085  0.062315251            2 
   38000    1.2079113   -4.9688754    18.964389  0.041588572  0.061919839            3 
   39000    1.1979664   -4.9298793    19.684194  0.042060242  0.061605427            3 
   40000    1.2133199   -4.9767097    20.374672  0.042447233  0.061318876            3 
   41000    1.2141691   -4.9837517    21.024073  0.042731856  0.061043929            1 
   42000    1.2195344   -4.9593808    21.776738  0.043207813  0.060790619            2 
   43000    1.2152323    -4.965069    22.616209  0.043829861  0.060628299            2 
   44000    1.2054674   -4.9491187    23.446121  0.044405531  0.060513833            5 
   45000     1.199833   -4.9567627    24.068267  0.044570864  0.060412287            3 
   46000    1.1952792    -5.033182    24.567462  0.044506272  0.060277818            2 
   47000    1.1663576   -4.9912167    25.309489   0.04487498  0.060137483            2 
   48000      1.21251   -5.0144058    26.059053   0.04524141  0.060024492            4 
   49000     1.162432   -5.0069478    26.718732   0.04544002  0.059932098            3 
   50000    1.1791008   -4.9991395    27.254659  0.045424432  0.059809317            3 
   51000    1.1726388   -4.9829145    27.863742   0.04552899  0.059652626            1 
   52000    1.1688934   -5.0414871    28.460924  0.045610454  0.059486412            2 
   53000    1.1813553   -5.0111068    29.212982   0.04593236  0.059333656            5 
   54000    1.1754935   -5.0026798    29.766622  0.045936145  0.059184109            4 
   55000    1.1876576   -5.0453198    30.178746  0.045725372  0.058995914            3 
   56000    1.1784554   -4.9967869    30.745543  0.045752296  0.058782546            2 
   57000    1.1858096   -4.9770636    31.430081  0.045950411  0.058568998            3 
   58000    1.1730911   -5.0141619    32.155367   0.04620024  0.058356468            3 
   59000     1.160182   -5.0176899    32.456752  0.045842869  0.058149393            4 
   60000    1.1522977   -5.0207995    32.866706  0.045648203   0.05792607            6 
   61000    1.1907712   -5.0721929    33.601246  0.045903341  0.057691654            2 
   62000    1.1763286   -5.0065178    34.420859  0.046264595  0.057478508            2 
   63000    1.1418775   -5.0353252    34.820785  0.046059239  0.057279762            2 
   64000    1.1432175   -5.0185739    35.720409  0.046510948  0.057087056            2 
   65000    1.1776574   -5.0409217    36.164226  0.046364392  0.056922918            3 
   66000    1.1771482   -5.1001777    36.542566  0.046139604  0.056754145            6 
   67000    1.1847871   -5.0813704    37.263523  0.046347666  0.056579748            3 
   68000    1.1709128   -5.0597103    37.572047  0.046044175   0.05637415            4 
   69000    1.1906115   -5.0393373    38.231876  0.046173763  0.056161546            3 
   70000    1.1545301    -5.029498    38.665701  0.046030596  0.055944484            2 
   71000    1.1730571   -5.0391467    39.401934  0.046246401  0.055751304            2 
   72000    1.1750984   -5.0827858    39.917525  0.046200838  0.055565779            2 
   73000     1.158371   -5.0730612     40.35129  0.046063116  0.055380163            3 
   74000    1.1592278   -5.0332966    41.265962  0.046470678  0.055212514            2 
   75000    1.1560394   -5.0619089    41.456782  0.046063091  0.055039928            3 
   76000    1.1367111    -5.078972    42.083352  0.046144026  0.054868683            3 
   77000    1.1399882   -5.0862672    42.583952  0.046086528  0.054693656            3 
   78000    1.1310142   -5.1040148    43.390163  0.046357012  0.054545959            2 
   79000    1.1155731   -5.0924581    44.104856  0.046524109  0.054407972            4 
   80000    1.1121616   -5.0743143    44.791149  0.046657447  0.054279815            4 
   81000    1.1162784    -5.060123    45.207494  0.046509768  0.054159578            3 
   82000    1.1471237   -5.1101114    46.032513  0.046781009  0.054036573            2 
   83000    1.1309889   -5.0814795    46.598451  0.046785593  0.053920631            3 
   84000    1.1279888   -5.0803875    47.207818  0.046833152  0.053810122            2 
   85000    1.1253275   -5.1092375    47.322451  0.046394559  0.053688274            4 
   86000    1.1298021   -5.1067299    47.919899   0.04643401  0.053547567            2 
   87000    1.1447634   -5.1118126     48.29748  0.046261954  0.053413279            1 
   88000    1.1441711   -5.0947627     48.54954  0.045974943  0.053267373            2 
   89000    1.1602697   -5.1149466    49.297923  0.046159104  0.053122053            2 
   90000    1.1229423   -5.1277897    50.014486  0.046309709  0.052996017            3 
   91000    1.1283686   -5.0867084    50.992701  0.046696613  0.052884345            4 
   92000    1.1294369   -5.1182997    51.462643  0.046614712  0.052776797            2 
   93000    1.1162055   -5.1119493    52.124202  0.046706274  0.052675755            2 
   94000     1.120239   -5.1066421    52.728674  0.046745278  0.052589617            2 
   95000    1.0999858   -5.1601672    52.899313  0.046402906  0.052495257            3 
   96000    1.1203513   -5.1371901    53.448998    0.0463967   0.05239586            2 
   97000    1.1294621   -5.1523206    53.771564  0.046195502  0.052289481            3 
   98000    1.1270442    -5.121046    54.281539  0.046157771  0.052168294            3 
   99000      1.09154   -5.0931283    54.911776  0.046222033  0.052056755            1 
  100000    1.1124562   -5.1497608    55.114152  0.045928459  0.051936035            3 
  101000     1.115159   -5.1396321    55.768091  0.046013276  0.051809547            2 
  102000     1.108999    -5.099571    56.060698  0.045801223  0.051677819            2 
  103000    1.1072125   -5.1694458    56.341585  0.045583806  0.051536376            2 
  104000    1.0900381   -5.1476454    56.719408  0.045448243  0.051397317            4 
  105000    1.1085881   -5.1806671    57.226972  0.045418232  0.051251066            2 
  106000    1.1172559   -5.1768102    57.788025  0.045430837  0.051099039            2 
  107000    1.1192712   -5.1716369    58.347001  0.045441589  0.050952427            2 
  108000    1.1095181   -5.1670117    58.470996  0.045116509  0.050804083            2 
  109000    1.1019712   -5.1811231    59.127527  0.045204531  0.050659252            4 
  110000    1.0859454   -5.1748227      59.7308  0.045250606  0.050520831            3 
  111000    1.0900562   -5.1771871    60.182968  0.045182409  0.050391116            2 
  112000    1.1026762   -5.1891668     60.52784  0.045035595   0.05025789            3 
  113000    1.1133275   -5.1718131    61.106894  0.045064081  0.050130442            1 
  114000    1.0857704   -5.1922523    61.760492  0.045146558  0.050007401            4 
  115000    1.0998525   -5.1880549    62.226966  0.045092004  0.049885147            5 
  116000    1.0710571   -5.2119746    62.993696  0.045254091  0.049771635            3 
  117000    1.0824872   -5.2208563    63.551479  0.045264586  0.049670118            3 
  118000    1.0773788   -5.1860206    64.042534  0.045227778   0.04956873            2 
  119000    1.0815866   -5.2184945    64.537868  0.045194585  0.049463707            4 
  120000    1.0556457   -5.2326001    64.800643  0.045000446  0.049357961            6 
  121000     1.083303   -5.2230148    65.560835   0.04515209  0.049255572            3 
  122000    1.0521713   -5.2131236    65.803236  0.044947565  0.049155638            6 
  123000    1.0565536   -5.2253996    66.129466  0.044803161  0.049052702            3 
  124000    1.0555122    -5.193227    66.999693  0.045026675  0.048952453            2 
  125000    1.0598738    -5.211244    67.318353  0.044878902  0.048849405            2 
  126000    1.0639056   -5.1923123    67.759873   0.04481473  0.048752974            2 
  127000    1.0764396   -5.2134586    68.147897  0.044716467  0.048656679            2 
  128000     1.087361   -5.2701376    68.597292  0.044659695  0.048563833            2 
  129000     1.060914   -5.2531906    69.591503  0.044955751  0.048476729            3 
  130000    1.0502027   -5.2344514    70.136715  0.044959433  0.048391923            4 
  131000    1.0628998   -5.2637892    70.288815  0.044712986  0.048310461            2 
  132000    1.0701456   -5.2418475    70.934182  0.044781681  0.048228187            3 
  133000    1.0553532   -5.2480614    71.813854  0.044996149  0.048151022            2 
  134000    1.0839091   -5.2738693     71.87251  0.044696834  0.048078836            6 
  135000    1.0569011   -5.2372342     72.65474  0.044848605   0.04800191            3 
  136000    1.0362232   -5.2244371    73.105849  0.044795251  0.047925165            4 
  137000    1.0576457   -5.3008924    73.170197  0.044507419  0.047844965            2 
  138000     1.078628   -5.3260301    73.481861  0.044373104  0.047763639            3 
  139000     1.038916   -5.2472808    74.298299  0.044543345  0.047684794            5 
  140000    1.0504354   -5.2811254     74.80047  0.044524089  0.047610057            3 
  141000    1.0346595   -5.2898644    75.236737  0.044466156  0.047536373            6 
  142000    1.0432275   -5.2885977    75.592707  0.044361917  0.047463189            6 
  143000    1.0395702   -5.2926875    76.054654  0.044320894  0.047391357            2 
  144000    1.0269845   -5.2816317    76.886724  0.044494632  0.047316444            5 
  145000    1.0547897   -5.3261329    77.104746  0.044313072  0.047241367            3 
  146000    1.0432894   -5.2756617    77.566213  0.044272952  0.047170409            4 
  147000    1.0165137   -5.2919615    78.417759  0.044454512   0.04710229            3 
  148000    1.0444634   -5.3414399    78.247712  0.044058396  0.047031796            3 
  149000    1.0417006   -5.3213995    79.027002  0.044198547  0.046962413            4 
  150000    1.0185945   -5.3337614    79.392499  0.044106944  0.046896542            4 
  151000    1.0324765   -5.3033193    80.520774  0.044437513  0.046835416            3 
  152000    1.0082201   -5.3138925    80.423342  0.044091745  0.046769418            2 
  153000    1.0154644   -5.3476103    80.882371  0.044053579  0.046700065            5 
  154000    1.0112916   -5.3325532    81.351248  0.044021238  0.046629367            3 
  155000    1.0005482   -5.3293541     81.86558  0.044013752  0.046560764            4 
  156000    1.0076876   -5.3352345    82.359911  0.043995679  0.046493692            4 
  157000    1.0179804   -5.3593701    82.671084  0.043880618  0.046428477            4 
  158000    1.0342875   -5.3458883    83.133718  0.043846897  0.046362219            3 
  159000    1.0028654   -5.3275426      83.3886  0.043704717  0.046294435            6 
  160000    1.0393376   -5.3422989    84.044858  0.043773363  0.046226929            3 
  161000    1.0300561   -5.3510113    84.551434  0.043763682  0.046158026            1 
  162000    1.0023693   -5.3439625    84.655344  0.043546987  0.046088764            5 
  163000    1.0049464   -5.3583814    84.785267  0.043346251  0.046017418            6 
  164000    1.0011802   -5.3470963    85.530407  0.043460573  0.045940394            5 
  165000    1.0201315   -5.3278282     85.78697  0.043326753  0.045866994            6 
  166000    1.0204091   -5.3496221    86.188195  0.043267166  0.045791052            4 
  167000    1.0017007   -5.3696287    86.240835  0.043034349  0.045712394            5 
  168000   0.98512177   -5.3709712    86.440393  0.042877179  0.045631273            2 
  169000    1.0145091   -5.3273357    86.920058  0.042859989  0.045547185            3 
  170000    1.0045898   -5.3675316     87.51911  0.042901524  0.045462806            5 
  171000   0.98911376   -5.3740036    87.828499  0.042801413  0.045380795            4 
  172000   0.96997391   -5.3617984    88.114239  0.042691007   0.04529664            3 
  173000   0.98909355   -5.3674495    88.674031  0.042713888  0.045215743            3 
  174000   0.98310386    -5.404654    88.808491  0.042532802   0.04513239            4 
  175000   0.98405001   -5.3842693    89.323835  0.042535159  0.045045672            5 
  176000   0.99621802   -5.4002289    89.655095  0.042450329  0.044961184            3 
  177000   0.99530298   -5.4075124    90.002474  0.042374046  0.044880329            4 
  178000   0.99074906   -5.3909876     90.43154  0.042336863  0.044795199            5 
  179000   0.99469028   -5.4131899    90.639832  0.042197315  0.044707042            4 
  180000   0.96573354    -5.397786    91.551756  0.042385072  0.044623901            3 
  181000   0.98356618   -5.4216128    91.098544   0.04194224  0.044538444            2 
  182000   0.99164966    -5.434036     91.73837  0.042004748  0.044453459            3 
  183000   0.97812773   -5.4530267    91.654028  0.041736807  0.044365932            7 
  184000   0.96534902   -5.4647718    92.232368  0.041771905  0.044279522            7 
  185000   0.96005965   -5.4424378    92.991992  0.041888285  0.044193267           10 
  186000   0.97250994   -5.4490425     93.13444    0.0417269  0.044107672            5 
  187000   0.99258409   -5.4352787    93.459941  0.041648815  0.044021673            3 
  188000   0.97693419   -5.4328769    94.052334  0.041689864  0.043935437            8 
  189000   0.99532933   -5.4327083    94.325834  0.041589874   0.04385099            4 
  190000    0.9694581    -5.443066    94.584472  0.041484417  0.043767005            3 
  191000   0.95996945   -5.4675009    94.818075  0.041369142  0.043681272            4 
  192000   0.95376687   -5.4819473    95.021154   0.04124182  0.043594713            7 
  193000   0.96080404   -5.4482875    95.551548  0.041257145  0.043510879            2 
  194000   0.96142348   -5.4352479    96.115723  0.041286823  0.043429135            7 
  195000   0.94443058   -5.5030585    96.382098  0.041188931  0.043346228            5 
  196000   0.95773095   -5.4485999    96.992062  0.041238121  0.043263477            4 
  197000   0.95272707   -5.4551091    97.454242  0.041224298  0.043185007            5 
  198000   0.96425741   -5.4460518    97.609099  0.041081271  0.043106187            3 
  199000   0.95914652   -5.4878465    97.907775  0.040999906  0.043025679            3 
  200000   0.92645067   -5.4507328    98.049719   0.04085405  0.042945104            3 
  201000   0.94291966   -5.4794157    98.020684  0.040638758  0.042861862            4 
  202000   0.94540038   -5.5005379    98.275459  0.040542681  0.042775445            4 
  203000   0.95185743   -5.4697048    98.866448   0.04058557  0.042686263            5 
  204000   0.96258293   -5.4764037    98.990215  0.040437179  0.042599214            6 
  205000   0.93758583   -5.4988143    98.951785  0.040224303  0.042507093            5 
  206000   0.94395808   -5.5122912    99.383292  0.040203597  0.042414124            4 
  207000   0.93480538   -5.5189922    99.455918  0.040038614  0.042318414            3 
  208000    0.9320058   -5.5350658    99.520464   0.03987198  0.042224436            7 
  209000   0.94783528   -5.5008112    100.57795  0.040102849  0.042130274            6 
  210000   0.92326572   -5.5354272     99.94905  0.039662321  0.042036143            3 
  211000   0.92089376   -5.4891068    100.38038  0.039644698  0.041940033            3 
  212000   0.92442967   -5.5286369    100.76254  0.039607917  0.041845908            4 
  213000   0.93063956   -5.5260638    100.75698   0.03941979  0.041750691            2 
  214000   0.92481522   -5.5410574    101.23829  0.039423011   0.04165664            7 
  215000   0.92594593   -5.5405033    101.64324  0.039396604  0.041562635            4 
  216000   0.91710162   -5.5424243    101.94058  0.039328928  0.041467262            5 
  217000    0.9128237   -5.5598848    102.23065  0.039259083  0.041373772            6 
  218000   0.91546102    -5.578278     102.6793  0.039250495  0.041279612            8 
  219000   0.91887015   -5.5747378    102.93128  0.039167152  0.041187114            5 
  220000   0.93177099   -5.5672032    103.08613  0.039047775  0.041095837            6 
  221000   0.92766083   -5.5278972    103.44769  0.039007425  0.041003442            4 
  222000   0.90887243   -5.5556005    103.70685  0.038928998  0.040911286            4 
  223000   0.91248423   -5.5643708    103.98014  0.038856556  0.040819789            3 
  224000   0.90748368   -5.5512838    104.10523  0.038729624  0.040729282            5 
  225000   0.91431813   -5.5800159    104.22005  0.038600017   0.04063705            9 
  226000   0.93125074   -5.6089395    104.79541  0.038641373  0.040545693            5 
  227000   0.91009567   -5.5570679    105.41134  0.038697263  0.040455655            5 
  228000   0.91604895   -5.5760488    105.48079  0.038552922  0.040365962            8 
  229000   0.89196799   -5.5594765    105.59982  0.038427883  0.040275173            3 
  230000   0.87793389   -5.6196152    105.47091  0.038214098  0.040183133            7 
  231000   0.90831102   -5.5947508    105.76105  0.038153338  0.040092085           12 
  232000   0.89171805   -5.5913827    106.02354  0.038083169  0.040001889            4 
  233000   0.89629825   -5.5915304    106.45472  0.038073933  0.039910974            4 
  234000   0.90412089   -5.6074221    106.50105  0.037927726  0.039818257            6 
  235000   0.89195059   -5.5840204    106.97684  0.037935048  0.039725278            7 
  236000   0.88338715   -5.6143943     107.0037  0.037783793  0.039633839            6 
  237000   0.89436947   -5.6151625    107.66872  0.037858199  0.039542918            3 
  238000    0.8835103    -5.611931    107.79811  0.037744435  0.039452871            5 
  239000   0.87842643   -5.6162302    108.03984  0.037670793  0.039361538            8 
  240000   0.89805498    -5.633984     107.6913  0.037392811  0.039270128            5 
  241000   0.86635433   -5.5997126    108.56033   0.03753815  0.039178258            4 
  242000   0.90705361   -5.6008855    109.06073  0.037555347  0.039086683            3 
  243000   0.86337637   -5.6485784    108.91756  0.037351702  0.038997112            9 
  244000   0.87529987   -5.6173693    109.06744  0.037249808  0.038906751            3 
  245000   0.86432454   -5.6589313    109.40016  0.037210938  0.038814495            4 
  246000   0.87488671   -5.6479248    109.38851  0.037055728  0.038723649            6 
  247000    0.8809143   -5.6235436    109.64793   0.03699323  0.038631381            5 
  248000   0.88082518   -5.6758012     109.1744  0.036684946  0.038538915            2 
  249000   0.86480581   -5.6775395    109.75901  0.036733271  0.038445142            5 
  250000   0.84552646   -5.6656972    110.12357  0.036707857  0.038352464            5 
  251000   0.89430446    -5.650157     110.3964   0.03665219  0.038261325           10 
  252000   0.86933837   -5.6525891    110.68098  0.036600853  0.038169629            3 
  253000   0.85620125   -5.6605179    110.78554  0.036490625  0.038078089            9 
  254000   0.85996616   -5.6468503    110.79422   0.03634981  0.037987748            9 
  255000   0.86427552   -5.6336476    111.14245  0.036321063  0.037895118            6 
  256000   0.85217202   -5.6972313    110.97312  0.036124062  0.037800974            5 
  257000   0.84708003   -5.6628529    111.69929  0.036218965  0.037708637            5 
  258000   0.85661786   -5.6642248    111.80119  0.036111496  0.037616566           16 
  259000   0.85781869   -5.6707241    112.05069  0.036052346  0.037525998            6 
  260000   0.83238398   -5.6992103    111.95023  0.035881484  0.037432323            6 
  261000   0.85305924   -5.7008998    112.25135  0.035840151  0.037340604            3 
  262000   0.85784943   -5.6812467    112.57046  0.035804854  0.037249098            3 
  263000   0.84012998   -5.7198499    112.46097  0.035634022  0.037157749            5 
  264000   0.84192961   -5.7384998    112.63012  0.035552437  0.037067221            6 
  265000   0.85607082   -5.7047267        113.1  0.035566037  0.036977774            9 
  266000   0.83892787   -5.6941483    113.54361  0.035571307  0.036888635            6 
  267000   0.84083492   -5.7256283    113.94715  0.035564028   0.03680061            4 
  268000    0.8268181   -5.7566094    113.58151  0.035317633  0.036712449            4 
  269000   0.84405712   -5.7646616    113.62977  0.035201292  0.036622151            6 
  270000   0.84844723   -5.7209885    113.84896  0.035138568  0.036532106            6 
  271000   0.83789565   -5.7349432    113.97426  0.035047435  0.036441977            6 
  272000   0.83790143    -5.704902    114.33906  0.035030348  0.036351267            6 
  273000   0.82014621   -5.7453805    114.38565  0.034916254  0.036261382            4 
  274000   0.80331929   -5.7111514    114.57974  0.034847853  0.036170764           10 
  275000   0.82930816   -5.7597363    114.88287  0.034812992  0.036081321            7 
  276000   0.81698485   -5.8010353    114.80434  0.034663145  0.035991107           10 
  277000   0.82561137    -5.748371    114.74572  0.034520372  0.035900466            6 
  278000   0.83417112   -5.7206533    115.08047  0.034496544  0.035809779            6 
  279000   0.81264683   -5.7554891    115.23684  0.034419606  0.035718699            7 
  280000   0.81327598   -5.7640278    115.68629  0.034430444  0.035628028            9 
  281000   0.80064054   -5.7844679    115.56759  0.034272713  0.035537579            5 
  282000   0.83945292   -5.7872529    115.69653  0.034189282  0.035449297            6 
  283000   0.81944265   -5.7841116    115.89171  0.034125946  0.035360277           10 
  284000     0.833858   -5.7793269    115.98431  0.034032953  0.035271126           18 
  285000   0.83211649   -5.7895207    116.05608  0.033934527  0.035181484            6 
  286000   0.79323135   -5.8073444    116.32801  0.033895108  0.035091203            7 
  287000   0.80197398   -5.8333016     116.1998  0.033739779  0.035001533            7 
  288000   0.82017949   -5.8128364     116.6534  0.033753878  0.034911535           11 
  289000    0.8015793   -5.8063574     116.9262  0.033715745   0.03482168            9 
  290000    0.8131768   -5.8375967    116.94819    0.0336058  0.034730818            9 
  291000   0.80938872   -5.8035791    116.93275  0.033485897  0.034641343            9 
  292000   0.79095504   -5.7816186    117.44731  0.033518068  0.034551947            7 
  293000   0.80106172   -5.8127731    117.21109  0.033336488  0.034462698            3 
  294000   0.79692032   -5.7905462    117.47426  0.033297693  0.034373089            8 
  295000   0.77303916   -5.8519774    117.70521  0.033250059  0.034283307            8 
  296000   0.79325388   -5.8293441    117.61043  0.033111045  0.034195546            5 
  297000   0.79741726   -5.8273612    118.01546  0.033113204  0.034108599            7 
  298000   0.79153651   -5.8194061    118.08244  0.033020817  0.034020885            5 
  299000   0.76883546   -5.8498129    118.26884   0.03296233  0.033933277           16 
  300000   0.78372612   -5.8538516    118.02301  0.032784169  0.033846449            5 
  301000   0.79011982   -5.8594593    118.25755  0.032740185  0.033758738           17 
  302000   0.79408676   -5.8864066    118.34419  0.032655682  0.033671043           10 
  303000   0.78766037   -5.8201568    119.10286  0.032756562  0.033584886            7 
  304000   0.80554549   -5.8497812    118.95273  0.032607657  0.033498082            7 
  305000   0.78128346   -5.8438891    119.21649  0.032572811  0.033412241            5 
  306000   0.77215282   -5.8546976    119.10156  0.032435066  0.033326956            6 
  307000   0.76568338   -5.8469479    119.46314  0.032427562   0.03324198            8 
  308000   0.77570133   -5.8580658    119.20124  0.032251418  0.033156644           11 
  309000   0.77564224   -5.8424305    119.32994  0.032181753  0.033071497            7 
  310000   0.78010025   -5.8512355    119.85053  0.032217884  0.032986101            5 
  311000   0.77502179   -5.8595523    119.84482  0.032112759  0.032901224            7 
  312000   0.77880515   -5.8866664      119.663  0.031961272  0.032816415           10 
  313000   0.78252054   -5.8756628    120.03408  0.031957955  0.032732197           16 
  314000   0.76492624   -5.8967255    120.18082  0.031895123   0.03264863            6 
  315000   0.75936057   -5.8914193    120.13599  0.031782009  0.032563695           12 
  316000   0.77670813   -5.8776093    120.28081  0.031719623  0.032479724           19 
  317000   0.74947853    -5.895728    120.01506  0.031549701  0.032395028           14 
  318000    0.7460138   -5.9182833    120.30158  0.031525572   0.03230981            9 
  319000   0.75972157   -5.9361851    120.18427  0.031396101  0.032224276            8 
  320000    0.7363327   -5.9147334    120.65386  0.031420275  0.032139955            4 
  321000   0.74108485   -5.8959019    121.20424  0.031465276  0.032056816           13 
  322000   0.76024449   -5.9322592    120.83916  0.031273074  0.031973597            6 
  323000   0.76425287   -5.9325326    121.07002  0.031235815  0.031889842           17 
  324000   0.74934749   -5.9382347    121.03796  0.031131163  0.031806244            6 
  325000    0.7430898   -5.9367038    121.20927    0.0310793  0.031722292            8 
  326000   0.75012251   -5.9443237    121.26537  0.030998305  0.031639383            8 
  327000   0.75864108   -5.9505713    121.32541   0.03091881  0.031555961           11 
  328000   0.74139494   -5.9514693    121.04752  0.030753943  0.031471628           19 
  329000   0.72543956   -5.9709514    121.30131  0.030724749  0.031387791            7 
  330000   0.73702092   -5.9807912    121.55628   0.03069603   0.03130492           12 
  331000   0.74140732   -5.9822816    121.68796  0.030636446  0.031221744           17 
  332000   0.75350583   -5.9718963    121.37369  0.030465284  0.031138856            5 
  333000   0.75171499   -5.9816265    121.49331   0.03040373  0.031055383           10 
  334000   0.74212685   -5.9888353    121.26795  0.030256475  0.030971684            9 
  335000    0.7244201   -5.9692996    121.49547  0.030222753  0.030888285           10 
  336000   0.71688587   -5.9820706    121.94725  0.030244854  0.030805368            6 
  337000   0.74254471   -5.9810898    121.94488  0.030154521  0.030722803           13 
  338000   0.74358405   -6.0024181    121.57915  0.029975137  0.030639326            9 
  339000   0.73532537    -5.989538    121.93524  0.029974247  0.030555785           17 
  340000   0.73503171    -6.013948    121.56613   0.02979562  0.030471777            8 
  341000   0.72849564   -6.0210839    121.43918   0.02967722  0.030387076           11 
  342000   0.71435585   -6.0522355    121.74652  0.029665331  0.030302423            6 
  343000   0.70578713   -6.0165842    122.09251  0.029662904  0.030218921           13 
  344000    0.7200732   -6.0113824    122.16976  0.029595387  0.030136062           22 
  345000     0.696464   -6.0150536    122.44369   0.02957577  0.030053403           10 
  346000   0.70793031   -6.0378956    122.27772  0.029450317  0.029970385           10 
  347000   0.71647684   -6.0326425    122.53334  0.029426835  0.029887908            7 
  348000   0.69928862   -6.0052043    122.39976  0.029310288  0.029805563           11 
  349000   0.69210636    -6.048749    122.54791  0.029261678  0.029723081           16 
  350000   0.70343367   -6.0558824    122.27298  0.029112613   0.02964041           29 
  351000   0.69892429   -6.0578667    122.57688  0.029101823   0.02955884           12 
  352000   0.71068475   -6.0640906     122.6664  0.029040342  0.029477617           17 
  353000   0.70880558   -6.0470275    122.70526  0.028967248  0.029396671           13 
  354000   0.70064639    -6.033831    122.99591  0.028953839  0.029316026            7 
  355000   0.70666415   -6.0491593    122.84336  0.028836468  0.029235098           21 
  356000   0.70684778   -6.0427249    122.75174  0.028734021  0.029154055            4 
  357000   0.70319221   -6.0568702    122.65879  0.028631838  0.029072943            8 
  358000   0.70049491   -6.0654841    122.93536  0.028616238  0.028991721           11 
  359000   0.70371881   -6.0617712    123.20109  0.028598211  0.028910501           12 
  360000   0.67972502   -6.0730007    123.08111  0.028490998  0.028830391           19 
  361000   0.69681053   -6.0929027    123.28872      0.02846  0.028750454           28 
  362000   0.68506074   -6.0995489    123.12993  0.028344828  0.028670885            9 
  363000   0.67054167   -6.0955061    123.22335  0.028288188  0.028591325           10 
  364000    0.6869169    -6.096508    123.48936  0.028271374  0.028511699            9 
  365000    0.6910684   -6.0754619    123.51292  0.028199297  0.028432119           17 
  366000   0.68478394   -6.1093709     123.3777  0.028091461   0.02835266            8 
  367000    0.6909758   -6.0960137    123.64018  0.028074518  0.028273548           11 
  368000    0.6749613   -6.0950486    123.65855   0.02800239   0.02819502           11 
  369000   0.69089719   -6.0690066    123.67553  0.027930336  0.028116413           12 
  370000    0.6813795   -6.1276409    123.69806  0.027859923  0.028037853           15 
  371000   0.67604552   -6.1183579    123.36615  0.027710276  0.027959345           15 
  372000   0.68211714   -6.0900367    123.36164  0.027634776  0.027880772           18 
  373000   0.67608981   -6.1139029    123.74976  0.027647399  0.027802448           19 
  374000   0.67698273   -6.1281129    123.53335  0.027525257  0.027723567           18 
  375000   0.67249007   -6.1682127     123.1739  0.027371978  0.027645064           14 
  376000   0.67095249   -6.1197933    123.72661  0.027421678   0.02756626            9 
  377000   0.66138118   -6.1336807    123.55052  0.027310017  0.027487578           16 
  378000   0.65506766   -6.1599316    123.44248   0.02721395  0.027408808           15 
  379000   0.66134819   -6.1652889    123.52392  0.027160053  0.027330164           15 
  380000   0.66272608   -6.1472848    123.61148  0.027107781  0.027252055           15 
  381000   0.65672452   -6.1608234    123.57525  0.027028707  0.027174106           13 
  382000   0.66456503   -6.1746764    123.35746   0.02691044  0.027096083           12 
  383000   0.64790176   -6.1462409     123.6527  0.026904417  0.027017943           11 
  384000   0.64750883   -6.1709286    123.53703  0.026809251  0.026939998           25 
  385000   0.64158107   -6.1604998    123.51271  0.026734352  0.026862751           12 
  386000   0.64133231   -6.1598302    123.60901  0.026685884  0.026785351            7 
  387000   0.63523517   -6.1591875    123.47764  0.026588638  0.026708027            8 
  388000   0.66161267    -6.174215    123.86861  0.026604082  0.026630566            7 
  389000   0.65619071   -6.1942185    123.47721  0.026451845  0.026553368           16 
  390000   0.64577514   -6.1829906    123.62155  0.026414862  0.026476307           15 
  391000   0.64597124   -6.1786163    123.67283  0.026358232  0.026400005            6 
  392000   0.64207904    -6.186079    123.83613  0.026325708  0.026324102           10 
  393000   0.64509671   -6.2111843    123.73103  0.026236436  0.026248411           12 
  394000     0.627887    -6.193044    123.86372   0.02619791  0.026173045           31 
  395000   0.63536686   -6.1927553    124.52404  0.026270894  0.026098184           12 
  396000   0.63672154   -6.2151305    124.24183  0.026145166  0.026023633            7 
  397000   0.63718951   -6.2198172    124.15091  0.026060225  0.025948963           11 
  398000   0.64326127   -6.2303756    124.32502  0.026031202  0.025874517           20 
  399000   0.63856649   -6.2254704    124.24607  0.025949472  0.025800314           13 
  400000   0.62435246   -6.2402382    124.24312  0.025883983  0.025726265           27 
  401000   0.64397575   -6.2476957    124.28494  0.025828125  0.025652382           26 
  402000   0.64190345   -6.2367544    124.39709  0.025787124  0.025578518           13 
  403000   0.62246162   -6.2536784    124.40208  0.025724168  0.025504463           20 
  404000   0.64488965   -6.2369776    124.22121  0.025623187  0.025430456           13 
  405000   0.61989044   -6.2654636    124.24258  0.025564317  0.025356928           36 
  406000   0.62933106   -6.2862568    123.91888   0.02543491  0.025283528           40 
  407000   0.62399913   -6.2725522    124.25172  0.025440566  0.025210445           21 
  408000   0.60696124   -6.2545311    124.29472  0.025386993   0.02513781           20 
  409000   0.61363239    -6.250262     124.5554  0.025378036  0.025065456           13 
  410000   0.60959589   -6.2927648    124.30496  0.025265236  0.024992974           16 
  411000   0.61423218   -6.2807738    124.26576  0.025195815   0.02492091           20 
  412000   0.61724747   -6.2759662    124.39163  0.025160119   0.02484895           21 
  413000   0.61650388   -6.3039222    124.11856    0.0250441  0.024777123           35 
  414000   0.61244868   -6.2818916    124.58384  0.025077263  0.024705121           15 
  415000   0.60927895   -6.2644691    124.33865    0.0249676  0.024633486           15 
  416000   0.59963165   -6.2830444    124.08041  0.024855851  0.024562151            9 
  417000    0.6052351   -6.2998434    124.33451  0.024847024  0.024490914           23 
  418000   0.60694952   -6.3141579    124.38171  0.024796991  0.024419707           32 
  419000   0.59598199   -6.2810781    124.58079  0.024777404  0.024349049           23 
  420000   0.59035926   -6.2973799    124.42591  0.024687681   0.02427882           20 
  421000   0.59250878   -6.3142074    124.15006  0.024574438  0.024208145           22 
  422000   0.59463102   -6.3039907    124.32357  0.024550467  0.024138093           17 
  423000   0.58359692   -6.3168047    124.22915  0.024473828  0.024068115            7 
  424000   0.59291372    -6.326788      124.507  0.024470715  0.023998434           34 
  425000   0.59212823   -6.3496722    124.24738  0.024362232  0.023928733           30 
  426000   0.58790302   -6.3281991    124.52179  0.024358723  0.023859118           25 
  427000   0.58844424   -6.3112931    124.70288  0.024337017  0.023789725           36 
  428000   0.58264971     -6.33165    124.30855  0.024203379  0.023720286           44 
  429000   0.58593647   -6.3395037    124.33219  0.024151552  0.023650981           58 
  430000   0.57279539   -6.3439351    124.23414  0.024076383  0.023581888           82 
  431000   0.57201046   -6.3431995    124.51762  0.024075333  0.023512982           22 
  432000   0.57062487   -6.3297854    124.45134  0.024006817  0.023444379           39 
  433000   0.57730134   -6.3624491    124.28511  0.023919382  0.023375983           51 
  434000   0.57114936   -6.3735867    124.36593  0.023879787  0.023307538           61 
  435000   0.57140422   -6.3711996    124.19789  0.023792699  0.023239242           77 
  436000   0.55918185   -6.3582294    124.42604  0.023781735  0.023171161           71 
  437000   0.56177357   -6.3719036    124.43248  0.023728544  0.023103361           55 
  438000   0.56374129   -6.3979589    124.56647  0.023699861  0.023035904           59 
  439000   0.56366171    -6.408422    124.38753  0.023611907  0.022968849           41 
  440000   0.56780661   -6.3801231    124.45092   0.02357025  0.022901944            8 
  441000   0.55746161   -6.4012768    124.30276  0.023488806  0.022835351           21 
  442000    0.5722239   -6.4069598    124.34029   0.02344274  0.022768872           48 
  443000   0.56090113   -6.4116873    124.52126  0.023423864  0.022702544           20 
  444000    0.5681612   -6.4049583    124.33386  0.023335934  0.022636407           24 
  445000   0.55978652   -6.3952412    124.40806  0.023297389  0.022570403           36 
  446000   0.56635804   -6.3895032    124.45168  0.023253302  0.022504753           65 
  447000   0.55549493   -6.3997938     124.3471  0.023181785  0.022439244           49 
  448000   0.54688131   -6.4092651    124.47791  0.023154372  0.022373678           41 
  449000   0.54953837    -6.420334    123.98067  0.023010518  0.022307872           38 
  450000   0.55721834   -6.4292253    124.07321  0.022976521  0.022242099           27 
  451000   0.53983083   -6.4261569    124.07185  0.022925324  0.022176615           46 
  452000   0.54559504   -6.4177735    124.22171  0.022902232  0.022111231           69 
  453000   0.54501907   -6.4457107    123.94239  0.022800292  0.022045869           56 
  454000   0.54368234   -6.4351684    124.14952  0.022788091  0.021980712          129 
  455000   0.52500659   -6.4588011    123.95441  0.022702273  0.021915647           53 
  456000   0.53185842   -6.4482861    124.14113   0.02268661  0.021850843           81 
  457000    0.5366594   -6.4349409    124.33428  0.022672188  0.021786276           86 
  458000   0.54256469   -6.4462706    124.21297  0.022600614  0.021721828           67 
  459000   0.54698716   -6.4622883    124.03483  0.022519033  0.021657716           61 
  460000   0.53543169   -6.4594774    123.85261  0.022437068  0.021593552           53 
  461000   0.53100498   -6.4910987    124.12213  0.022437117  0.021529598          184 
  462000   0.53575801   -6.4855827    124.08742  0.022382292  0.021465924           59 
  463000   0.53441386    -6.472776     123.8465  0.022290587  0.021402372           95 
  464000    0.5319805    -6.492011    123.74153  0.022223695  0.021338961           62 
  465000   0.51799533   -6.4975257    123.90338  0.022204907  0.021275621          128 
  466000   0.52367012   -6.4952253      123.696  0.022120172  0.021212464          113 
  467000   0.52289452    -6.506605    123.65719  0.022065879  0.021149461          179 
  468000   0.52347362   -6.5013054    123.64746  0.022016998  0.021086573           82 
  469000   0.51823419   -6.5009545    123.80388  0.021997846  0.021023927          190 
  470000   0.53021047   -6.5190537     123.7521  0.021941862  0.020961311          110 
  471000   0.52045585   -6.5163859    123.85762  0.021913945  0.020898734          158 
  472000   0.51138483   -6.5066076    123.54344  0.021812048  0.020836498          102 
  473000   0.52489246   -6.5128176    123.56105  0.021769037  0.020774481           98 
  474000   0.51440189   -6.5097007    123.63236  0.021735647  0.020712633          149 
  475000   0.51968674   -6.5186812    123.85119  0.021728278  0.020650885           79 
  476000   0.50328806   -6.5182672    123.64058  0.021645761  0.020589404           90 
  477000   0.50823119   -6.5247624    123.47099  0.021570753  0.020528045           50 
  478000   0.50569125   -6.5395714    123.53671  0.021537083  0.020466858           64 
  479000   0.50810206   -6.5397777     123.5948  0.021502227  0.020405833           59 
  480000    0.5096528   -6.5366441    123.53594  0.021447211  0.020345092          141 
  481000   0.49704426   -6.5417616    123.57925  0.021410126  0.020284617           78 
  482000   0.49894326   -6.5308567    123.79922  0.021403737  0.020224262           86 
  483000   0.48591179   -6.5553349    123.71195  0.021344366  0.020164045           36 
  484000   0.49430466   -6.5369914    123.35075  0.021238077  0.020104036          111 
  485000   0.48788324   -6.5533786    123.44177  0.021209925  0.020044238          154 
  486000   0.48308237   -6.5607694    123.19946  0.021124736  0.019984613          143 
  487000   0.49752446   -6.5425519    123.51296  0.021135003   0.01992516           59 
  488000    0.4903589   -6.5592503     123.3371  0.021061664  0.019865945           98 
  489000   0.49219196   -6.5694647    123.41382  0.021031667  0.019806877           70 
  490000   0.48768598   -6.5556361    123.42092  0.020989952  0.019748017          154 
  491000   0.47071458   -6.5818683    123.32482  0.020930893  0.019689237           60 
  492000   0.47475806   -6.5777292    123.42053  0.020904561  0.019630583           66 
  493000   0.48403288   -6.5868375    123.29155  0.020840357  0.019572196           89 
  494000    0.4922508   -6.5733143    123.65311  0.020859162   0.01951393           72 
  495000   0.47550428   -6.5814429    123.05717  0.020716695  0.019455912          118 
  496000   0.46755646   -6.5844186    123.47491  0.020745113   0.01939807           38 
  497000   0.47082099     -6.60794    123.28917  0.020672228  0.019340363           68 
  498000   0.46466052   -6.5767875    123.31053  0.020634292  0.019282895           52 
  499000   0.46589789   -6.5842553    123.13417  0.020563488  0.019225569           96 
  500000   0.46939214   -6.6082403    123.24337  0.020540562  0.019168395          193 
  501000   0.46467526   -6.5974624    123.26437  0.020503055  0.019111369          213 
  502000   0.46351845   -6.6154731     122.9419  0.020408683  0.019054502          159 
  503000   0.46424247   -6.6012768    123.20965  0.020412467  0.018997853           48 
  504000   0.46356036   -6.6245282    123.05667  0.020346672  0.018941283           81 
  505000   0.46009539   -6.6164309    123.20667  0.020331133  0.018884978          256 
  506000    0.4694611   -6.6224595     123.0206  0.020260309  0.018828897          111 
  507000   0.46650582    -6.618879    123.00506  0.020217795  0.018772975          224 
  508000   0.46724896   -6.6157879    122.94273  0.020167771  0.018717203          106 
  509000   0.44390113    -6.623456    122.99131  0.020136102  0.018661562          216 
  510000   0.45722033   -6.6167309    122.92324  0.020085497  0.018606202          286 
  511000    0.4370271   -6.6374867    123.04595  0.020066201  0.018551071          196 
  512000   0.44481929   -6.6333036    123.00792   0.02002082  0.018496062          301 
Loop time of 1279.35 on 48 procs for 500000 steps with 4000 atoms

Performance: 67534.102 tau/day, 390.822 timesteps/s
99.4% CPU use with 48 MPI tasks x no OpenMP threads

MPI task timing breakdown:
Section |  min time  |  avg time  |  max time  |%varavg| %total
---------------------------------------------------------------
Pair    | 91.021     | 97.243     | 106.9      |  39.7 |  7.60
Neigh   | 8.7886     | 9.1179     | 9.4891     |   6.0 |  0.71
Comm    | 80.765     | 90.88      | 97.378     |  40.2 |  7.10
Output  | 0.92001    | 0.92072    | 0.94285    |   0.3 |  0.07
Modify  | 1061.6     | 1069       | 1073.2     |   7.2 | 83.56
Other   |            | 12.15      |            |       |  0.95

Nlocal:        83.3333 ave          89 max          78 min
Histogram: 3 4 5 6 9 8 3 2 3 5
Nghost:        2382.44 ave        2400 max        2353 min
Histogram: 1 0 2 5 6 5 10 8 6 5
Neighs:        16375.3 ave       18708 max       14504 min
Histogram: 2 8 5 9 8 2 3 7 2 2
FullNghs:      32750.1 ave       34912 max       30540 min
Histogram: 3 3 3 6 10 8 5 2 4 4

Total # of neighbors = 1572006
Ave neighs/atom = 393.00150
Neighbor list builds = 26837
Dangerous builds = 0

#clear
#
#next RN
#
#jump SELF
Total wall time: 0:21:22
