
units lj                  # Use reduced LJ style units
atom_style atomic         # Uncharged point particles
atom_modify map hash      # Needed for indexing of clusters etc
                          # Used to be able to find where atoms are in relation to each other.

# Define a lattice with which to populate the simulation cell. With units
# set to 'lj' the second argument to the lattice command is the reduced
# density rho* and the spacings are multiples of that required to acheive
# that density. Also define a simulation cell called 'box' in lattice units
# and fill it with atoms. Here we're creating a box which is ten lattice
# constants in each direction.
lattice fcc 1.0 spacing 1 1 1                 # All equal sizes - gives the right reduced density.
Lattice spacing in x,y,z = 1.5874011 1.5874011 1.5874011

region box block 0 10 0 10 0 10 units lattice # Defines a region, "box", in lattice units
create_box 1 box                              # Creates a simulation box as specified above,
Created orthogonal box = (0.0000000 0.0000000 0.0000000) to (15.874011 15.874011 15.874011)
  3 by 4 by 4 MPI processor grid
                                              # with one type of atom
create_atoms 1 box                            # Creates particles on lattice points
Created 4000 atoms
  using lattice units in orthogonal box = (0.0000000 0.0000000 0.0000000) to (15.874011 15.874011 15.874011)
  create_atoms CPU = 0.002 seconds


# Set the mass of the first (and only) atom type.
mass 1 1.0

# Lennard-Jones interactions between particles, 3.5 sigma cut-off. Apply
# long range tail corrections to energy and pressure and set all coefficients
# to unity since we work in reduced units here. Note that this doesn't shift
# the potential such that it goes to zero at the cutoff. That would require
# pair_modify('shift', 'yes').
pair_style lj/cut  3.5      # non-GPU version
pair_modify tail  yes
pair_coeff 1  1  1.0  1.0   # Intearaction between 1 and 1 set with epsilon = 1 and sigma = 1

write_data data.*
System init for write_data ...
Neighbor list info ...
  update every 1 steps, delay 10 steps, check yes
  max neighbors/atom: 2000, page size: 100000
  master list distance cutoff = 3.8
  ghost atom cutoff = 3.8
  binsize = 1.9, bins = 9 9 9
  1 neighbor lists, perpetual/occasional/extra = 1 0 0
  (1) pair lj/cut, perpetual
      attributes: half, newton on
      pair build: half/bin/atomonly/newton
      stencil: half/bin/3d
      bin: standard

#############################
#   M E L T   S Y S T E M   #
#############################

velocity all create 2.4 2750902 mom yes dist gaussian # Assign velocities
                                                    # Temperature 2.4, random number seed, zero linear momentum
						                                                        # Gaussian distribution

timestep 0.002   # simulation timestep
thermo 1000       # output thermodynamic data every 1000 steps

# Define a fix  in this case with index 1 applied to all
# particles in the simulation. This fix is for simulations
# in the anisotropic NPT ensemble. Note that we use the MTK
# correction.
fix 1 all npt temp 2.4 2.4 0.1 iso 5.68 5.68 0.5 mtk yes tchain 5 pchain 5 # Use NPT ensemble
                                                                         # Set temperature and pressure and damping
                                                                         # Numbers of thermostats in chain and in barostat
run 1000         # run for 10000 steps
Per MPI rank memory allocation (min/avg/max) = 3.642 | 3.644 | 3.648 Mbytes
Step Temp E_pair E_mol TotEng Press Volume 
       0          2.4   -8.3859253            0   -4.7868253   -2.2405722         4000 
    1000    2.3434012   -4.4238704            0  -0.90964738    5.8682558    5151.8188 
Loop time of 0.217213 on 48 procs for 1000 steps with 4000 atoms

Performance: 795530.719 tau/day, 4603.766 timesteps/s
99.4% CPU use with 48 MPI tasks x no OpenMP threads

MPI task timing breakdown:
Section |  min time  |  avg time  |  max time  |%varavg| %total
---------------------------------------------------------------
Pair    | 0.093125   | 0.10026    | 0.1092     |   1.3 | 46.16
Neigh   | 0.017497   | 0.018756   | 0.020321   |   0.5 |  8.63
Comm    | 0.06156    | 0.074013   | 0.084662   |   1.8 | 34.07
Output  | 2.3684e-05 | 2.4997e-05 | 3.2412e-05 |   0.0 |  0.01
Modify  | 0.018801   | 0.022624   | 0.025484   |   1.3 | 10.42
Other   |            | 0.001538   |            |       |  0.71

Nlocal:        83.3333 ave          95 max          78 min
Histogram: 8 10 8 7 5 5 2 1 1 1
Nghost:        1391.50 ave        1422 max        1362 min
Histogram: 4 2 3 6 11 8 4 3 2 5
Neighs:        7406.25 ave        8468 max        6555 min
Histogram: 2 6 8 5 10 4 6 2 1 4

Total # of neighbors = 355500
Ave neighs/atom = 88.875000
Neighbor list builds = 87
Dangerous builds = 20

# Equilibrate just above the melting temperature to avoid step fn in T

fix 1 all npt temp 1.25 1.25 0.1 iso 5.68 5.68 0.5 mtk yes tchain 5 pchain 5
run 1000
Per MPI rank memory allocation (min/avg/max) = 3.642 | 3.644 | 3.648 Mbytes
Step Temp E_pair E_mol TotEng Press Volume 
    1000    2.3434012   -4.4238704            0  -0.90964738    5.8682558    5151.8188 
    2000    1.2429145   -5.8542389            0   -3.9903333    5.7194736    4334.1532 
Loop time of 0.214684 on 48 procs for 1000 steps with 4000 atoms

Performance: 804902.301 tau/day, 4657.999 timesteps/s
99.6% CPU use with 48 MPI tasks x no OpenMP threads

MPI task timing breakdown:
Section |  min time  |  avg time  |  max time  |%varavg| %total
---------------------------------------------------------------
Pair    | 0.094956   | 0.10003    | 0.1096     |   0.9 | 46.59
Neigh   | 0.015519   | 0.016316   | 0.018159   |   0.3 |  7.60
Comm    | 0.064974   | 0.073399   | 0.082364   |   1.4 | 34.19
Output  | 2.3344e-05 | 2.3955e-05 | 3.0729e-05 |   0.0 |  0.01
Modify  | 0.019614   | 0.023004   | 0.026525   |   1.2 | 10.72
Other   |            | 0.001913   |            |       |  0.89

Nlocal:        83.3333 ave          91 max          76 min
Histogram: 2 0 6 7 12 2 13 2 2 2
Nghost:        1559.08 ave        1579 max        1541 min
Histogram: 2 2 8 11 4 8 3 5 3 2
Neighs:        8794.40 ave        9967 max        8047 min
Histogram: 4 3 11 7 11 7 2 2 0 1

Total # of neighbors = 422131
Ave neighs/atom = 105.53275
Neighbor list builds = 75
Dangerous builds = 8


# Small amount of linear quench

fix 1 all npt temp 1.25 ${temp} 0.1 iso 5.68 5.68 0.5 mtk yes tchain 5 pchain 5
fix 1 all npt temp 1.25 1 0.1 iso 5.68 5.68 0.5 mtk yes tchain 5 pchain 5
run 2000
Per MPI rank memory allocation (min/avg/max) = 3.643 | 3.645 | 3.648 Mbytes
Step Temp E_pair E_mol TotEng Press Volume 
    2000    1.2429145   -5.8542389            0   -3.9903333    5.7194736    4334.1532 
    3000    1.1404549   -5.9726446            0   -4.2623899    5.6795436    4280.3438 
    4000    1.0051327   -6.2246335            0   -4.7173113    5.7784512    4163.6514 
Loop time of 0.456842 on 48 procs for 2000 steps with 4000 atoms

Performance: 756497.086 tau/day, 4377.877 timesteps/s
99.7% CPU use with 48 MPI tasks x no OpenMP threads

MPI task timing breakdown:
Section |  min time  |  avg time  |  max time  |%varavg| %total
---------------------------------------------------------------
Pair    | 0.20681    | 0.2153     | 0.24725    |   1.7 | 47.13
Neigh   | 0.02717    | 0.028086   | 0.032542   |   0.6 |  6.15
Comm    | 0.12925    | 0.16076    | 0.17622    |   2.4 | 35.19
Output  | 4.8194e-05 | 4.9629e-05 | 6.3717e-05 |   0.0 |  0.01
Modify  | 0.037502   | 0.047772   | 0.068271   |   3.1 | 10.46
Other   |            | 0.004868   |            |       |  1.07

Nlocal:        83.3333 ave          89 max          77 min
Histogram: 3 0 4 6 8 10 5 5 3 4
Nghost:        1599.35 ave        1615 max        1580 min
Histogram: 2 0 2 4 12 7 12 3 3 3
Neighs:        9145.75 ave        9951 max        8523 min
Histogram: 4 5 7 6 6 11 4 0 2 3

Total # of neighbors = 438996
Ave neighs/atom = 109.74900
Neighbor list builds = 123
Dangerous builds = 0

#############################
# F R E E Z E  S Y S T E M  #
#############################

# Define solid atoms. This closely follows ten Wolde  Ruiz-Montero and Frenkel  Faraday Discuss  1996  104  93-110
# Compute components of the per-atom q6 vector
compute q6 all orientorder/atom degrees 1 6 components 6 nnn NULL cutoff 1.3 # compute the Q6 parameter.
                                                                             # Use all neighbours within 1.3 unit cell.

# get number of connections
compute coord_number all coord/atom orientorder q6 0.5

# An atom is solid if it has 8 or more connections (of a possible 14)
variable is_solid atom c_coord_number>=8
group solid dynamic all var is_solid    # Must be dynamic to update
dynamic group solid defined

# do clustering
compute cluster solid cluster/atom 1.3 # Create a cluster where all atoms within are solid and max 1.3 units from another member

# define chunks one chunk per cluster
compute clus_chunks solid chunk/atom c_cluster nchunk every compress yes  # Says which atoms are in which chunk

# count the size of each chunk
compute size_chunks solid property/chunk clus_chunks count


# Find the maximum entry in the vector of chunk sizes
variable max_n equal max(c_size_chunks)


# Thermo style which includes this variable
thermo_style custom step temp pe vol v_max_n

thermo ${N}  # Print the thermo information every 100 steps
thermo 1000  

# Reset the npt fix at a lower temperature (below freezing)
fix 1  all npt temp  ${temp} ${temp}  0.1  iso  5.68  5.68  0.5  mtk yes tchain  5  pchain  5
fix 1  all npt temp  1 ${temp}  0.1  iso  5.68  5.68  0.5  mtk yes tchain  5  pchain  5
fix 1  all npt temp  1 1  0.1  iso  5.68  5.68  0.5  mtk yes tchain  5  pchain  5

dump dmp2 all dcd ${N} traj_${rand}.dcd
dump dmp2 all dcd 1000 traj_${rand}.dcd
dump dmp2 all dcd 1000 traj_462431.dcd


# fix rnuntil all halt ${N} v_max_n >= 3980 error soft message no   # Stop when solidified


run 1000000 # 5000000  # Run for this many steps
Neighbor list info ...
  update every 1 steps, delay 10 steps, check yes
  max neighbors/atom: 2000, page size: 100000
  master list distance cutoff = 3.8
  ghost atom cutoff = 3.8
  binsize = 1.9, bins = 9 9 9
  4 neighbor lists, perpetual/occasional/extra = 1 3 0
  (1) pair lj/cut, perpetual
      attributes: half, newton on
      pair build: half/bin/atomonly/newton
      stencil: half/bin/3d
      bin: standard
  (2) compute orientorder/atom, occasional
      attributes: full, newton on
      pair build: full/bin/atomonly
      stencil: full/bin/3d
      bin: standard
  (3) compute coord/atom, occasional
      attributes: full, newton on
      pair build: full/bin/atomonly
      stencil: full/bin/3d
      bin: standard
  (4) compute cluster/atom, occasional
      attributes: full, newton on
      pair build: full/bin/atomonly
      stencil: full/bin/3d
      bin: standard
Per MPI rank memory allocation (min/avg/max) = 9.365 | 9.370 | 9.375 Mbytes
Step Temp PotEng Volume v_max_n 
    4000    1.0051327   -6.2246335    4163.6514            5 
    5000    1.0045039   -6.2386379     4153.243            5 
    6000    0.9910652   -6.2809761    4159.9915            5 
    7000   0.99746505   -6.2786778    4170.0345            9 
    8000    1.0271114   -6.2385174    4155.4149            4 
    9000   0.98450157   -6.2919303    4146.8713            7 
   10000    1.0238358   -6.2678394    4173.0861            7 
   11000    1.0016977   -6.2753591    4135.4717           11 
   12000    1.0005302   -6.2751538      4155.42            9 
   13000   0.99924556   -6.2764262    4148.9517            5 
   14000    1.0280767   -6.2991361    4148.6465            4 
   15000   0.99098166   -6.2588272    4150.6998            5 
   16000    0.9848335   -6.2823196    4142.4206           10 
   17000    1.0168372   -6.2915761    4137.6034            4 
   18000   0.98819669   -6.2660462    4169.4477            9 
   19000    1.0119465   -6.2703703    4153.1303            8 
   20000   0.99591957   -6.2608856    4157.2976            9 
   21000   0.99684002   -6.2999103    4153.0446            6 
   22000    1.0087865   -6.2969905    4144.2815            4 
   23000   0.96723128   -6.2918912    4150.8465           14 
   24000   0.97030063   -6.2808435     4161.056            3 
   25000    1.0078792   -6.2577295    4167.7038           10 
   26000     1.017019   -6.2653518    4152.1185           11 
   27000   0.99021624   -6.2808525    4149.3841            5 
   28000    1.0182326   -6.2549622    4153.5575            4 
   29000   0.97587796   -6.2846578    4144.5859            6 
   30000   0.98757639   -6.2889139    4151.4439            5 
   31000    1.0062235    -6.243711    4160.3509            3 
   32000    1.0074073    -6.243598    4159.5284            6 
   33000   0.99671684   -6.2929769    4168.6014            6 
   34000    1.0233252   -6.2501457    4162.0357            5 
   35000   0.99128594   -6.2698643    4154.1204            3 
   36000    1.0178756   -6.2646689    4170.0964            5 
   37000   0.99973873   -6.2711698    4152.6046            4 
   38000    1.0138725   -6.2773599    4155.3292           10 
   39000    1.0050342   -6.2694804    4144.1376            6 
   40000     1.015623   -6.2608547    4127.7364            7 
   41000   0.99868725   -6.3052549    4166.1365            6 
   42000   0.98679446   -6.2512498    4146.2977            4 
   43000    0.9890197   -6.2610497    4157.9201           10 
   44000   0.98470947   -6.2457393    4157.2736            7 
   45000   0.99072093   -6.2912214     4123.308           12 
   46000    1.0020802   -6.2215083    4156.2841            4 
   47000   0.99700676   -6.2980312    4146.9942            6 
   48000   0.99057237   -6.3144838    4134.7447            4 
   49000    1.0219433   -6.2633802    4164.3886            7 
   50000   0.98873997   -6.2716337    4152.7918            7 
   51000    1.0084141   -6.2688133    4160.0534            6 
   52000   0.98859699   -6.2758537    4158.7474            3 
   53000    1.0100271   -6.2809608    4151.4709            6 
   54000   0.99878145   -6.2466537    4161.7534            9 
   55000    1.0067654   -6.3081777    4151.1441            7 
   56000    1.0042079   -6.2703048    4148.8407           12 
   57000    1.0055476   -6.2841225     4156.918            3 
   58000    0.9944788   -6.2815066     4164.621           10 
   59000   0.97752495   -6.2744957    4157.2299            4 
   60000   0.99324017   -6.2779566    4151.8172            3 
   61000   0.99857554   -6.2772229    4173.2114            6 
   62000   0.99650579    -6.295429    4145.7101            8 
   63000    1.0108347   -6.2736356    4156.4853            6 
   64000   0.99345511   -6.2726426    4155.3674            7 
   65000    1.0038498   -6.2970344    4155.5299            5 
   66000    1.0001298   -6.2470297    4151.8787            6 
   67000    1.0094995   -6.2809868    4164.7159            8 
   68000    1.0204224   -6.2727826    4155.5354            7 
   69000   0.99682308   -6.2784498    4157.3912            8 
   70000   0.98309573   -6.2954923    4142.9111            3 
   71000   0.98710624   -6.2394781    4152.3196            6 
   72000   0.99784084   -6.2559114    4163.9307            4 
   73000    1.0081606   -6.2689531     4157.842            8 
   74000    1.0116906   -6.2634168    4153.8943            5 
   75000    1.0012783   -6.2751042    4148.2527            8 
   76000    1.0058441   -6.2538632    4148.5172           20 
   77000   0.98165868   -6.2849657    4150.6811            4 
   78000     1.001953   -6.2795066    4141.8436           10 
   79000    1.0035613   -6.3088214    4136.4231            7 
   80000    1.0353868   -6.2779049    4153.2576            6 
   81000    1.0021445   -6.2403076    4137.4677            6 
   82000     1.007943    -6.258897    4148.0537           11 
   83000   0.99035973   -6.2695828    4138.0041            5 
   84000   0.98208248   -6.2466394    4175.6086            5 
   85000   0.99469639   -6.2759594    4152.7616            5 
   86000    1.0194912   -6.2727819     4147.075            4 
   87000   0.98784334   -6.2734801    4166.2849            6 
   88000    1.0213583     -6.25567    4158.6055            6 
   89000   0.98016402   -6.2556836    4144.6145            6 
   90000    0.9892498   -6.2877449    4155.2032            7 
   91000    1.0082426   -6.2514349    4149.7322            4 
   92000    1.0173805   -6.2548811    4149.9637            4 
   93000    1.0099756   -6.3266341    4148.4708            4 
   94000   0.98925557   -6.2629466     4169.056           12 
   95000    1.0027559   -6.2522438    4158.7594           12 
   96000   0.99953889   -6.3008635    4155.7323            8 
   97000   0.99696313   -6.2792281    4156.7078            5 
   98000   0.98049394   -6.2648017    4151.8856            4 
   99000     1.007411    -6.263173     4162.056            6 
  100000   0.98401727   -6.2918923    4174.1605            9 
  101000    1.0033538   -6.2825381    4142.4847            7 
  102000    1.0120951   -6.2796237    4160.8918           10 
  103000   0.99225729   -6.2808992    4153.0316            4 
  104000    1.0182815   -6.2745188    4157.2103           10 
  105000    0.9956879   -6.2547668    4147.4108            8 
  106000    1.0112338   -6.2746331    4165.9037            3 
  107000   0.99747198   -6.2394191    4156.4266            3 
  108000   0.98796748   -6.2805352    4163.0955            9 
  109000    1.0225868   -6.2686739    4161.6975            7 
  110000   0.99119604   -6.2527567    4162.9972           10 
  111000   0.99611019   -6.2603881    4168.4758           13 
  112000    1.0023079   -6.2938876    4164.2206            4 
  113000    1.0067329   -6.2576719    4151.9104           13 
  114000    1.0046878   -6.2495066    4144.9761            7 
  115000   0.97930876    -6.244065    4157.8379            5 
  116000    1.0020852   -6.2690706    4146.4034            8 
  117000   0.97634477   -6.2947051    4157.6678            5 
  118000     1.009208   -6.2626841    4133.9034            8 
  119000    0.9984479   -6.2915525    4155.9277            6 
  120000   0.99787628   -6.2713115    4155.6088            7 
  121000   0.99497407   -6.2490986    4167.7687           10 
  122000    1.0185193   -6.2402263    4163.2081            7 
  123000   0.98723793   -6.2998997    4155.8599            5 
  124000   0.98034187   -6.2817748    4146.2799            4 
  125000    1.0097942   -6.2961496    4150.1075           12 
  126000     1.003856   -6.2869493    4158.7966           12 
  127000   0.99073756   -6.2706904    4147.4862            3 
  128000   0.98427281   -6.2965424    4158.0771            4 
  129000   0.97169302   -6.2813213    4164.6271           16 
  130000     1.013834   -6.2636819    4127.0796            4 
  131000   0.98059218   -6.2746253    4151.3076            9 
  132000   0.99115643   -6.2317316    4169.2707            7 
  133000    1.0073805   -6.2630438    4168.6614           10 
  134000   0.97674374   -6.2863511    4159.6204            6 
  135000    1.0105667   -6.2947571    4159.7541           11 
  136000    1.0017412   -6.2778781    4149.8603           15 
  137000    1.0004003   -6.2304595    4159.7105            5 
  138000    1.0065394   -6.2446365    4148.5551            8 
  139000   0.99115937   -6.2504773    4166.8536            3 
  140000    1.0050777    -6.270886    4155.2154            5 
  141000    1.0088474   -6.2626645    4157.9459           11 
  142000    1.0014705   -6.2935586    4144.6518            4 
  143000   0.98017779   -6.3079967    4154.8358            5 
  144000    1.0065063   -6.2736752    4144.9517            7 
  145000    1.0003174   -6.2595358    4161.2304            3 
  146000    1.0041918   -6.2823464     4141.132            8 
  147000    1.0001725   -6.2773261    4148.9699            5 
  148000   0.98552636   -6.2892492    4151.2815            6 
  149000   0.98171364   -6.3005239    4127.9092            5 
  150000   0.99400547   -6.2674011    4148.9252            3 
  151000   0.99167595   -6.2773104    4141.4697            7 
  152000    1.0108792   -6.2433004    4174.9212            5 
  153000    0.9775441   -6.2807945    4155.5144            6 
  154000    1.0089528   -6.3035676    4129.7196            8 
  155000   0.99409543   -6.2444067    4157.1817            4 
  156000    1.0024389   -6.2513166    4151.3345            6 
  157000   0.99844058    -6.250591    4158.1518            9 
  158000    1.0072759   -6.2756879    4153.9039            5 
  159000   0.99361972   -6.2602942    4142.4826            6 
  160000    1.0087262   -6.2620703    4149.1608            3 
  161000    1.0091827   -6.2896781     4164.193           10 
  162000     1.004795   -6.2987443    4145.8346            4 
  163000   0.98946386   -6.2728779    4143.6198            5 
  164000   0.98898258   -6.2827969    4156.9363            4 
  165000   0.97708539   -6.2724602    4170.4058            5 
  166000   0.98354364   -6.3011849    4166.2685            5 
  167000    1.0050362   -6.2446955    4151.6174           11 
  168000   0.98959675   -6.2592004    4159.7291            4 
  169000     1.015568    -6.255038    4146.8012            4 
  170000   0.98893975   -6.3165502    4163.6653            4 
  171000   0.99657434    -6.279392    4149.9076           10 
  172000    1.0154925   -6.2623139    4162.1829            7 
  173000   0.99599937   -6.2662772    4143.3662           11 
  174000   0.97924538   -6.2970341    4149.8959           29 
  175000    1.0148281   -6.2514055    4147.3974            6 
  176000   0.99474646   -6.2243705    4158.1785            3 
  177000    1.0166149   -6.2851617    4162.5068            9 
  178000    1.0220814   -6.2546121    4147.5565            6 
  179000   0.99552799   -6.2569875     4150.665            5 
  180000    1.0042614   -6.2700824    4142.9393            3 
  181000    1.0023254   -6.2752078    4144.0642            8 
  182000    1.0003757   -6.2542594    4157.8159            4 
  183000    1.0075591   -6.3207033     4138.543           13 
  184000    1.0135566   -6.2902207    4146.5317            6 
  185000   0.99903587   -6.2812754    4146.7792            4 
  186000   0.99463433   -6.2793817    4156.4429            6 
  187000    1.0149632    -6.273882    4156.4247            5 
  188000    1.0040627   -6.3104292    4165.3649            5 
  189000   0.99714504   -6.3109387    4149.4979           16 
  190000   0.99660257   -6.2728542    4139.0731            8 
  191000    1.0132353   -6.2995892    4134.5562            8 
  192000    1.0150064   -6.3354753    4146.1299            4 
  193000   0.99410519   -6.2492551    4159.8388            6 
  194000   0.98471432   -6.2727261    4155.5634            9 
  195000    1.0105187    -6.255295    4156.1106            7 
  196000   0.98846366   -6.2638933    4166.8669            5 
  197000    1.0034563   -6.2616611    4167.7721            5 
  198000   0.99534229   -6.2767318    4142.6654            6 
  199000    1.0022455   -6.2680614    4161.4639            4 
  200000   0.99940667   -6.2848211    4159.1095            6 
  201000    1.0040608   -6.2368717    4148.7758            6 
  202000   0.99972177   -6.2489671    4153.3002           16 
  203000   0.97053257   -6.2730241    4145.2515            8 
  204000   0.98889678   -6.2508082    4153.7428            4 
  205000    1.0118688   -6.2759237    4146.0916            5 
  206000   0.99178617   -6.2470646    4165.1437            4 
  207000     1.001694   -6.2679475    4156.3978            3 
  208000    1.0162519   -6.2845772    4150.4853            5 
  209000   0.99657926   -6.2551011    4165.7932            6 
  210000    0.9883318   -6.2556941    4142.8051            6 
  211000   0.99488004   -6.2562091    4159.6569            5 
  212000    1.0112216   -6.2644864    4155.7608            7 
  213000   0.98691675   -6.2736693    4151.5147            8 
  214000    1.0209806     -6.26685    4160.1004            4 
  215000    1.0068155   -6.2761194    4126.7369            8 
  216000   0.98448382   -6.2642737    4156.3139            4 
  217000    1.0014095   -6.2490255    4159.1203           14 
  218000   0.99770423    -6.282682     4146.039            7 
  219000    1.0021092   -6.2849901    4151.9481            7 
  220000   0.97980438   -6.2707305    4155.3143           10 
  221000   0.98613455   -6.2542073      4143.91            4 
  222000   0.99276119   -6.2916276    4154.5026            5 
  223000    1.0106208    -6.261335    4139.2326            5 
  224000    1.0091466   -6.2940104     4156.599            4 
  225000    1.0048398   -6.2719347    4143.3025            7 
  226000    1.0003314    -6.231302    4151.7592           14 
  227000   0.98916229   -6.2677661    4162.6284            7 
  228000   0.98524099   -6.2990594    4149.4921            6 
  229000    1.0089484   -6.2694501    4156.7665            6 
  230000   0.98330633   -6.3149903    4135.1152            8 
  231000   0.99755471   -6.2251329    4142.1722            9 
  232000   0.98862129   -6.2860094    4152.7357            4 
  233000    1.0024836    -6.229294    4167.2495            7 
  234000   0.97346236   -6.2456634    4152.0243            3 
  235000    1.0014409   -6.2320209    4160.4376            4 
  236000    1.0201517   -6.2934461    4139.4967           10 
  237000    1.0423081   -6.2623444    4157.0115            5 
  238000    0.9819392   -6.2336205     4159.123            4 
  239000    1.0093905   -6.2728352    4146.1582            3 
  240000    0.9956282   -6.2552498    4142.0385            6 
  241000    1.0058989   -6.2488266    4148.8639            3 
  242000    1.0141288   -6.2738095    4154.0649            3 
  243000     1.001898   -6.2591031    4150.0897            6 
  244000     1.017177   -6.2798725    4149.5265            9 
  245000    1.0318164   -6.3049137    4140.7202           15 
  246000   0.99222298   -6.2719944    4158.3481            8 
  247000     1.000961   -6.2769733    4131.9509            8 
  248000    1.0205555   -6.2752695    4154.7206           11 
  249000    1.0117902   -6.2914027    4152.3538            5 
  250000    1.0095843   -6.2555527    4152.6825           11 
  251000   0.97805757   -6.2635105    4146.4595            7 
  252000   0.99729794    -6.265879    4155.0878            7 
  253000    1.0029029   -6.2949463    4157.7154            5 
  254000    1.0225111   -6.2648761    4163.7332           11 
  255000    1.0053335    -6.247507    4160.2443           11 
  256000    1.0070155   -6.2739214    4154.4342            7 
  257000   0.99813317   -6.2712375    4149.0766           10 
  258000   0.98541032   -6.2741028    4145.2816            9 
  259000    1.0119013   -6.2615508    4165.1443            6 
  260000   0.99463326   -6.2818778    4175.8052            7 
  261000   0.99260854   -6.2297533    4161.3692            5 
  262000    1.0202009   -6.2583927    4139.3039            4 
  263000    1.0130574   -6.2818343    4153.3687            4 
  264000   0.98728684   -6.2619033    4155.4744            9 
  265000    1.0055609   -6.2590391    4140.4051           11 
  266000   0.99374367   -6.2387137    4154.3538            8 
  267000    1.0004033    -6.301548    4170.2824            5 
  268000   0.98959323   -6.2804372    4150.5071            7 
  269000    1.0153562    -6.250466    4155.7832           11 
  270000    1.0113837   -6.2872096    4155.8968            5 
  271000   0.96973165   -6.2624235    4144.3797            4 
  272000    1.0090448   -6.2720155    4154.8441            4 
  273000     1.010359   -6.2577677    4155.7229            5 
  274000    1.0068817   -6.2636485    4165.1026           13 
  275000   0.98701753   -6.2692778    4158.9917            5 
  276000    1.0075096   -6.2591052    4153.2702            8 
  277000    1.0164694   -6.2661459    4151.4164            7 
  278000   0.99175514   -6.2351928    4168.1772            5 
  279000    1.0177543   -6.2838629    4165.8775            5 
  280000    1.0013615   -6.2788418    4146.4182            6 
  281000   0.98981379   -6.2840539    4145.2898            3 
  282000   0.99145238   -6.2603631    4165.6755            6 
  283000    1.0038681   -6.2739906    4156.4391            6 
  284000   0.97288522   -6.2510644    4148.3742            7 
  285000    1.0102156   -6.2688077    4157.4588            6 
  286000   0.99471694   -6.3033913     4152.468            6 
  287000   0.98319335   -6.2629591    4151.3994            8 
  288000    1.0105453   -6.2811288    4147.8078           13 
  289000    1.0090801   -6.3296666    4132.5485            5 
  290000    1.0016593   -6.2892597    4163.2846            6 
  291000   0.98669931   -6.2799881    4139.3308            7 
  292000    1.0188703   -6.2610707    4153.4358            3 
  293000    1.0011068   -6.2642385    4169.6631            5 
  294000   0.98982836   -6.2763887    4161.9281            4 
  295000    1.0110294   -6.3022141    4156.4058            4 
  296000   0.98133502   -6.2609681    4156.9945            5 
  297000   0.99509736    -6.266568    4153.0766            7 
  298000    1.0112227   -6.2728449    4160.1253            4 
  299000    1.0312176   -6.2546811     4150.686            4 
  300000   0.98815158    -6.229329    4161.6954            8 
  301000   0.98654002   -6.2653727    4134.2509            4 
  302000   0.99823651   -6.2877765     4149.328           10 
  303000   0.98561287   -6.2508423    4162.3873            7 
  304000    1.0015483   -6.2732403    4149.5212            4 
  305000   0.98256228    -6.279888    4165.3791            6 
  306000    1.0053058   -6.2780936    4167.0587            4 
  307000   0.98622472   -6.2719493     4164.685            5 
  308000    1.0103634   -6.3009858    4150.3384            4 
  309000   0.98634089   -6.2814788    4180.1656            3 
  310000    1.0091815   -6.2756429    4159.6214            8 
  311000   0.99944521   -6.2870209    4140.7903            3 
  312000    0.9986978   -6.2472548    4171.7495            4 
  313000    1.0078011   -6.2793249    4161.5325            5 
  314000   0.99265686   -6.2805033    4152.2798            4 
  315000    1.0006485   -6.2639805    4156.2096            9 
  316000    1.0081217   -6.2405796    4153.2229            6 
  317000     1.010558   -6.2738968    4161.7922            7 
  318000     1.002193   -6.2303613    4150.8549            6 
  319000   0.99057034   -6.2583903     4158.465            5 
  320000   0.99257759   -6.2773103    4130.3451           14 
  321000    1.0074216   -6.3059618    4122.4281            7 
  322000    1.0062387   -6.2787961    4154.5182            5 
  323000   0.99223806   -6.2982403    4155.7295            4 
  324000    1.0075961    -6.275052    4158.0801           10 
  325000    1.0144427   -6.2992646    4151.0357            4 
  326000   0.97365642    -6.274207    4151.7285            5 
  327000   0.99577221   -6.2863976    4143.9185            8 
  328000    1.0107061   -6.2837114    4145.9681            5 
  329000    1.0053709   -6.2787575    4146.7767           13 
  330000   0.98922707   -6.2832849    4164.3597           10 
  331000    1.0255071   -6.2630864    4145.9491            4 
  332000    1.0027944   -6.2849563    4151.6717            6 
  333000   0.99388246   -6.2792665    4147.3251           24 
  334000   0.98206747   -6.2659789    4155.7765            4 
  335000    1.0077494   -6.2633119      4159.94            6 
  336000    1.0166429   -6.2694935    4152.0215            8 
  337000    1.0042734   -6.2899011    4152.8806            6 
  338000   0.98927544   -6.2329073    4155.1083           10 
  339000   0.99753628   -6.2824911    4145.6832            6 
  340000    1.0056414   -6.3201411    4127.3246            8 
  341000    1.0045226   -6.2950429    4130.4687           11 
  342000   0.98570627   -6.2499568    4139.7779            4 
  343000    1.0049226    -6.290154    4153.2132            5 
  344000   0.99908808   -6.2805424    4156.0956            6 
  345000    1.0046666   -6.2978549    4144.0386            6 
  346000    1.0043433     -6.29861    4159.9151            8 
  347000   0.99323473   -6.2475668    4161.9993            8 
  348000    1.0097731   -6.2622171    4161.7931            7 
  349000    1.0128893   -6.2687685    4137.9253            4 
  350000   0.99466289   -6.2847104    4159.4973           16 
  351000    1.0054211   -6.2926282    4147.5119            6 
  352000   0.98722044   -6.3150088    4164.0835            8 
  353000   0.98834918   -6.2552564    4154.8875            3 
  354000   0.98022322   -6.2880174     4164.491            4 
  355000   0.98483393   -6.2938152    4155.4243            7 
  356000   0.97610243   -6.2930928    4148.4704            9 
  357000   0.99356314   -6.2646069    4154.3669            5 
  358000    1.0130661   -6.2629768    4150.5781            7 
  359000    1.0041929    -6.274689    4151.3383            8 
  360000    1.0054757    -6.277389    4154.9122            7 
  361000    1.0139685   -6.2642975     4143.204            5 
  362000    1.0023805   -6.2405835    4157.2641            2 
  363000   0.99204241   -6.2557973    4153.1933            6 
  364000   0.98460138   -6.2334152    4173.0996            5 
  365000   0.99232883   -6.2981149    4135.4637            6 
  366000    0.9929666   -6.2692879    4165.8091            5 
  367000    1.0030271   -6.2789824    4155.6851           17 
  368000   0.98578033   -6.2551021    4171.2408            8 
  369000   0.98276122   -6.2712496    4145.5005            7 
  370000   0.99590668   -6.2686124    4151.8868            6 
  371000    1.0138749    -6.281825    4156.0548            6 
  372000   0.99442259   -6.2939043    4136.5939            7 
  373000   0.97034447   -6.2272401    4150.5981            4 
  374000   0.99743942    -6.274261    4162.3143            4 
  375000    1.0049745   -6.2604772    4161.1809            5 
  376000   0.98102379   -6.2736526    4145.4957           11 
  377000   0.99860696    -6.254199    4170.1603            5 
  378000   0.98801385   -6.2684148    4156.0925            8 
  379000    1.0052108   -6.2783106    4159.1763           10 
  380000    1.0205827   -6.2886163    4132.0295            4 
  381000   0.99857784   -6.2900497    4152.1749            8 
  382000   0.99363122   -6.2478248    4157.8769           10 
  383000   0.99686795   -6.2718047     4154.553            3 
  384000    1.0123219   -6.2625726    4173.0526            8 
  385000    0.9922544   -6.3121768    4152.6229            7 
  386000    1.0148172   -6.2786093    4145.2851           11 
  387000    1.0175171   -6.2883254    4152.2628            4 
  388000   0.98981468   -6.2850148     4140.316           10 
  389000    1.0019452   -6.2886497    4135.4909            5 
  390000   0.98219896   -6.2463937    4165.7015            5 
  391000    1.0008881   -6.2833585    4158.5573            7 
  392000    1.0112927   -6.2396577    4149.4512           14 
  393000   0.98656202    -6.272587    4170.9547            6 
  394000    1.0286111   -6.2452813     4169.973            6 
  395000    1.0158502   -6.2547194    4166.9974            3 
  396000    0.9806471   -6.2834978    4142.0081            4 
  397000   0.99447175    -6.273246    4152.7052           10 
  398000   0.99691633   -6.2692933    4158.3729            6 
  399000    1.0024333     -6.28761    4140.4242            6 
  400000    1.0149881   -6.2762286    4150.8247            6 
  401000    1.0099879   -6.3039229      4154.45            8 
  402000   0.99061423   -6.2730324    4148.8914            5 
  403000    1.0110726   -6.2590479     4152.731            5 
  404000    1.0006038   -6.2707641    4150.7917            4 
  405000   0.98383464   -6.2701518    4141.6887            6 
  406000   0.99691995   -6.2390058    4159.3828            5 
  407000    1.0078636   -6.2741897    4151.7287           21 
  408000    1.0049091   -6.2555973    4172.7284            4 
  409000    1.0039548   -6.2591765    4154.1056            6 
  410000     1.012592   -6.3177231    4140.5197            9 
  411000    1.0069192    -6.247395    4161.6483            4 
  412000    1.0238142   -6.2430812    4169.4481           12 
  413000    1.0079015   -6.2779699    4161.7554            8 
  414000   0.98012822   -6.2660719    4137.0185            8 
  415000   0.99215968   -6.2834268    4145.4984            8 
  416000    1.0010429   -6.2762436    4160.9455            5 
  417000   0.99969736   -6.2833066    4146.2737           15 
  418000   0.99717038   -6.3112395    4151.8092            5 
  419000    1.0012088   -6.2772229    4152.3825            9 
  420000   0.98084982   -6.2686249    4127.1923            7 
  421000    1.0055232    -6.238864    4151.6199            4 
  422000    1.0054725   -6.2412703    4136.6481            9 
  423000    1.0118284   -6.2331451    4182.6539            6 
  424000   0.99257677   -6.2554697    4141.7705            7 
  425000    1.0179092   -6.2503774    4154.6442            9 
  426000    1.0110017   -6.2418724     4144.044           10 
  427000   0.99288165   -6.2492922    4140.6583            7 
  428000    1.0151626   -6.2580533     4148.469            5 
  429000   0.98941709   -6.2924851    4156.8484           10 
  430000    1.0180804   -6.2548444    4156.3762            4 
  431000    0.9665474   -6.2829644    4151.1624           17 
  432000   0.99193129   -6.2815541    4132.3032            4 
  433000    1.0114892    -6.265777    4149.6225           11 
  434000    1.0035684   -6.2871547    4147.6241            7 
  435000   0.99917248   -6.2658083    4149.5698           14 
  436000    1.0151089   -6.2496977    4158.4816           10 
  437000    1.0154643    -6.259697    4153.9511            9 
  438000    0.9983962   -6.2700967    4162.9874            3 
  439000   0.99157439   -6.2850743     4131.293            8 
  440000     1.014722    -6.265898    4147.7343           14 
  441000    1.0083716   -6.3076854    4138.0704            3 
  442000    1.0122574   -6.2429029    4152.9043            6 
  443000   0.98401372   -6.2613424    4149.4926            5 
  444000    1.0081139   -6.2954378    4154.8784            4 
  445000    1.0010196   -6.2851967    4142.2406            8 
  446000   0.99762335    -6.269762     4152.043            4 
  447000     1.013164   -6.2503201    4150.1259            6 
  448000    1.0033397   -6.2685493    4140.7842            5 
  449000    1.0010222   -6.2689668     4169.501           11 
  450000    0.9946497   -6.2676487    4164.3593            4 
  451000    1.0030412   -6.2741764    4161.9495           11 
  452000     1.016978   -6.2931255    4155.7545           13 
  453000   0.97831337   -6.2711338    4154.4764            8 
  454000   0.99459017   -6.2616774    4161.1714            2 
  455000    1.0136452   -6.2562153    4154.2668            7 
  456000   0.99286874   -6.2950472     4154.448            4 
  457000    1.0150907   -6.2413894    4158.7651            6 
  458000    1.0213472   -6.2623716    4156.9769            3 
  459000    1.0014746   -6.2965743     4150.699            7 
  460000    1.0034055   -6.2730731      4158.31            8 
  461000    1.0041932   -6.2363124    4152.8177            6 
  462000    1.0150852   -6.2723367    4162.1383            9 
  463000   0.97280307   -6.2902452    4143.0904            3 
  464000    1.0238754   -6.2991225    4140.0802           12 
  465000    1.0074456    -6.277339    4160.5027           14 
  466000   0.99440965   -6.2871054    4144.8345            8 
  467000   0.99749014   -6.2897012    4147.5856           10 
  468000   0.98564528   -6.2450061    4152.4829           11 
  469000   0.99583174   -6.2567147    4160.8457            9 
  470000   0.99305288   -6.2681244    4139.5514           10 
  471000     1.004877   -6.2707233    4157.4502            8 
  472000     0.988834   -6.2539298    4145.0691            5 
  473000   0.99790757   -6.2621027    4159.4586            8 
  474000    1.0357127    -6.276669    4151.3177            5 
  475000   0.99993125   -6.2833759    4151.2787           12 
  476000   0.99078143   -6.2584097    4161.7144            7 
  477000    1.0172736   -6.2538215     4143.476            4 
  478000    1.0043189   -6.2795119    4181.2727            7 
  479000   0.99312565   -6.2646055    4172.6299            5 
  480000    1.0009426    -6.261603    4149.4358            6 
  481000    0.9890949   -6.2355395    4166.3221            4 
  482000     1.010096   -6.2996701    4145.1334            6 
  483000   0.96959085   -6.3056928    4138.2081            3 
  484000    0.9988548   -6.2813071    4144.9891            8 
  485000    1.0050372   -6.2802159    4159.5286            7 
  486000   0.98242205   -6.2778656    4141.2211            7 
  487000    0.9989458   -6.2597446    4156.5035            3 
  488000   0.99320707   -6.2877913    4149.9773            4 
  489000    1.0121451   -6.2871075    4174.6577            4 
  490000    1.0108514   -6.2930819    4152.6064            4 
  491000   0.99543917   -6.2733768    4150.6112            7 
  492000   0.98763527   -6.2690083    4163.8636           11 
  493000   0.97046718   -6.2903841    4138.0074           13 
  494000    1.0050129   -6.2718808    4167.2574            3 
  495000   0.97534512   -6.2591536    4153.6216            7 
  496000   0.97204356   -6.2688985    4168.6095            4 
  497000   0.98803971   -6.2431086    4168.9675            5 
  498000   0.99457352   -6.2989434    4160.1785            6 
  499000   0.97963636   -6.2872529    4130.9236            4 
  500000    1.0124811   -6.2715636    4154.7869            5 
  501000    1.0021605   -6.2554358    4152.5324            8 
  502000      1.00347   -6.2807089    4149.1851            8 
  503000   0.99773604   -6.2764729    4149.2445            9 
  504000   0.99675695   -6.2692088    4155.9131            9 
  505000     1.006353   -6.2790939    4149.9739            7 
  506000   0.99255095   -6.2584152    4133.0748            4 
  507000   0.99760674   -6.2792131    4157.0296           13 
  508000   0.99007784   -6.2834217    4166.8877            7 
  509000     1.015274   -6.2070649    4152.6682            5 
  510000   0.98584476   -6.2757155    4163.4869           10 
  511000   0.98127727   -6.2914981    4158.5501            4 
  512000    1.0066022   -6.2711935    4151.6787            5 
  513000    1.0086572   -6.2823571    4132.8409            7 
  514000   0.99378366   -6.2638488    4153.9682           10 
  515000    1.0092074   -6.2684897    4164.9882            9 
  516000    1.0106249    -6.265601    4147.5142           13 
  517000    1.0013178   -6.2550066    4143.1208            4 
  518000   0.98561898   -6.2915686    4168.1116            5 
  519000    0.9931802   -6.2889268    4139.7573            4 
  520000    1.0038146   -6.2709093    4161.1518            8 
  521000   0.99240504   -6.2706932     4150.186            5 
  522000    1.0088946   -6.2834347    4162.6466            6 
  523000    1.0107532   -6.2494975    4150.2831            5 
  524000   0.99919631   -6.2521393     4161.738            6 
  525000    0.9873503   -6.2655769    4150.2371            7 
  526000   0.99930775   -6.3035778    4147.1141            3 
  527000    1.0012299   -6.2557845    4154.5491            9 
  528000    1.0171585   -6.2860657     4156.404            8 
  529000    0.9847291   -6.2779316    4160.7107            7 
  530000    0.9695182   -6.2554839    4151.9851            7 
  531000    1.0052237   -6.2426291     4155.474            8 
  532000   0.99929268   -6.2735544     4170.389           11 
  533000   0.98228247   -6.2705959    4163.4425            4 
  534000    1.0083787   -6.2773418    4146.5337           14 
  535000    1.0079694   -6.2953532    4146.9223            9 
  536000   0.99792882   -6.2650441    4164.6721           12 
  537000   0.98517832   -6.2135379    4155.2582            6 
  538000    1.0195989    -6.278688    4160.5616            6 
  539000   0.99885656   -6.2808536    4163.8959            3 
  540000    1.0122097   -6.2682085    4162.8107            8 
  541000    1.0073442    -6.245148    4171.2958            3 
  542000    1.0175518   -6.2204187    4157.0533           10 
  543000   0.98104493   -6.2793557    4163.3423            7 
  544000    1.0005944   -6.2620981    4155.7977            5 
  545000   0.97736018   -6.2387409    4142.5149            7 
  546000   0.99710774   -6.2609759    4160.7342            7 
  547000   0.98492319   -6.2608193    4133.9831            4 
  548000    1.0058823   -6.2633558    4167.1431            3 
  549000    1.0071664   -6.2702089      4180.42            8 
  550000     1.009126   -6.2564987    4157.3521            4 
  551000   0.97816491   -6.2166218    4172.0975            5 
  552000    1.0094859   -6.2557833    4148.2671           14 
  553000   0.98415543   -6.2517557    4137.4056            4 
  554000    1.0243413   -6.2412223    4156.7656            7 
  555000    1.0124603   -6.2739353    4148.5116            9 
  556000    1.0046434   -6.2819154    4144.7993            3 
  557000   0.98282567   -6.3083146    4150.3931            8 
  558000    1.0047281   -6.3016081    4148.3603            5 
  559000    1.0028769   -6.3037402    4154.7837           11 
  560000    1.0215957   -6.2247925    4152.1783            7 
  561000   0.98645123   -6.3108687     4136.017           10 
  562000   0.99405256   -6.2661903    4159.5856            9 
  563000    1.0019094   -6.2608496    4156.1822            5 
  564000    1.0088424   -6.2885325    4142.9661            7 
  565000   0.98921264   -6.2521911    4151.0882            8 
  566000    1.0086907   -6.2556949     4157.206            6 
  567000   0.99887754   -6.2664364    4170.3805            5 
  568000    1.0115949    -6.250215    4155.8022           10 
  569000    1.0077115   -6.3027068    4135.8528            4 
  570000   0.99371423   -6.2365192    4157.6171            6 
  571000     1.002868   -6.2444506    4160.3251            9 
  572000    1.0015249   -6.2587541    4140.4683           10 
  573000    1.0218481   -6.2697474    4164.1203            7 
  574000    1.0137752   -6.2570342    4154.9261            4 
  575000    1.0188124   -6.2433315    4158.7992            5 
  576000   0.98806838   -6.2583216    4155.1943            4 
  577000    1.0129061   -6.3038266    4163.3828           13 
  578000    1.0097264   -6.2402981    4151.0674           10 
  579000   0.98753955   -6.2698691    4153.7554            7 
  580000    1.0112406   -6.2704493    4142.7504            4 
  581000    1.0020097   -6.2685606    4158.7711            2 
  582000   0.99742641   -6.2853375    4120.4048            6 
  583000     1.008382   -6.3037711     4141.678            4 
  584000    1.0093611    -6.260247    4141.2223            2 
  585000     1.004727   -6.2602612    4141.9969            6 
  586000   0.99515498   -6.2776919    4154.4697            3 
  587000    1.0001912   -6.2439192    4154.7369           12 
  588000   0.99875514   -6.2655276    4152.3239           13 
  589000   0.99903165   -6.3017588    4160.6642            6 
  590000    1.0173644   -6.2501352    4144.8775            3 
  591000    1.0189712   -6.2671207     4166.147            3 
  592000   0.99762251   -6.2716283    4150.7295            6 
  593000   0.99658457   -6.2921941    4162.2546            8 
  594000   0.99278604   -6.2528525    4160.2361            3 
  595000   0.99954254   -6.3110188    4150.9651           13 
  596000    1.0105167   -6.2704774    4149.3614           12 
  597000   0.99581269   -6.2636699    4163.8185            7 
  598000   0.99027242   -6.2839998     4148.941            8 
  599000   0.97906183   -6.3131878    4152.6188            8 
  600000    1.0277375   -6.2640687    4145.3479            4 
  601000   0.99164929   -6.2641244    4139.1815            9 
  602000    1.0020336   -6.2579208    4158.6959            6 
  603000    1.0348674   -6.2827647     4142.703            8 
  604000    1.0141689   -6.2675013    4151.8492            6 
  605000     1.002988   -6.2668184    4147.0946            5 
  606000   0.99914069   -6.2682029    4149.7031            5 
  607000   0.99773606    -6.287738    4137.8198            3 
  608000    1.0308755    -6.309222    4170.4751            4 
  609000    1.0176843   -6.2586899    4143.4156            3 
  610000    1.0162936   -6.2419418    4149.0399           10 
  611000    1.0077088    -6.267402    4158.2066            5 
  612000    1.0150913   -6.3019949    4162.6687            7 
  613000     1.001964   -6.2681708    4158.0655            7 
  614000   0.99356774   -6.2564127    4153.7484            5 
  615000   0.97313309   -6.2858734    4163.4221            4 
  616000    1.0065715   -6.2985171     4140.199            9 
  617000   0.99444669   -6.2776749    4150.1573            4 
  618000    1.0071143   -6.2388306    4172.2391            5 
  619000   0.99969474   -6.2889138    4149.7268            3 
  620000     1.003325   -6.2655333     4158.735            6 
  621000    1.0017769   -6.2624913    4172.6515            6 
  622000    1.0102739   -6.2858568    4151.9309            6 
  623000   0.99014997   -6.2626758    4157.0809            7 
  624000   0.97722918   -6.2793557     4135.279            3 
  625000     1.003198   -6.2827347    4157.3239            4 
  626000   0.99639609   -6.2662831     4155.219            5 
  627000    1.0182272   -6.2368641     4159.212            5 
  628000   0.97770959   -6.2294648    4175.8691            4 
  629000   0.98371995   -6.3324566    4136.1084            6 
  630000    1.0089711   -6.2541471    4172.3318           10 
  631000   0.98698643   -6.2525982    4155.1167            6 
  632000   0.98683998   -6.3078656    4154.0742            6 
  633000   0.98811829   -6.2982766     4143.853            7 
  634000    1.0007519   -6.2698177    4161.4857            6 
  635000   0.99730296   -6.2816678    4161.5974           13 
  636000   0.99952769    -6.258846    4151.8914           10 
  637000    1.0001916   -6.2748049    4125.7665           10 
  638000   0.97915568   -6.2622338     4151.268            7 
  639000    1.0196373   -6.2538546    4152.7777            4 
  640000   0.98483168   -6.2447864    4144.2502            8 
  641000    1.0138328    -6.233062    4152.0861            9 
  642000    1.0077045    -6.274304    4159.9998            8 
  643000    1.0008977   -6.2791245    4133.0238           10 
  644000   0.98812024   -6.3082707    4143.4475            6 
  645000    1.0066085   -6.3023825    4154.8346            4 
  646000   0.99119414   -6.2751023     4154.012            7 
  647000   0.98128917   -6.2544965    4137.8971            5 
  648000   0.99836135   -6.2639742    4164.3673            7 
  649000    1.0063397    -6.282268     4158.488            6 
  650000    1.0106697   -6.2718689    4159.6004           14 
  651000   0.99163767   -6.2743179    4132.5427           12 
  652000    1.0316234   -6.2706944    4152.6769            7 
  653000   0.98033499   -6.2713262    4165.0689           10 
  654000    1.0030926   -6.2960352    4144.1827            4 
  655000    1.0096896   -6.2896606    4141.7628            9 
  656000     1.006717   -6.2624572    4151.5239            4 
  657000   0.98595291   -6.2832898    4144.4817           33 
  658000    1.0035509   -6.2717816     4145.888            5 
  659000   0.97866873   -6.2805504     4143.311           16 
  660000     1.010704   -6.2444779    4143.4328            5 
  661000    1.0086739   -6.2954389     4155.281            7 
  662000    1.0125527   -6.2729503    4160.7855            4 
  663000   0.99561421   -6.2579829    4163.1076           13 
  664000   0.98037668   -6.2814732    4159.0643            4 
  665000    1.0145718   -6.2575839    4153.2087            3 
  666000   0.99120115   -6.2842441    4131.1369            4 
  667000   0.99545003    -6.286044    4148.6359            3 
  668000    1.0227163   -6.2756037     4163.016            4 
  669000   0.97668109   -6.2909817    4153.2696           10 
  670000    1.0025405    -6.242025    4172.4693            4 
  671000   0.97991569   -6.2349185    4160.7391            5 
  672000   0.98657133   -6.2616575    4156.3675            7 
  673000    1.0038548   -6.2587891    4134.5851            4 
  674000    1.0010058   -6.2605148    4152.6096            6 
  675000   0.99100911   -6.2893791    4137.2781            4 
  676000    1.0197811   -6.2881178    4164.7073            5 
  677000    1.0130803   -6.2518816    4148.1854            9 
  678000   0.98985438    -6.249727    4172.8636            4 
  679000   0.98312067   -6.2571803    4141.9791            7 
  680000     1.001789   -6.2842847    4144.2042            3 
  681000    1.0077052   -6.2706023    4139.7208            7 
  682000    1.0145599   -6.2890288    4141.9895           11 
  683000   0.99777074   -6.2884949    4157.0552            7 
  684000   0.99438993   -6.2609054    4149.0863            6 
  685000    1.0091667   -6.2590287    4161.0018            8 
  686000   0.99642281   -6.2385507    4151.1916            5 
  687000    0.9977818   -6.2409892    4152.4968            6 
  688000    1.0021197   -6.3104176    4138.6205           10 
  689000    1.0267269   -6.2818395    4156.3933           11 
  690000   0.99949405   -6.2600699    4150.6228            4 
  691000   0.99089688   -6.2485522    4162.9437            4 
  692000    1.0007262   -6.2917959    4167.4473           12 
  693000   0.97995373   -6.2985322    4151.7636           11 
  694000   0.99725813   -6.2793127    4146.9795            6 
  695000    1.0160334   -6.2744196    4146.2357            5 
  696000    1.0064997   -6.2623556     4149.876            6 
  697000   0.98627516   -6.2616198    4155.5736           14 
  698000   0.99663739   -6.2614603    4143.2366            3 
  699000   0.98204933    -6.276492    4145.9981            8 
  700000   0.98976322   -6.2988778    4144.3963            3 
  701000    1.0107068    -6.266656    4160.6046            4 
  702000    1.0085624   -6.2498711    4156.4091            7 
  703000    1.0138657   -6.2906707     4149.022            7 
  704000    1.0091373   -6.2874907    4149.6667           11 
  705000    1.0097981   -6.2737016    4154.3661            5 
  706000   0.99616276   -6.2513694    4151.0803           16 
  707000    1.0156921   -6.2437878    4146.0906            4 
  708000    1.0286252   -6.2883891    4149.9882            7 
  709000    1.0087715   -6.2672219    4148.7642            8 
  710000    1.0020383   -6.2904508    4144.2962           11 
  711000   0.97139462   -6.2640335    4156.2854           10 
  712000    1.0075637   -6.2644895    4154.9852            5 
  713000   0.97119811   -6.2480376    4169.3146            6 
  714000    1.0076088   -6.2801951    4152.2374            9 
  715000   0.99943939   -6.2975204     4146.331            9 
  716000    1.0168056   -6.2641287    4158.7588            8 
  717000   0.99762183   -6.2751384    4161.2002            6 
  718000   0.98868172   -6.2361288    4159.7967           10 
  719000    1.0155147   -6.2403342    4148.0988           10 
  720000    1.0008507   -6.2739569    4150.4963           10 
  721000   0.98628823   -6.2813141    4153.2826            4 
  722000   0.98147647    -6.238121    4147.6409            5 
  723000    1.0198383   -6.2857507    4150.0596           14 
  724000    1.0025361   -6.2300889    4150.8057            9 
  725000    1.0119566   -6.2574912    4159.6557            7 
  726000    1.0239551   -6.2685926    4152.6821            7 
  727000   0.99143792   -6.2631831    4158.3786            6 
  728000     1.014309   -6.2830147    4138.1393            7 
  729000    1.0137011   -6.2734121    4152.2819            6 
  730000   0.99356446   -6.2537378    4166.5467            6 
  731000   0.97903961   -6.2859383    4158.3627           16 
  732000    1.0044885   -6.2883067    4151.2975            5 
  733000   0.98195579   -6.2559189    4156.4362            9 
  734000    1.0203994   -6.2796949    4147.3738            6 
  735000   0.98507972   -6.2967167    4149.4954           16 
  736000    1.0106986   -6.2818032    4149.1415            6 
  737000    1.0241196   -6.2887537    4151.4019           11 
  738000    1.0103573   -6.2889528    4152.2071            4 
  739000   0.99147166   -6.3088683    4142.4549            7 
  740000   0.99382171   -6.2930761    4143.2773            5 
  741000   0.98999502   -6.2754061    4145.5176            8 
  742000   0.99714865   -6.2656747     4151.196           14 
  743000    1.0073589   -6.2591704    4166.5723            8 
  744000   0.99230481   -6.2792339    4156.5537           13 
  745000    1.0008241    -6.263425    4149.8596            6 
  746000   0.98622696   -6.2827898    4149.2322            5 
  747000   0.99702213   -6.2574398    4160.0996            6 
  748000    1.0267997   -6.2965025    4160.0466            8 
  749000   0.98626697   -6.2793242    4153.9501           14 
  750000   0.99764647   -6.2609641    4157.6539           12 
  751000    1.0255261   -6.3059807    4135.0327           29 
  752000    1.0120951   -6.2420456    4153.1112           14 
  753000   0.99454287   -6.2926773    4144.7256            9 
  754000    1.0051291   -6.2713552    4159.3675            8 
  755000     1.011657   -6.2570091    4170.3213            6 
  756000   0.99907273    -6.304344    4139.8541           14 
  757000    1.0169401   -6.2668463    4161.0069            9 
  758000    1.0484396   -6.2716333    4149.9972            9 
  759000   0.98606287    -6.305825    4155.0545            5 
  760000   0.98574995     -6.22943    4149.2751           15 
  761000   0.98847154   -6.2795182    4150.5152           13 
  762000    1.0015211   -6.2598909    4159.6455            6 
  763000   0.97528735   -6.2985278    4161.4423            7 
  764000   0.98069698   -6.2805903    4142.1732            4 
  765000    1.0051178   -6.2626561    4156.9449            8 
  766000    0.9783618    -6.288117    4156.2633           11 
  767000    1.0019716   -6.2876438    4156.0604            5 
  768000    1.0246336   -6.2680071    4146.0173           13 
  769000    1.0195282    -6.288502    4150.6597            7 
  770000     0.979947   -6.2824776    4143.0604            5 
  771000   0.98007971   -6.2690684    4164.1327            4 
  772000   0.98832843   -6.2788572    4151.5356            6 
  773000   0.99877498    -6.271716    4143.2325            4 
  774000    1.0159234   -6.2569974    4161.1412            7 
  775000   0.99679507   -6.2717278    4150.0568           11 
  776000    1.0156701   -6.2918724    4158.3562            9 
  777000   0.99097988   -6.2620899    4156.7721           15 
  778000   0.99840976   -6.2839734    4160.3917           19 
  779000   0.99871145   -6.3001927    4143.5547           12 
  780000   0.98197012   -6.2562896     4160.545            5 
  781000    0.9829216   -6.3074636    4134.1927            7 
  782000   0.98291997   -6.2958439    4162.2011            5 
  783000    1.0163028   -6.2707022    4152.0485            9 
  784000   0.99745176   -6.3096869    4135.2031            4 
  785000    1.0028683   -6.2957243    4121.3927            5 
  786000   0.99630279   -6.2727593    4156.6395            3 
  787000    1.0122283   -6.2499012    4150.2166           10 
  788000   0.97750411    -6.277414    4137.4879            9 
  789000   0.98571748   -6.2363982    4159.1121            5 
  790000    1.0131108    -6.252997    4148.5615            6 
  791000   0.98591766   -6.2586821    4146.6809           10 
  792000    1.0190641   -6.2519951    4154.0029            7 
  793000    1.0103811   -6.2758183     4155.258            4 
  794000    1.0023388   -6.2773333    4153.8551            5 
  795000   0.97437296   -6.2768936    4145.8595            5 
  796000    1.0027943   -6.2468454    4156.1184            6 
  797000   0.99569764   -6.2538376    4147.2443           18 
  798000    0.9822924    -6.254702     4160.792            6 
  799000   0.98575361   -6.2745674     4141.138           10 
  800000    1.0197603   -6.2291647    4169.6678            2 
  801000   0.99382598   -6.2668152    4156.1962            5 
  802000    1.0097158   -6.2587578    4141.9689            4 
  803000    1.0082288   -6.2813242    4168.6485            8 
  804000    1.0074525   -6.2858774    4133.5543            4 
  805000   0.98761371   -6.2806885    4144.1353            4 
  806000    1.0064121   -6.2915548    4144.5426            9 
  807000    1.0140341   -6.2476751    4159.0786            7 
  808000   0.99311919   -6.2496388    4153.5146            7 
  809000    1.0014017   -6.2732597    4149.4933            7 
  810000    1.0079764   -6.2938803    4145.3393            9 
  811000   0.97995686   -6.2567682     4148.561            6 
  812000   0.99651063   -6.2679225    4157.4826            6 
  813000    1.0137352   -6.2494858    4147.8781           10 
  814000    1.0167831   -6.2630819    4148.6758            8 
  815000    1.0144896   -6.3118315    4144.0002           16 
  816000   0.99375629   -6.2899481    4136.0397            5 
  817000    1.0001623   -6.2688689    4143.1745            6 
  818000   0.99783238   -6.2585542    4149.0377            4 
  819000    1.0045543   -6.2828494     4150.051            5 
  820000   0.99945198   -6.2755151    4154.6766            6 
  821000   0.99057281   -6.2997089    4147.7154            5 
  822000   0.99350339   -6.2703696    4141.1131            7 
  823000    1.0247269   -6.2959186    4156.4861            6 
  824000    1.0214273   -6.2734998    4147.4044            3 
  825000     1.000158   -6.2514897    4175.6948            4 
  826000    1.0014043    -6.241171    4175.6554            3 
  827000    1.0005883   -6.2867707    4138.5361            5 
  828000   0.99201231   -6.2761882    4136.2889            4 
  829000   0.99826415   -6.2581081    4166.1684            5 
  830000   0.99743587   -6.2729373    4154.8829            3 
  831000   0.99528772   -6.2688423    4139.8119            9 
  832000   0.97920368   -6.2794012    4146.4217            9 
  833000   0.99072441   -6.2625184     4147.138           10 
  834000   0.99556013     -6.30025    4147.6952            3 
  835000   0.99044111   -6.3078862    4157.0043            8 
  836000   0.99827475   -6.2575145    4152.1805            5 
  837000    0.9917837   -6.2491187    4169.7367            4 
  838000    1.0191757   -6.2947435    4156.8953            6 
  839000   0.97877967   -6.2585449    4139.4724           12 
  840000   0.99051875   -6.2280289    4157.4353            5 
  841000   0.99053534   -6.3000795    4128.6531           29 
  842000     1.021318    -6.229061     4146.423            8 
  843000    1.0142853   -6.2947624    4171.5509            5 
  844000   0.99091191    -6.276347    4147.3669            5 
  845000    1.0092319   -6.2701275    4158.9636           14 
  846000   0.99618789   -6.2424072    4148.4036            5 
  847000    1.0237855   -6.2535309    4158.2402            6 
  848000    0.9979818   -6.2845844    4136.8546            8 
  849000    1.0137765   -6.3005761    4140.8253            5 
  850000   0.99387651   -6.2956948    4158.5567            5 
  851000   0.96904604   -6.2764245    4159.0303            4 
  852000   0.99234652   -6.2969165    4159.5114            8 
  853000    1.0101382   -6.2751995    4151.1145            4 
  854000    1.0106445   -6.2672788    4172.0684            8 
  855000   0.97413058   -6.2644259    4144.4759            7 
  856000   0.99135498   -6.2895574    4149.1617            4 
  857000   0.99589841   -6.2727039    4141.9153            3 
  858000   0.98962733   -6.2509512    4166.8557            6 
  859000   0.97461484   -6.2512445    4151.1796            4 
  860000    1.0096901   -6.2838848    4143.3758            6 
  861000   0.99555169   -6.2294319     4148.046            2 
  862000   0.99942891   -6.2644001    4152.4823            6 
  863000    1.0209773   -6.2855781    4161.8201            6 
  864000   0.99389693   -6.3150636    4123.1874            7 
  865000   0.99225507   -6.2599088    4153.4399            4 
  866000    1.0128505   -6.2831411    4150.1172            8 
  867000    1.0199165   -6.2934225    4162.3099           12 
  868000   0.99038547   -6.2684429    4158.5814            7 
  869000   0.98340065   -6.2525913    4161.4662            5 
  870000   0.99456239   -6.2865519    4145.7198           14 
  871000   0.99863957   -6.3024543    4139.9891           12 
  872000    1.0337516    -6.277109    4167.4373            8 
  873000    1.0030497   -6.3083494    4151.3305           10 
  874000    1.0100979   -6.2483993    4166.3356            4 
  875000    1.0013233   -6.2574285    4146.5537            8 
  876000    1.0055256   -6.2588703    4153.7022            5 
  877000   0.98433613   -6.2690348    4145.3011            9 
  878000    1.0036178   -6.2608709    4155.5515           15 
  879000   0.99382988   -6.2771132    4159.2344            9 
  880000    1.0060506   -6.2774654    4143.2225            7 
  881000   0.99502141   -6.2699335      4159.78            3 
  882000   0.98748005   -6.2945226    4134.9948           10 
  883000   0.99717167   -6.2886077    4144.5411            7 
  884000   0.99762998   -6.2963303    4138.4193            7 
  885000    1.0287416   -6.2635232    4150.2594            7 
  886000    1.0105807   -6.2898493    4142.6714            7 
  887000    1.0066046   -6.2240629    4143.5104            7 
  888000   0.99815767    -6.254455    4163.0413           12 
  889000     1.000261   -6.2374817    4167.2471            8 
  890000   0.99924901   -6.2927765    4139.6666            8 
  891000   0.96857452    -6.302246    4146.6746            6 
  892000    1.0306538   -6.2730759    4157.2025            4 
  893000    1.0002745   -6.2693298    4145.9483            9 
  894000    0.9919364   -6.2556601    4151.9488            8 
  895000    1.0130819   -6.2655092    4150.6788            5 
  896000     1.015597   -6.2650261      4152.85            5 
  897000    1.0032444     -6.24268    4147.9782            6 
  898000    1.0080134   -6.3220948    4140.8079            8 
  899000   0.98742366   -6.2775163    4144.1968           11 
  900000    1.0061852    -6.276382    4144.5909            5 
  901000    0.9922923   -6.2944384    4127.8076           13 
  902000   0.99942466   -6.2822041     4140.841            7 
  903000    0.9940491    -6.291022    4142.8592            4 
  904000    1.0069759   -6.2800479    4153.5167            5 
  905000    1.0034057   -6.2655829    4150.2309            8 
  906000   0.99454761   -6.2502917    4152.0717            6 
  907000   0.99792934   -6.2568353    4163.0552            6 
  908000    1.0046823   -6.2994645    4139.7276            3 
  909000     1.005143   -6.2769739     4146.835            6 
  910000   0.99347511     -6.25562    4162.4158            6 
  911000    1.0002064   -6.2220635    4161.9282            3 
  912000   0.99930846   -6.2620071    4141.3851            4 
  913000    1.0079314   -6.2659956    4182.7003            5 
  914000    1.0101175   -6.2520262    4145.0955            6 
  915000     0.999543   -6.2544558    4155.0758           10 
  916000    1.0033584   -6.2471227    4160.1038            7 
  917000    1.0173816   -6.2756215    4159.4918            9 
  918000   0.98729983   -6.2880568    4142.4427            5 
  919000    1.0019324   -6.2338333    4166.4678           12 
  920000    1.0185665   -6.2798701    4151.2806            4 
  921000    1.0043677   -6.2895363    4145.3002           12 
  922000    0.9792076   -6.2555497    4157.2791           10 
  923000    0.9892078   -6.2513196    4133.7069            5 
  924000    0.9992726   -6.2923741    4141.0656            5 
  925000    0.9938919   -6.2558843    4143.9023            5 
  926000    1.0087995   -6.2755587    4152.6814            5 
  927000   0.97990234   -6.3030898    4148.0219            5 
  928000    1.0049169    -6.241394    4135.1781            5 
  929000   0.98738997   -6.2635938    4150.1911            7 
  930000   0.99387812   -6.2850806    4159.2059            7 
  931000   0.98482105   -6.2718578    4151.4461            6 
  932000    1.0126875   -6.2748492    4168.9227            7 
  933000    1.0071245   -6.2686789    4138.2635           15 
  934000    1.0086805   -6.2504407    4159.7656            8 
  935000    1.0123252   -6.2819507    4152.9842            7 
  936000   0.98851843   -6.2746872     4161.047           12 
  937000   0.99556985   -6.2786709    4162.5904            9 
  938000   0.98790209   -6.2648372     4150.455            6 
  939000   0.99506996   -6.3137809    4142.4679            5 
  940000    1.0085468    -6.270451    4141.6691            6 
  941000   0.98930128   -6.2776074    4143.5966           12 
  942000    1.0241892   -6.2473325    4165.3306            6 
  943000    1.0049697   -6.2709931    4157.2182            7 
  944000   0.99352056    -6.277884    4167.4335            7 
  945000    1.0070485    -6.281541    4165.0193            5 
  946000   0.99911721   -6.2775205     4137.607            8 
  947000    1.0072624   -6.2786491    4146.4908            6 
  948000    1.0010205   -6.2706951    4150.7759            6 
  949000   0.98719581   -6.2907836     4140.589            4 
  950000    1.0013096   -6.2963518    4131.2809            9 
  951000   0.98572667    -6.270764    4151.9175            9 
  952000    1.0055926   -6.2806153    4158.6621            5 
  953000    1.0166135   -6.2775904    4144.7662           14 
  954000    1.0173558   -6.2844886    4147.2019            6 
  955000    1.0160434   -6.2687103    4163.1404            6 
  956000    1.0010359   -6.2319702    4161.2504            8 
  957000    1.0148858   -6.2654207    4153.7597           11 
  958000    1.0105989   -6.2793863    4154.7495           11 
  959000   0.97738289   -6.2828536    4153.1953            6 
  960000    1.0014898   -6.2799472    4160.1367            3 
  961000    1.0142814   -6.3013362    4151.8655            4 
  962000   0.98826945   -6.3134453    4141.8208            7 
  963000    1.0051039   -6.3056495    4156.1613            8 
  964000     1.000552   -6.2508403    4140.0121           10 
  965000    1.0105591   -6.3056144    4148.0332            3 
  966000    1.0043919    -6.262218     4134.281            3 
  967000      1.00776   -6.2677883    4153.7284            6 
  968000    0.9894888   -6.2333463    4157.4082            4 
  969000   0.99216916   -6.2360824     4150.981            4 
  970000   0.97917907   -6.2602807    4138.4521            5 
  971000    1.0016162   -6.2718464    4145.2099            8 
  972000    1.0121868   -6.2537523    4169.5036            7 
  973000    0.9961584   -6.2872208    4159.3678            5 
  974000   0.97434651   -6.2731259    4151.0988            5 
  975000   0.98700654   -6.2451762    4159.0529           13 
  976000   0.99964264   -6.2401909    4147.2095            5 
  977000   0.99017158   -6.2618754    4151.8824            7 
  978000    1.0110352   -6.2569793    4148.8021            6 
  979000   0.98360867   -6.2684728     4130.997           11 
  980000   0.99891601   -6.2589138    4150.2409            6 
  981000   0.98949437   -6.2510946    4151.0333            9 
  982000    1.0145463   -6.2556204    4167.2714            7 
  983000    1.0197056   -6.2699496    4151.5974            5 
  984000   0.98673317    -6.271969    4143.3475           10 
  985000   0.99785075   -6.2735645    4162.7673            6 
  986000   0.97717186    -6.255946    4161.8453            5 
  987000   0.98435251   -6.3120991    4143.0379            5 
  988000    1.0018427   -6.2739978     4149.519            3 
  989000   0.99211237   -6.2609745    4166.3754            7 
  990000    0.9923053   -6.2210377    4154.3449            5 
  991000    1.0176697   -6.2527816    4154.8671            4 
  992000    1.0085161   -6.2740793    4137.4802            3 
  993000    1.0107389   -6.2511963    4149.4026            6 
  994000    1.0025621   -6.2662576    4160.0576           23 
  995000   0.98954806   -6.2311143    4155.9002           16 
  996000   0.99359237   -6.2211241    4162.6442            4 
  997000    1.0249875   -6.2672495    4147.8493           16 
  998000   0.99742502   -6.2936512    4143.4063           10 
  999000    1.0003561   -6.2779313    4133.6382            6 
 1000000    0.9928594   -6.2843584    4127.7663            6 
 1001000    1.0045178   -6.2540844    4158.4646            8 
 1002000   0.99871295   -6.2720167    4152.4412            5 
 1003000    1.0013859    -6.260151    4156.0047           10 
 1004000    1.0122766   -6.2847655    4151.8395            5 
Loop time of 2079.66 on 48 procs for 1000000 steps with 4000 atoms

Performance: 83090.577 tau/day, 480.848 timesteps/s
99.4% CPU use with 48 MPI tasks x no OpenMP threads

MPI task timing breakdown:
Section |  min time  |  avg time  |  max time  |%varavg| %total
---------------------------------------------------------------
Pair    | 127.29     | 129.38     | 135.24     |  16.5 |  6.22
Neigh   | 14.848     | 15.026     | 15.374     |   3.5 |  0.72
Comm    | 114.07     | 120.8      | 125.5      |  24.9 |  5.81
Output  | 1.2439     | 1.245      | 1.2611     |   0.2 |  0.06
Modify  | 1786.6     | 1793.2     | 1801.9     |  10.2 | 86.23
Other   |            | 19.99      |            |       |  0.96

Nlocal:        83.3333 ave          92 max          77 min
Histogram: 3 1 12 5 9 4 11 1 0 2
Nghost:        1597.58 ave        1613 max        1577 min
Histogram: 1 2 2 7 4 9 10 6 3 4
Neighs:        9183.85 ave       10320 max        8133 min
Histogram: 2 2 2 11 9 9 8 3 1 1
FullNghs:      18368.5 ave       20481 max       16676 min
Histogram: 3 2 5 11 7 8 8 1 1 2

Total # of neighbors = 881688
Ave neighs/atom = 220.42200
Neighbor list builds = 59717
Dangerous builds = 0

#clear
#
#next RN
#
#jump SELF
Total wall time: 0:34:40
