
units lj                  # Use reduced LJ style units
atom_style atomic         # Uncharged point particles
atom_modify map hash      # Needed for indexing of clusters etc
                          # Used to be able to find where atoms are in relation to each other.

# Define a lattice with which to populate the simulation cell. With units
# set to 'lj' the second argument to the lattice command is the reduced
# density rho* and the spacings are multiples of that required to acheive
# that density. Also define a simulation cell called 'box' in lattice units
# and fill it with atoms. Here we're creating a box which is ten lattice
# constants in each direction.
lattice fcc 1.0 spacing 1 1 1                 # All equal sizes - gives the right reduced density.
Lattice spacing in x,y,z = 1.5874011 1.5874011 1.5874011

region box block 0 10 0 10 0 10 units lattice # Defines a region, "box", in lattice units
create_box 1 box                              # Creates a simulation box as specified above,
Created orthogonal box = (0.0000000 0.0000000 0.0000000) to (15.874011 15.874011 15.874011)
  2 by 3 by 3 MPI processor grid
                                              # with one type of atom
create_atoms 1 box                            # Creates particles on lattice points
Created 4000 atoms
  using lattice units in orthogonal box = (0.0000000 0.0000000 0.0000000) to (15.874011 15.874011 15.874011)
  create_atoms CPU = 0.001 seconds


# Set the mass of the first (and only) atom type.
mass 1 1.0

# Lennard-Jones interactions between particles, 3.5 sigma cut-off. Apply
# long range tail corrections to energy and pressure and set all coefficients
# to unity since we work in reduced units here. Note that this doesn't shift
# the potential such that it goes to zero at the cutoff. That would require
# pair_modify('shift', 'yes').
pair_style lj/cut  3.5      # non-GPU version
pair_modify tail  yes
pair_coeff 1  1  1.0  1.0   # Intearaction between 1 and 1 set with epsilon = 1 and sigma = 1

write_data data.*
System init for write_data ...
Neighbor list info ...
  update every 1 steps, delay 10 steps, check yes
  max neighbors/atom: 2000, page size: 100000
  master list distance cutoff = 3.8
  ghost atom cutoff = 3.8
  binsize = 1.9, bins = 9 9 9
  1 neighbor lists, perpetual/occasional/extra = 1 0 0
  (1) pair lj/cut, perpetual
      attributes: half, newton on
      pair build: half/bin/atomonly/newton
      stencil: half/bin/3d
      bin: standard

#############################
#   M E L T   S Y S T E M   #
#############################

velocity all create 2.4 8172548 mom yes dist gaussian # Assign velocities
                                                    # Temperature 2.4, random number seed, zero linear momentum
						                                                        # Gaussian distribution

timestep 0.002   # simulation timestep
thermo 100       # output thermodynamic data every 100 steps

# Define a fix  in this case with index 1 applied to all
# particles in the simulation. This fix is for simulations
# in the anisotropic NPT ensemble. Note that we use the MTK
# correction.
fix 1 all npt temp 2.4 2.4 0.1 iso 5.68 5.68 0.5 mtk yes tchain 5 pchain 5 # Use NPT ensemble
                                                                         # Set temperature and pressure and damping
                                                                         # Numbers of thermostats in chain and in barostat
run 1000         # run for 10000 steps
Per MPI rank memory allocation (min/avg/max) = 3.680 | 3.683 | 3.691 Mbytes
Step Temp E_pair E_mol TotEng Press Volume 
       0          2.4   -8.3859253            0   -4.7868253   -2.2405722         4000 
     100    1.2521358   -6.5115055            0   -4.6337712    5.4508644    4089.6042 
     200    1.4689284   -6.2983762            0   -4.0955344    6.0837578    4137.2801 
     300    1.5740251   -6.0110759            0   -3.6506285    5.8428293    4272.3887 
     400    1.7007621   -5.7248177            0   -3.1743123    5.9311621    4395.3486 
     500    1.8066394   -5.4467078            0   -2.7374262    5.7861894     4545.589 
     600    1.8844107   -5.1406616            0   -2.3147521    5.8323888    4700.1474 
     700    2.0254849   -4.9242047            0    -1.886737    5.8268404    4833.6959 
     800    2.1385093   -4.7031284            0   -1.4961664    5.8326966    4964.1584 
     900    2.2562357   -4.5439597            0   -1.1604522    5.8538779    5071.7859 
    1000    2.3669211   -4.4724005            0  -0.92290647    5.7399528    5154.5285 
Loop time of 0.557003 on 18 procs for 1000 steps with 4000 atoms

Performance: 310231.639 tau/day, 1795.322 timesteps/s
99.4% CPU use with 18 MPI tasks x no OpenMP threads

MPI task timing breakdown:
Section |  min time  |  avg time  |  max time  |%varavg| %total
---------------------------------------------------------------
Pair    | 0.31749    | 0.34331    | 0.37007    |   2.3 | 61.63
Neigh   | 0.061723   | 0.064699   | 0.06747    |   0.7 | 11.62
Comm    | 0.094583   | 0.12067    | 0.14567    |   3.7 | 21.66
Output  | 0.00021744 | 0.000226   | 0.00030267 |   0.0 |  0.04
Modify  | 0.022099   | 0.02518    | 0.029264   |   1.5 |  4.52
Other   |            | 0.002918   |            |       |  0.52

Nlocal:        222.222 ave         234 max         214 min
Histogram: 2 3 0 3 1 4 2 2 0 1
Nghost:        2030.39 ave        2051 max        2008 min
Histogram: 1 1 1 2 3 4 3 1 1 1
Neighs:        19703.8 ave       21135 max       18594 min
Histogram: 1 3 3 1 1 4 2 2 0 1

Total # of neighbors = 354669
Ave neighs/atom = 88.667250
Neighbor list builds = 86
Dangerous builds = 10

# Equilibrate just above the melting temperature to avoid step fn in T

fix 1 all npt temp 1.25 1.25 0.1 iso 5.68 5.68 0.5 mtk yes tchain 5 pchain 5
run 1000
Per MPI rank memory allocation (min/avg/max) = 3.680 | 3.684 | 3.691 Mbytes
Step Temp E_pair E_mol TotEng Press Volume 
    1000    2.3669211   -4.4724005            0  -0.92290647    5.7399528    5154.5285 
    1100    1.9578949   -4.6918684            0   -1.7557603    5.6487477    4991.6913 
    1200    1.7396677   -4.9813711            0   -2.3725219    5.5906411    4811.1244 
    1300    1.5731527   -5.2038437            0   -2.8447047    5.7283734     4660.157 
    1400    1.4617969   -5.4064956            0   -3.2143485    5.7429155    4548.2287 
    1500    1.3856267   -5.5768053            0   -3.4988849    5.5616911    4480.7352 
    1600    1.2965183   -5.6686791            0   -3.7243878    5.5183337    4437.4897 
    1700    1.2706454   -5.7482266            0   -3.8427351     5.587581    4391.7293 
    1800    1.2485176   -5.8146125            0   -3.9423043    5.4355018     4375.335 
    1900    1.2452702    -5.820016            0   -3.9525776    5.6724499    4352.6927 
    2000     1.271515   -5.8429821            0   -3.9361864    5.6243904    4346.3347 
Loop time of 0.539294 on 18 procs for 1000 steps with 4000 atoms

Performance: 320418.764 tau/day, 1854.275 timesteps/s
99.7% CPU use with 18 MPI tasks x no OpenMP threads

MPI task timing breakdown:
Section |  min time  |  avg time  |  max time  |%varavg| %total
---------------------------------------------------------------
Pair    | 0.33127    | 0.34309    | 0.36007    |   1.3 | 63.62
Neigh   | 0.055622   | 0.056964   | 0.05834    |   0.3 | 10.56
Comm    | 0.095136   | 0.11033    | 0.11983    |   2.1 | 20.46
Output  | 0.00022227 | 0.00023059 | 0.00030111 |   0.0 |  0.04
Modify  | 0.022412   | 0.025403   | 0.030601   |   1.7 |  4.71
Other   |            | 0.00328    |            |       |  0.61

Nlocal:        222.222 ave         228 max         215 min
Histogram: 1 0 1 3 2 3 5 0 0 3
Nghost:        2236.78 ave        2249 max        2225 min
Histogram: 2 1 1 2 2 5 1 1 2 1
Neighs:        23340.2 ave       24347 max       22415 min
Histogram: 1 1 3 2 3 2 3 1 0 2

Total # of neighbors = 420123
Ave neighs/atom = 105.03075
Neighbor list builds = 75
Dangerous builds = 7


# Small amount of linear quench

fix 1 all npt temp 1.25 ${temp} 0.1 iso 5.68 5.68 0.5 mtk yes tchain 5 pchain 5
fix 1 all npt temp 1.25 1.36 0.1 iso 5.68 5.68 0.5 mtk yes tchain 5 pchain 5
run 2000
Per MPI rank memory allocation (min/avg/max) = 3.680 | 3.684 | 3.691 Mbytes
Step Temp E_pair E_mol TotEng Press Volume 
    2000     1.271515   -5.8429821            0   -3.9361864    5.6243904    4346.3347 
    2100     1.227999   -5.8439044            0   -4.0023664    5.6228155    4347.2985 
    2200    1.2741187   -5.8400957            0   -3.9293955    5.7058216    4343.8867 
    2300     1.273921   -5.8201769            0   -3.9097732     5.561891     4364.275 
    2400    1.2636469   -5.8195971            0   -3.9246006    5.3405651     4383.061 
    2500    1.2896208   -5.8180443            0   -3.8840968    5.3633267    4381.9549 
    2600    1.2752148   -5.8306702            0   -3.9183262    5.5023928    4365.7564 
    2700    1.3025656   -5.8074989            0   -3.8541389    5.5726532     4371.194 
    2800    1.3047176   -5.7964398            0   -3.8398527    5.6188568      4374.45 
    2900    1.3469009   -5.7791209            0   -3.7592747    5.7573645    4371.0659 
    3000    1.2838635   -5.7429716            0   -3.8176578    5.7949262     4378.093 
    3100    1.3068559   -5.7742246            0   -3.8144308    5.6571231    4374.6145 
    3200    1.2835492   -5.7983177            0   -3.8734753    5.6560528    4363.4874 
    3300    1.3080321    -5.770873            0   -3.8093153    5.5216124    4388.4769 
    3400    1.3443386   -5.7582693            0   -3.7422656    5.6185251    4391.0542 
    3500    1.3632361     -5.74057            0   -3.6962271    5.6888649     4394.807 
    3600      1.34567   -5.7192497            0   -3.7012494    5.6069021    4408.0202 
    3700    1.3181417   -5.7404576            0   -3.7637393    5.4829305    4406.5989 
    3800    1.3314282   -5.7022442            0   -3.7056012    5.6295351    4411.5813 
    3900    1.3494742   -5.7061304            0   -3.6824252    5.6205181    4415.5872 
    4000    1.3852792   -5.6700709            0   -3.5926716    6.0344931    4397.5155 
Loop time of 1.09968 on 18 procs for 2000 steps with 4000 atoms

Performance: 314273.579 tau/day, 1818.713 timesteps/s
99.8% CPU use with 18 MPI tasks x no OpenMP threads

MPI task timing breakdown:
Section |  min time  |  avg time  |  max time  |%varavg| %total
---------------------------------------------------------------
Pair    | 0.67707    | 0.71409    | 0.7549     |   2.4 | 64.94
Neigh   | 0.1011     | 0.10359    | 0.10543    |   0.4 |  9.42
Comm    | 0.18785    | 0.22376    | 0.25385    |   3.6 | 20.35
Output  | 0.00043408 | 0.00045248 | 0.0005821  |   0.0 |  0.04
Modify  | 0.043475   | 0.050681   | 0.061227   |   2.6 |  4.61
Other   |            | 0.007109   |            |       |  0.65

Nlocal:        222.222 ave         228 max         215 min
Histogram: 1 2 0 2 2 2 4 2 1 2
Nghost:        2230.56 ave        2255 max        2212 min
Histogram: 2 0 6 1 4 0 2 0 1 2
Neighs:        23100.9 ave       24568 max       21722 min
Histogram: 2 0 2 3 2 2 2 3 1 1

Total # of neighbors = 415817
Ave neighs/atom = 103.95425
Neighbor list builds = 133
Dangerous builds = 0

#############################
# F R E E Z E  S Y S T E M  #
#############################

# Define solid atoms. This closely follows ten Wolde  Ruiz-Montero and Frenkel  Faraday Discuss  1996  104  93-110
# Compute components of the per-atom q6 vector
compute q6 all orientorder/atom degrees 1 6 components 6 nnn NULL cutoff 1.3 # compute the Q6 parameter.
                                                                             # Use all neighbours within 1.3 unit cell.

# get number of connections
compute coord_number all coord/atom orientorder q6 0.5

# An atom is solid if it has 8 or more connections (of a possible 14)
variable is_solid atom c_coord_number>=8
group solid dynamic all var is_solid    # Must be dynamic to update
dynamic group solid defined

# do clustering
compute cluster solid cluster/atom 1.3 # Create a cluster where all atoms within are solid and max 1.3 units from another member

# define chunks one chunk per cluster
compute clus_chunks solid chunk/atom c_cluster nchunk every compress yes  # Says which atoms are in which chunk

# count the size of each chunk
compute size_chunks solid property/chunk clus_chunks count


# Find the maximum entry in the vector of chunk sizes
variable max_n equal max(c_size_chunks)


# Thermo style which includes this variable
thermo_style custom step temp pe vol v_max_n

thermo ${N}  # Print the thermo information every 100 steps
thermo 100  

# Reset the npt fix at a lower temperature (below freezing)
fix 1  all npt temp  ${temp} ${temp}  0.1  iso  5.68  5.68  0.5  mtk yes tchain  5  pchain  5
fix 1  all npt temp  1.36 ${temp}  0.1  iso  5.68  5.68  0.5  mtk yes tchain  5  pchain  5
fix 1  all npt temp  1.36 1.36  0.1  iso  5.68  5.68  0.5  mtk yes tchain  5  pchain  5

dump dmp2 all dcd ${N} traj_${rand}.dcd
dump dmp2 all dcd 100 traj_${rand}.dcd
dump dmp2 all dcd 100 traj_462431.dcd


# fix rnuntil all halt ${N} v_max_n >= 3980 error soft message no   # Stop when solidified


run 100000 # 5000000  # Run for this many steps
Neighbor list info ...
  update every 1 steps, delay 10 steps, check yes
  max neighbors/atom: 2000, page size: 100000
  master list distance cutoff = 3.8
  ghost atom cutoff = 3.8
  binsize = 1.9, bins = 9 9 9
  4 neighbor lists, perpetual/occasional/extra = 1 3 0
  (1) pair lj/cut, perpetual
      attributes: half, newton on
      pair build: half/bin/atomonly/newton
      stencil: half/bin/3d
      bin: standard
  (2) compute orientorder/atom, occasional
      attributes: full, newton on
      pair build: full/bin/atomonly
      stencil: full/bin/3d
      bin: standard
  (3) compute coord/atom, occasional
      attributes: full, newton on
      pair build: full/bin/atomonly
      stencil: full/bin/3d
      bin: standard
  (4) compute cluster/atom, occasional
      attributes: full, newton on
      pair build: full/bin/atomonly
      stencil: full/bin/3d
      bin: standard
Per MPI rank memory allocation (min/avg/max) = 9.484 | 9.487 | 9.493 Mbytes
Step Temp PotEng Volume v_max_n 
    4000    1.3852792   -5.6700709    4397.5155            1 
    4100    1.3634109   -5.6881404    4417.3259            3 
    4200     1.344967   -5.6504599    4454.5147            2 
    4300    1.3552332     -5.61386    4445.4565            2 
    4400    1.3806426   -5.6515547    4416.2168            3 
    4500    1.3582342   -5.6643352    4403.5814            2 
    4600    1.3700183   -5.6538182    4424.3484            3 
    4700    1.3465365   -5.6571132    4455.9086            2 
    4800    1.3573141   -5.6862964    4441.6697            3 
    4900    1.3505123   -5.6477554    4418.7157            1 
    5000    1.3942667    -5.655856    4447.4024            2 
    5100    1.3723036   -5.6572278    4425.9032            4 
    5200    1.3489256   -5.6802942    4416.7267            2 
    5300    1.3782086   -5.6623219    4419.8901            2 
    5400    1.3770251    -5.649582    4428.8378            2 
    5500    1.3695096   -5.6516884    4454.7088            2 
    5600    1.3410686   -5.6865812    4445.0701            3 
    5700    1.3295152   -5.6768459    4422.8448            2 
    5800    1.3811636   -5.6822146    4390.5554            4 
    5900    1.3923617   -5.6573175    4432.1677            3 
    6000    1.3603324   -5.6997695    4436.7266            2 
    6100     1.341598   -5.6750164    4429.9984            1 
    6200    1.3893651     -5.67207     4440.091            1 
    6300    1.3660139   -5.6069856    4437.6684            4 
    6400    1.3844676   -5.6755997    4443.2715            2 
    6500    1.3623291   -5.6820235    4431.7179            2 
    6600    1.3409122   -5.6909129    4429.0879            2 
    6700    1.3634556   -5.6563326    4416.2783            2 
    6800    1.3691353    -5.640014    4426.7185            3 
    6900    1.3572494   -5.6305255    4432.2094            2 
    7000    1.3460749   -5.6873568     4437.619            4 
    7100    1.3456981   -5.6612633    4429.4614            5 
    7200    1.3454534   -5.6765416    4431.0881            4 
    7300     1.343002   -5.6548256    4410.2174            2 
    7400     1.369071    -5.639769     4415.377            1 
    7500    1.3660843    -5.649449    4426.1123            2 
    7600    1.3254092   -5.6638667    4424.5593            3 
    7700    1.3502898    -5.691567    4429.8905            5 
    7800    1.3739545   -5.6563609    4452.1291            2 
    7900    1.3396221    -5.639971    4439.6353            2 
    8000    1.4221341   -5.7027451    4416.2549            3 
    8100    1.3483954   -5.6715381    4437.7434            1 
    8200    1.3076245   -5.6831232    4419.0554            3 
    8300    1.3623698   -5.6758834    4418.4384            4 
    8400     1.369177   -5.6528618    4427.2737            2 
    8500     1.386111   -5.6239271    4454.1737            2 
    8600    1.3608431   -5.6362292    4438.5271            3 
    8700     1.364599   -5.6664543    4431.7108            3 
    8800    1.3706107   -5.7064953    4423.3293            2 
    8900    1.3562547   -5.7005533    4409.6936            2 
    9000    1.3405228   -5.6983397    4410.7378            2 
    9100    1.3510591   -5.6692579    4420.2178            4 
    9200    1.3802335   -5.6644591    4413.2021            2 
    9300    1.3500636   -5.6869772    4408.6353            3 
    9400    1.3629263   -5.6773099    4422.2065            2 
    9500    1.3843081   -5.6939328    4444.2791            1 
    9600    1.3385068   -5.6818496    4441.3137            2 
    9700    1.3688277   -5.6986466    4416.4325            2 
    9800    1.3562762   -5.6832102     4406.567            2 
    9900    1.3852756   -5.6783289    4435.8861            3 
   10000       1.3477   -5.6568811    4442.0718            1 
   10100     1.363659   -5.7138661    4418.9494            3 
   10200    1.3524062   -5.6826686    4424.3362            2 
   10300    1.3622802   -5.6816565    4433.2368            3 
   10400     1.383117   -5.6405912    4442.3877            7 
   10500    1.3624251   -5.6601183    4420.8101            9 
   10600     1.356149   -5.6620784    4427.8713            3 
   10700    1.3721914   -5.6842294    4429.0028            3 
   10800    1.3307245   -5.7003038    4425.4052            3 
   10900    1.3614681   -5.6804306    4416.4825            9 
   11000    1.3662454   -5.6159068    4422.6389            7 
   11100    1.3796615   -5.6278127    4416.9321            6 
   11200    1.3468153   -5.6609869    4437.3208            6 
   11300     1.351314   -5.6736804    4451.6494            3 
   11400    1.3579422   -5.6828763    4439.6177            2 
   11500    1.3588614   -5.7029538    4415.4603            2 
   11600    1.3836335   -5.6849095     4428.827            2 
   11700    1.3337882   -5.6697231    4424.9004            2 
   11800    1.3536313   -5.6847171    4414.1258            2 
   11900    1.3883006   -5.6815213    4437.0933            4 
   12000    1.3490021   -5.6612809    4426.6213            2 
   12100    1.3631488   -5.6786492    4404.8648            1 
   12200     1.351477   -5.6730829    4403.3276            2 
   12300     1.360273   -5.6586374    4415.0725            5 
   12400    1.3642795    -5.683269    4436.7047            3 
   12500    1.3295931   -5.6791339    4427.7381            5 
   12600    1.3874519   -5.7117741    4424.3382            2 
   12700    1.3807714   -5.6454207    4436.2175            3 
   12800    1.3364096   -5.6327158    4424.5148            5 
   12900    1.3853977   -5.6351099    4418.0683            2 
   13000    1.3438061   -5.6503508    4444.5371            2 
   13100    1.3297745   -5.7054122    4432.3977            3 
   13200    1.3582555   -5.6896055    4432.9895            2 
   13300    1.3654493   -5.6343601    4429.9965            1 
   13400     1.359835   -5.6611731    4428.1295            3 
   13500    1.3241042   -5.6868329    4420.5944            1 
   13600    1.3363661   -5.6674867    4437.9716            2 
   13700    1.3851888   -5.6708526    4418.4791            2 
   13800     1.355796   -5.6560948    4446.6203            1 
   13900    1.3700747   -5.6488881    4420.5616            1 
   14000    1.3452656   -5.6665923    4427.7871            2 
   14100    1.3754023   -5.6714557     4436.211            2 
   14200    1.3579669   -5.6952958    4433.4766            2 
   14300    1.3134648   -5.6957912    4430.1298            1 
   14400      1.37557   -5.6896171    4409.7041            4 
   14500    1.3448621   -5.6589612    4422.3465            3 
   14600    1.3585841   -5.6590593    4433.5541            1 
   14700    1.3693011   -5.6373401    4418.2957            2 
   14800    1.3605543   -5.6659371    4414.4594            4 
   14900    1.3458259   -5.6490828    4429.9686            2 
   15000    1.3731042   -5.6422978    4441.4589            2 
   15100    1.3369525   -5.6689932    4426.9758            3 
   15200    1.3778788   -5.6815592     4429.477            4 
   15300    1.3600333    -5.625755    4436.9417            3 
   15400    1.3576152   -5.6578405    4420.1336            3 
   15500    1.3457803   -5.6993809     4419.678            4 
   15600    1.3684958   -5.6720005    4434.8249            2 
   15700    1.3429707   -5.6406606    4435.9101            2 
   15800    1.3519029   -5.6787961    4421.8843            1 
   15900    1.3782836   -5.6839569    4413.9764            2 
   16000    1.3550939   -5.6636863    4437.0768            3 
   16100    1.3401646   -5.6619951    4433.3267            1 
   16200    1.3720919   -5.6627586    4412.0344            2 
   16300    1.3618738   -5.6184195    4426.5874            4 
   16400     1.362915   -5.6750134    4437.1372            4 
   16500    1.3219361   -5.6379929    4443.6466            4 
   16600    1.3659488   -5.6353955    4448.3122            3 
   16700    1.3640779   -5.6646768    4426.8016            4 
   16800    1.3342164   -5.6392334     4417.044            2 
   16900    1.3789299   -5.6421969    4453.3183            1 
   17000    1.3499425   -5.6425141    4450.6149            4 
   17100    1.3511057   -5.6803754     4437.279            5 
   17200    1.3650564   -5.6545834    4412.5879            3 
   17300    1.3450819   -5.6727622    4411.3598            3 
   17400    1.3635834   -5.6593929    4421.4938            3 
   17500    1.3663023   -5.6558964    4411.7881            1 
   17600    1.3153678   -5.6588304    4405.2911            3 
   17700    1.3771106   -5.6881239    4429.2461            4 
   17800    1.3504333   -5.7074862    4441.1284            1 
   17900    1.3740106   -5.6860357    4423.9206            2 
   18000    1.3663614   -5.6692584    4430.4059            5 
   18100    1.3706919   -5.6518656    4445.0116            3 
   18200    1.3587483   -5.6687325    4417.5243            5 
   18300    1.3629503   -5.6809422    4419.3117            2 
   18400    1.3613017   -5.6647488    4430.8239            2 
   18500    1.3261705   -5.6634319    4452.8189            1 
   18600    1.3803997   -5.6799167    4431.0519            2 
   18700    1.3561589   -5.6515724    4414.0042            4 
   18800     1.381772   -5.6420162    4426.0917            3 
   18900    1.3232893   -5.6591777    4448.6538            4 
   19000    1.3486026   -5.6950445    4420.8819            2 
   19100    1.3833356   -5.6863108    4418.9928            2 
   19200    1.3506716   -5.6593362    4416.9739            4 
   19300    1.3754344   -5.6627946    4423.7755            3 
   19400      1.33887   -5.6455995      4424.96            2 
   19500    1.3754107   -5.7010312     4426.489            6 
   19600    1.3517317   -5.6220572    4436.6277            3 
   19700    1.3926979   -5.6345079    4441.5645            2 
   19800    1.3625239   -5.6601525    4429.7062            2 
   19900    1.3635413   -5.6539186    4425.3079            1 
   20000    1.3379996   -5.6301974    4455.7323            2 
   20100    1.3453708   -5.6093726    4444.5846            3 
   20200    1.3861254   -5.6282485    4405.5881            2 
   20300    1.3609163   -5.6525734    4414.2239            2 
   20400    1.3635494   -5.6362129    4447.1027            1 
   20500    1.3632976   -5.6480289     4452.252            1 
   20600    1.3593417   -5.6752786    4431.7234            2 
   20700    1.3246825   -5.6510279    4434.6872            2 
   20800    1.3822387   -5.6520453    4426.7027            3 
   20900    1.3560478   -5.6579212    4409.6174            2 
   21000    1.3625602    -5.701065    4426.6014            1 
   21100    1.3517135   -5.6597292    4439.0882            3 
   21200    1.3474524   -5.6564217    4435.3085            3 
   21300    1.3514468   -5.6641386    4418.6943            2 
   21400    1.3485243   -5.6589202     4414.228            2 
   21500    1.3582528   -5.6587906    4429.1186            4 
   21600    1.3416635   -5.6831266    4419.2179            1 
   21700    1.3564489    -5.646896    4426.3715            2 
   21800    1.3631303   -5.6067732    4408.8316            2 
   21900    1.3564872    -5.669947       4412.2            3 
   22000    1.3488893   -5.6871657    4427.9359            2 
   22100    1.3497579   -5.6746807    4430.3222            4 
   22200    1.3553507   -5.6539574    4435.3732            1 
   22300    1.3968788   -5.6526081    4447.1051            2 
   22400    1.3631074   -5.6540576    4413.5519            2 
   22500    1.3352734   -5.6562238    4418.4477            3 
   22600    1.3572584   -5.6306905    4435.4301            3 
   22700    1.3798728   -5.6620128    4422.1893            6 
   22800    1.3379774   -5.6663501    4437.5044            2 
   22900    1.3746001   -5.6738023    4436.0735            2 
   23000    1.3413894   -5.6745555    4423.6024            7 
   23100    1.3832955   -5.6323802    4401.7873            6 
   23200    1.3759583   -5.6262247    4417.8169            3 
   23300    1.3250712   -5.6194292    4451.5462            3 
   23400    1.3765573   -5.6799113     4435.503            1 
   23500    1.3399179   -5.6732064    4437.9351            2 
   23600    1.3743406   -5.6712981    4445.1925            3 
   23700    1.3665194   -5.6486182    4425.7403            2 
   23800    1.3510774   -5.6823261    4393.6988            4 
   23900    1.3491678   -5.6731792    4423.4954            2 
   24000    1.3556461   -5.6460751    4425.5337            4 
   24100    1.3385176    -5.681756    4430.2136            3 
   24200    1.3355623   -5.7191634    4418.0871            4 
   24300    1.3564961   -5.6671147    4423.2221            2 
   24400    1.3756154   -5.6414284     4438.217            8 
   24500    1.3667891   -5.6643207    4430.9847            2 
   24600    1.3607255   -5.6874361    4412.8632            1 
   24700    1.3594577   -5.6970282    4410.8523            2 
   24800     1.356126   -5.6826962    4423.0017            2 
   24900    1.3344582   -5.6905506      4443.26            3 
   25000    1.3626267   -5.6521413    4434.0512            2 
   25100    1.3662856    -5.688089    4412.5403            4 
   25200    1.3411935   -5.6455396    4413.8915            3 
   25300    1.3658283   -5.6439719    4429.0051            2 
   25400    1.3622143   -5.6689248    4436.3807            1 
   25500    1.3520095   -5.7081766    4442.1871            4 
   25600    1.3225717   -5.7111681    4420.0206            4 
   25700     1.356405   -5.7023627    4402.7801            6 
   25800    1.3759088   -5.6666564    4399.9254            3 
   25900    1.3624301   -5.6956962    4411.7042            4 
   26000    1.3568632   -5.6467032    4460.4739            1 
   26100    1.3832783   -5.6546402    4439.2313            3 
   26200    1.3357829   -5.6355967    4420.7603            3 
   26300    1.3832337   -5.6808129    4404.7574            2 
   26400    1.3617408   -5.7187928    4395.6402            2 
   26500    1.3636413   -5.6835074    4429.7534            3 
   26600    1.3596808   -5.6679544    4433.6062            2 
   26700    1.3311386    -5.693621    4408.2708            3 
   26800    1.3333494   -5.6606067    4414.2841            2 
   26900     1.376175    -5.677066    4422.2983            2 
   27000    1.3518779   -5.6617473    4438.9921            4 
   27100    1.3672565    -5.647845    4443.4069            4 
   27200    1.3304493   -5.6579688    4427.3297            3 
   27300    1.3796003   -5.6633417    4429.6776            2 
   27400    1.3588027   -5.6654145    4437.2102            3 
   27500     1.369009   -5.6706954    4429.6603            1 
   27600    1.3726665   -5.6642042    4427.2326            3 
   27700    1.3355871   -5.6800166    4443.7478            3 
   27800    1.3521575   -5.6799681    4430.5214            1 
   27900    1.4030703   -5.6662253    4438.6493            3 
   28000    1.3775597   -5.6727561    4433.7426            3 
   28100    1.3294881   -5.6472032    4420.1901            3 
   28200    1.3752862   -5.6392353    4425.6105            5 
   28300     1.374931   -5.6425078    4440.1305            5 
   28400    1.3459157   -5.6790247    4442.0068            2 
   28500    1.3861666   -5.6748637    4433.8871            3 
   28600    1.3296055   -5.6692436    4425.8519            2 
   28700    1.3403651   -5.6918619    4413.4998            3 
   28800    1.3664933   -5.6426154    4426.9062            3 
   28900    1.3761729   -5.6533139    4428.2032            1 
   29000    1.3429228   -5.6985024    4426.3089            1 
   29100    1.3741094   -5.6816556    4431.7911            3 
   29200    1.3651157   -5.6986513    4419.2331            2 
   29300    1.3703758   -5.7007506    4413.3327            3 
   29400    1.3599184   -5.6570476    4451.1129            3 
   29500     1.350338   -5.6822953    4440.7746            1 
   29600    1.3459539   -5.6419604    4435.0118            3 
   29700    1.3763675   -5.6373603    4437.1529            1 
   29800    1.3632613   -5.6745771     4405.362            2 
   29900    1.3615782    -5.687613    4410.5182            2 
   30000    1.3986852   -5.6633882    4431.1887            2 
   30100    1.3420362   -5.6659614    4437.8232            2 
   30200    1.3431069   -5.7177987    4447.1582            4 
   30300    1.3595075   -5.7000495       4419.9            4 
   30400    1.3735169   -5.6409328    4412.9796            4 
   30500    1.3915689   -5.7045782    4432.3081            4 
   30600    1.3301155   -5.6923208    4431.0712            2 
   30700    1.3565159   -5.7024025    4426.8907            3 
   30800    1.3688406   -5.6528721    4441.2965            2 
   30900    1.3726617   -5.6639432    4440.2568            1 
   31000    1.3642429   -5.6667293    4434.3912            2 
   31100    1.3525917   -5.6554252    4424.3278            4 
   31200    1.3749212   -5.6417753    4432.4193            4 
   31300     1.343612   -5.6587313    4414.9446            2 
   31400    1.3850958   -5.6831539    4437.9072            1 
   31500    1.3377094   -5.6574556    4423.2314            4 
   31600    1.3698281    -5.670522    4433.7457            3 
   31700    1.3517924   -5.6438914    4446.0892            2 
   31800    1.3756845   -5.6634627    4440.0841            4 
   31900    1.3512251   -5.6735471    4423.3065            2 
   32000     1.391713   -5.6780245    4420.3312            3 
   32100    1.3561062   -5.6310586    4456.7736            3 
   32200    1.3787011   -5.6594961    4451.1995            2 
   32300    1.3840611   -5.6911806    4426.6362            3 
   32400    1.3681765   -5.6432183    4418.1305            2 
   32500    1.3266942   -5.6817935    4434.5001            3 
   32600    1.3272865    -5.696426    4436.9415            1 
   32700    1.3579833   -5.6577177    4433.9562            2 
   32800    1.3920858   -5.6459715    4417.7524            2 
   32900    1.3371469   -5.6526839    4412.7087            5 
   33000    1.3663436   -5.6798576    4419.7066            3 
   33100     1.385097    -5.688675    4422.7194            3 
   33200     1.370019   -5.7296839    4413.3863            4 
   33300    1.3032519   -5.7021204    4420.0788            2 
   33400    1.3536847   -5.6851429      4431.93            2 
   33500     1.382458   -5.6636779    4440.6892            4 
   33600     1.333304   -5.6511764    4442.3694            2 
   33700    1.3779691   -5.6521784    4456.2287            1 
   33800    1.3358476   -5.6287603    4420.7055            2 
   33900    1.3757624   -5.6526126    4417.9808            3 
   34000    1.3593477   -5.6317007    4417.3177            2 
   34100    1.3576707   -5.6790385    4417.9469            3 
   34200    1.3596938   -5.6942147    4425.3865            3 
   34300    1.3385907   -5.7266172    4407.3575            3 
   34400    1.3660044    -5.709713    4414.1603            2 
   34500    1.3692601   -5.7068769    4422.6981            3 
   34600    1.3597967    -5.686886    4414.2427            2 
   34700    1.3981405   -5.6748443    4426.5854            3 
   34800    1.3611586   -5.6452856    4435.9416            3 
   34900    1.3539299     -5.68646    4417.1286            3 
   35000    1.3377928   -5.6481727    4426.4823            2 
   35100    1.3424195   -5.6460788    4417.8448            2 
   35200    1.3524109   -5.6865989    4408.2464            2 
   35300    1.3804501   -5.6964543    4416.6757            3 
   35400    1.3511667   -5.6671355    4422.3742            2 
   35500    1.3605394   -5.7176798    4409.8129            2 
   35600    1.3840653   -5.6889913    4433.6002            3 
   35700    1.3497726   -5.6615047    4437.3272            2 
   35800     1.321629   -5.6516603    4420.1743            4 
   35900    1.3607591   -5.6379729    4430.8616            6 
   36000    1.3750776   -5.6565566    4417.3148            6 
   36100    1.3626123   -5.6805386    4409.7924            2 
   36200    1.3730757   -5.6536788    4431.2653            3 
   36300     1.348525   -5.6443507    4438.2217            3 
   36400    1.3701143   -5.6569857    4430.3602            1 
   36500    1.3607875   -5.6259912    4449.1481            2 
   36600    1.3514674   -5.6531532    4410.1834            6 
   36700    1.3762697   -5.6953353    4435.8635            2 
   36800    1.3357854    -5.682666    4447.2189            2 
   36900    1.3832554   -5.6751339    4437.3549            3 
   37000    1.3706947   -5.6268826    4431.8964            1 
   37100    1.3893089   -5.6735953    4401.9631            3 
   37200    1.3639954   -5.7203894    4412.4894            5 
   37300    1.3166517    -5.693772    4432.5388            6 
   37400    1.3564011   -5.6599255    4436.2307            2 
   37500    1.3803966   -5.6340313    4426.9007            3 
   37600    1.3618591    -5.640898    4434.6043            2 
   37700    1.3569644   -5.6765681     4427.607            1 
   37800     1.336145    -5.669053    4421.1867            1 
   37900    1.3886216   -5.7121983    4399.1978            4 
   38000    1.3427887   -5.6889386    4418.0319            2 
   38100     1.347291   -5.6769406    4423.7275            2 
   38200    1.3123606   -5.6912553    4422.0931            4 
   38300     1.363099   -5.6719713    4414.5912            5 
   38400    1.3971339   -5.6724217    4410.9997            2 
   38500    1.3416218   -5.6718663    4412.0577            3 
   38600    1.3484455   -5.6899399    4432.8866            5 
   38700    1.3680938   -5.6567135    4444.7513            2 
   38800    1.3220549   -5.6527517     4436.088            2 
   38900    1.3701814   -5.6661831    4427.4504            3 
   39000    1.3737188    -5.647328    4427.1255            2 
   39100    1.3502839   -5.6536667     4429.399            2 
   39200    1.3703008   -5.6349248    4453.3713            3 
   39300    1.3676814    -5.703271    4435.4749            4 
   39400    1.3462986   -5.6838253    4428.0523            2 
   39500    1.3698287   -5.6694104    4430.4365            3 
   39600    1.3774577   -5.6374274    4433.2841            3 
   39700    1.3433425   -5.6441963     4393.732            1 
   39800    1.3490953   -5.6726362    4410.4207            3 
   39900    1.3488524   -5.6484946    4444.4728            4 
   40000    1.3451118   -5.6464729    4442.2117            3 
   40100    1.3360675   -5.6855618    4423.7608            2 
   40200     1.362893   -5.7054057     4407.523            2 
   40300    1.3707534   -5.6646236    4422.2113            2 
   40400    1.3835113   -5.6394305    4432.1483            3 
   40500    1.3411174    -5.654306    4474.2769            2 
   40600    1.3578733   -5.7127362    4441.1142            4 
   40700    1.3665808   -5.6883945       4415.5            4 
   40800     1.339169   -5.6850654    4416.8182            1 
   40900    1.3594302    -5.650697     4430.393            2 
   41000    1.3683197    -5.687206     4421.174            2 
   41100    1.3678647   -5.7156305    4414.4955            4 
   41200    1.3479556   -5.6678157    4419.8348            5 
   41300    1.3856855   -5.6625713    4441.1451            2 
   41400    1.3608653    -5.686603    4420.9751            2 
   41500    1.3368984   -5.6956513    4432.0195            3 
   41600    1.3680409   -5.6874524    4443.3248            2 
   41700    1.3765635   -5.6452146     4442.298            3 
   41800     1.397593   -5.6480071    4444.7346            3 
   41900    1.3765467   -5.6676873    4417.6723            2 
   42000    1.3226685   -5.6602271     4432.969            2 
   42100      1.36307   -5.6528856    4431.4014            2 
   42200    1.3777775   -5.6875447    4435.8887            2 
   42300    1.3241158   -5.6747705    4420.6366            4 
   42400     1.389085   -5.6952213    4421.8271            4 
   42500    1.3653057   -5.6895234    4411.2921            2 
   42600    1.3680505   -5.7222378    4384.6487            2 
   42700    1.3561624   -5.6985229    4426.3968            4 
   42800    1.3544082   -5.6907354    4441.1249            3 
   42900     1.384266   -5.6573166    4450.3454            2 
   43000    1.3712316   -5.6544964    4430.7878            3 
   43100    1.3463779   -5.6690583    4412.7674            3 
   43200     1.356186   -5.6291402    4413.3535            4 
   43300    1.3780583   -5.6578382    4430.1098            5 
   43400    1.3294435   -5.6519295    4440.7736            2 
   43500    1.3492557   -5.6396317    4442.9339            4 
   43600    1.3680994   -5.6324301    4436.5003            2 
   43700    1.3664507   -5.6715646    4437.6522            4 
   43800    1.3840062   -5.6518814    4447.2899            3 
   43900    1.3601285   -5.6813551    4429.2501            1 
   44000    1.3715633   -5.6797993    4436.2956            3 
   44100    1.3393149   -5.6770863    4443.3132            2 
   44200    1.3565577   -5.6599144    4431.2467            2 
   44300    1.3432561   -5.6553597    4427.7409            1 
   44400    1.3633854   -5.6778524    4401.1142            1 
   44500     1.370534   -5.6491402    4416.4104            2 
   44600    1.3375723   -5.6676221    4422.7297            2 
   44700    1.3800543   -5.6741203    4435.5949            4 
   44800    1.3715791   -5.6946315    4433.5099            4 
   44900    1.3230352   -5.6730554    4420.7203            3 
   45000    1.3751035   -5.6772811    4418.2828            2 
   45100    1.3641415   -5.6545298    4426.5798            1 
   45200    1.3377404   -5.6393873    4436.1894            2 
   45300    1.3357736   -5.6450288    4432.2923            2 
   45400    1.3734227   -5.6408876    4447.1982            2 
   45500    1.3771569   -5.6640941    4432.4712            2 
   45600    1.3573704   -5.6820204    4426.4402            4 
   45700    1.3829611   -5.6522449    4456.4346            1 
   45800     1.369836   -5.6582873    4436.8202            4 
   45900    1.3829955   -5.7013989    4425.0785            7 
   46000    1.3390191    -5.706891    4402.9097            1 
   46100    1.3771505    -5.711268    4409.7382            2 
   46200    1.3454149   -5.6838898    4425.8213            3 
   46300    1.3325539   -5.6867605     4430.947            2 
   46400    1.3758009   -5.7280454    4418.9857            5 
   46500    1.3709196   -5.6480593    4424.6687            2 
   46600    1.3614186   -5.6554335     4418.126            4 
   46700    1.3187815   -5.7052487    4407.6212            2 
   46800    1.3440586   -5.6998167    4416.1396            2 
   46900    1.3559974   -5.6587828    4425.6434            4 
   47000    1.3844881   -5.6439429    4432.8332            2 
   47100    1.3674971   -5.6418343    4452.5659            5 
   47200    1.3479427   -5.6583275    4424.1694            2 
   47300    1.3550673   -5.6793714    4426.5878            2 
   47400      1.36136   -5.6492086    4421.3556            3 
   47500    1.3811997   -5.6228818    4436.3611            6 
   47600    1.3570835   -5.6353068    4421.1572            2 
   47700    1.3297859   -5.6465067    4428.1885            2 
   47800    1.3801477   -5.6600669    4435.8667            2 
   47900    1.3429051   -5.6259909    4431.1053            2 
   48000    1.3695626   -5.6556774    4410.5905            3 
   48100    1.3601497   -5.6769953    4413.2401            3 
   48200    1.3593462   -5.6773548    4416.1611            2 
   48300    1.3299666   -5.6572263    4442.9755            5 
   48400    1.3676716   -5.6601493    4437.3423            2 
   48500    1.3847998   -5.6833335    4407.3021            2 
   48600    1.3356654   -5.6602542    4419.3804            2 
   48700    1.3316037   -5.6489601     4439.587            2 
   48800    1.3767253   -5.6570404    4422.2552            3 
   48900    1.3593797   -5.6581525    4416.1147            5 
   49000    1.3798896     -5.67866    4428.2526            2 
   49100    1.3449827   -5.6780775    4433.8797            2 
   49200     1.340511   -5.6888519    4410.4735            3 
   49300    1.3463989   -5.6519985    4415.8627            2 
   49400    1.3534462     -5.61181    4404.5214            1 
   49500    1.3636593   -5.6418217    4427.3189            3 
   49600    1.3592204   -5.6449408    4449.1645            2 
   49700    1.3117948   -5.6551023     4439.614            2 
   49800    1.3716184   -5.6475855    4418.1096            2 
   49900    1.3409146   -5.6357923    4421.2051            3 
   50000    1.3718829   -5.6681649    4424.7715            2 
   50100    1.3459142    -5.649062    4434.1737            2 
   50200    1.3867351   -5.6422571    4437.0346            2 
   50300    1.3725578   -5.6645712    4428.4135            4 
   50400    1.3537006   -5.6913028    4428.4475            3 
   50500    1.3533771   -5.6993198    4437.4294            2 
   50600    1.3623143   -5.6525037    4445.9002            3 
   50700    1.4016127    -5.670222    4432.2475            3 
   50800    1.3442573   -5.6706805    4441.0464            2 
   50900    1.3194546   -5.6789376    4447.9413            2 
   51000    1.3732508   -5.6591841    4422.6862            2 
   51100    1.3758851   -5.6672948    4406.4812            1 
   51200    1.3515303   -5.6725706    4420.8646            4 
   51300    1.3648036    -5.657774    4438.1063            3 
   51400    1.3387445    -5.672283    4436.7076            2 
   51500     1.378264   -5.6841604    4418.5782            5 
   51600    1.3630211   -5.6805106    4436.5998            3 
   51700    1.3457801    -5.651242    4436.4996            2 
   51800    1.3663391   -5.6309704    4450.8275            5 
   51900      1.38657   -5.6362197    4450.0726            3 
   52000    1.3582448   -5.6698911    4428.8754            2 
   52100    1.3829781   -5.6671615      4411.31            1 
   52200      1.34087   -5.6794191    4413.4811            2 
   52300    1.3573184   -5.6797432    4437.1673            4 
   52400    1.3775582   -5.6631159    4442.1367            3 
   52500     1.350083   -5.6585255    4430.2707            6 
   52600    1.3583066   -5.6639281    4420.8944            5 
   52700     1.328042   -5.6292709    4432.7325            1 
   52800    1.3994542   -5.6460699    4437.2434            2 
   52900    1.3570859   -5.6623492    4426.0379            3 
   53000     1.383985   -5.6742226     4431.202            2 
   53100    1.3221507    -5.634843    4458.9236            3 
   53200    1.3739868    -5.649643    4459.6093            3 
   53300    1.3558267   -5.6651472    4416.3828            3 
   53400    1.3833267   -5.6916362    4418.8657            2 
   53500    1.3465376   -5.6732934    4439.5177            2 
   53600    1.3389072   -5.6856193    4441.3447            1 
   53700    1.3841513   -5.7278433    4413.0549            3 
   53800    1.3457554   -5.6698162    4410.5353            2 
   53900    1.3596498   -5.6438804    4424.9017            2 
   54000    1.3621646   -5.6987875    4414.4844            4 
   54100    1.3623217   -5.7054102    4413.6965            2 
   54200    1.3743188   -5.6738374    4442.6275            3 
   54300    1.3836661   -5.6746392    4414.1529            2 
   54400    1.3406675    -5.669402    4420.2764            2 
   54500    1.3713872   -5.6714365     4421.711            2 
   54600    1.3335757   -5.6668197    4415.8641            3 
   54700    1.3764442   -5.6517006    4414.7937            2 
   54800    1.3685953   -5.6313989    4425.4701            1 
   54900    1.3213631   -5.6580392    4447.3291            3 
   55000    1.3594704   -5.6727811    4435.6125            4 
   55100    1.3412426   -5.6793122    4414.1469            9 
   55200    1.3682041   -5.6550437    4428.1623            2 
   55300    1.3626705   -5.6367572    4420.2068            3 
   55400    1.3638404     -5.69376    4410.9444            3 
   55500    1.3404681   -5.7159385    4417.6417            2 
   55600    1.3635398   -5.6800796    4424.5896            4 
   55700    1.3464496   -5.6471485    4415.5063            2 
   55800     1.387177    -5.650537    4406.6151            2 
   55900    1.3472296   -5.6693473     4415.983            4 
   56000    1.3348109   -5.7012998    4428.8202            2 
   56100    1.3596562   -5.6693792    4432.9549            2 
   56200    1.3806425   -5.6493809     4417.346            3 
   56300    1.3363167   -5.6307336    4403.0565            3 
   56400    1.3725452   -5.6554375    4421.0112            3 
   56500    1.3343473    -5.678914    4426.8079            2 
   56600    1.3446185   -5.6435744     4441.709            2 
   56700    1.3575087   -5.6582914     4422.897            5 
   56800    1.3657407   -5.6484774    4421.4421            3 
   56900    1.3397653   -5.6407542      4419.65            2 
   57000    1.3237112   -5.6569526     4400.799            3 
   57100    1.3639559   -5.6594816    4436.0655            2 
   57200    1.3680434    -5.659671    4427.8323            2 
   57300    1.3403117    -5.666063    4406.9698            2 
   57400    1.3441757   -5.6518893    4411.6738            4 
   57500    1.3808382   -5.6598237    4439.3569            3 
   57600    1.3595466   -5.6679698    4432.3173            1 
   57700    1.3587611   -5.6594696    4431.7488            4 
   57800    1.3774395    -5.665218    4449.2495            2 
   57900    1.3683433   -5.6838816    4429.3509            4 
   58000    1.3315346   -5.6237952     4433.165            4 
   58100    1.3757244   -5.6219197    4423.8386            1 
   58200    1.3675432   -5.6635818    4426.8242            3 
   58300    1.3497838   -5.6479848    4439.4831            3 
   58400    1.3706185   -5.6720469    4457.8877            2 
   58500    1.3636144   -5.6635453    4440.2836            3 
   58600    1.3397507   -5.6645124    4410.4131            1 
   58700    1.3906618   -5.6669061    4415.2432            4 
   58800    1.3544709   -5.6385708    4427.6434            2 
   58900    1.3475207   -5.6740601    4410.1019            3 
   59000    1.3672126   -5.7156803    4421.4002            3 
   59100    1.3662902   -5.6692072    4437.5586            3 
   59200    1.4120474   -5.6270471    4441.0791            4 
   59300    1.3607727   -5.6227711    4434.5242            1 
   59400    1.3488441   -5.6556445    4427.2716            2 
   59500    1.3802074   -5.6576738    4431.4456            3 
   59600    1.3623809   -5.6553343    4426.3209            3 
   59700    1.3265764   -5.6704175    4437.3537            4 
   59800    1.3599219   -5.6661744    4421.8121            2 
   59900    1.3653593   -5.6639836    4414.3035            2 
   60000    1.3712933   -5.6301038    4445.9158            2 
   60100    1.3249597   -5.6531731    4442.6832            2 
   60200    1.3530272   -5.6842968    4436.2747            3 
   60300    1.3705259    -5.635575    4433.5551            4 
   60400    1.3501771   -5.6459556    4420.6747            2 
   60500    1.3513692   -5.6625226    4417.7123            3 
   60600    1.3661208   -5.6729338    4437.7333            1 
   60700    1.3543721   -5.6611358    4432.0397            4 
   60800    1.3656112   -5.6539803    4413.4041            2 
   60900    1.4100158    -5.648508    4450.3335            6 
   61000    1.3457217   -5.6334288    4454.4405            5 
   61100     1.327572   -5.6336533    4434.4399            3 
   61200    1.3731957   -5.6525442    4424.7503            1 
   61300    1.3619129   -5.6690826    4427.6551            3 
   61400    1.3404016   -5.6753921    4420.2376            4 
   61500    1.3697816   -5.6602795    4446.0638            2 
   61600    1.3251763   -5.6471878    4447.1503            2 
   61700    1.3962767   -5.6587556    4436.3661            3 
   61800    1.3465402   -5.6453748    4440.0778            2 
   61900    1.3751779   -5.6359531    4439.1102            2 
   62000     1.371238   -5.6242975    4446.2371            2 
   62100    1.3696585   -5.6835714    4428.1861            2 
   62200    1.3403633   -5.6839472    4438.5895            4 
   62300      1.35203   -5.6916808    4445.9474            3 
   62400    1.3549495   -5.6379425     4423.349            2 
   62500    1.3726634   -5.6067266    4428.5309            4 
   62600    1.3324367   -5.6420764     4426.441            2 
   62700    1.3667512   -5.6877124    4439.8749            2 
   62800    1.3436683   -5.6941661    4426.0367            1 
   62900    1.3517591   -5.6951875    4415.3423            1 
   63000    1.3551594   -5.6548471    4422.8619            3 
   63100    1.3765613   -5.6536036    4423.5821            2 
   63200    1.3674417   -5.6675945     4422.217            1 
   63300    1.3347286   -5.6482759    4420.6863            2 
   63400    1.3742241   -5.6376763    4435.3261            1 
   63500    1.3702505   -5.6448188    4412.3739            4 
   63600    1.3542804   -5.6153059    4428.5882            4 
   63700    1.3395729   -5.6411205    4453.0409            2 
   63800    1.3453177   -5.6577744    4436.5628            2 
   63900    1.3689851   -5.6386052    4426.0835            2 
   64000    1.3658568   -5.6165239    4457.1496            1 
   64100    1.3780128   -5.6595416    4438.5172            2 
   64200    1.3840274   -5.6968134    4421.7686            3 
   64300    1.3196532   -5.6790239    4436.4068            2 
   64400     1.341071   -5.6722585     4454.586            1 
   64500    1.3897851   -5.6523409    4438.6063            3 
   64600    1.3890023   -5.6606358     4427.531            2 
   64700    1.3459778   -5.6696017    4422.7457            3 
   64800    1.3346399   -5.6750101    4427.4707            4 
   64900    1.3739423   -5.6557952    4432.0519            2 
   65000     1.384124   -5.6621158    4423.9214            2 
   65100    1.3527346   -5.6983636    4406.0756            3 
   65200    1.3578335   -5.6617203    4426.5167            2 
   65300    1.3847385    -5.683836    4423.8366            3 
   65400    1.3207396   -5.6670632    4424.9542            4 
   65500    1.3229281   -5.6276927    4454.1522            2 
   65600    1.3846332   -5.6463599    4424.7102            4 
   65700    1.3861593   -5.6866156    4419.9126            3 
   65800     1.352575   -5.6842201    4440.5259            2 
   65900    1.3731202   -5.6711606    4431.5299            3 
   66000     1.352354   -5.6883876    4393.8792            3 
   66100    1.3672738   -5.6877276    4412.7245            1 
   66200     1.348025   -5.6601244    4432.2598            2 
   66300    1.3372428   -5.6407111    4431.9695            1 
   66400    1.3494681   -5.6345319     4436.127            5 
   66500    1.3980742      -5.6405     4433.708            7 
   66600    1.3737715   -5.6895116    4435.6364            4 
   66700    1.3423202   -5.6851358    4421.3147            2 
   66800    1.3329186    -5.741872    4391.1112            3 
   66900     1.343699   -5.7050951    4396.6278            2 
   67000    1.3580291   -5.6715729    4423.6436            3 
   67100    1.3537685   -5.6511417    4440.4464            2 
   67200    1.3632806   -5.6471577    4441.4348            3 
   67300     1.347428   -5.6578236    4419.7385            3 
   67400    1.3533031   -5.6881572    4422.2681            2 
   67500    1.3477727   -5.6684753    4421.9397            3 
   67600    1.3918854   -5.6474123    4404.2641            4 
   67700    1.3555035   -5.6244826    4406.7299            3 
   67800    1.3471341   -5.6579105    4440.8667            3 
   67900    1.3320577    -5.613716    4456.3122            1 
   68000     1.381219   -5.6876129    4412.4067            7 
   68100    1.3384611   -5.6772657    4405.1714            3 
   68200    1.3807751   -5.6785669    4422.9986            4 
   68300    1.3501711   -5.6704693     4435.469            2 
   68400    1.3796378   -5.6893494    4439.3069            4 
   68500    1.3490956   -5.6657104    4421.2197            3 
   68600    1.3601748   -5.6619565    4423.2876            2 
   68700    1.3548259   -5.6653544    4427.0055            2 
   68800    1.3701437   -5.6607061    4405.9875            2 
   68900    1.3815718   -5.6287358    4438.0967            2 
   69000    1.3713618   -5.6646758    4443.8659            2 
   69100     1.342576   -5.6933488    4434.9805            3 
   69200    1.3692574    -5.707308    4418.3396            3 
   69300     1.357075   -5.7018164    4402.1733            1 
   69400    1.3450877   -5.6944839    4427.8547            2 
   69500    1.3631433   -5.6977043    4438.2577            2 
   69600    1.3602491   -5.6864489    4404.1978            2 
   69700    1.3847984   -5.7085113    4412.2206            4 
   69800     1.372759   -5.6493163    4449.5544            2 
   69900    1.3680742   -5.6698799    4437.8261            4 
   70000    1.3560202   -5.6890116    4425.3435            2 
   70100    1.3951418   -5.6621981    4439.7453            2 
   70200    1.3647864   -5.6276457    4428.0404            4 
   70300    1.3621636   -5.6701299    4424.6007            3 
   70400    1.3393308   -5.6546692    4423.8275            2 
   70500    1.3496565   -5.6527494    4434.1216            2 
   70600    1.3605059   -5.6154907    4440.9663            3 
   70700    1.3701279   -5.6727412    4430.7518            4 
   70800    1.3399631   -5.6785061    4425.9827            3 
   70900    1.3793679   -5.6727943    4428.1703            2 
   71000    1.3509278   -5.6729098    4425.3221            2 
   71100    1.3418097   -5.6746638    4426.3718            3 
   71200    1.3685696     -5.68195    4431.9407            2 
   71300     1.376377   -5.6371972    4437.1277            4 
   71400    1.3760935   -5.6564373    4439.4959            2 
   71500    1.3713631   -5.7037768    4420.7326            6 
   71600    1.3344141   -5.6738733    4440.3223            2 
   71700    1.3609116   -5.6906221    4430.8164            1 
   71800    1.3541383   -5.6565847    4417.6178            3 
   71900    1.4023421   -5.6545987    4435.0727            7 
   72000    1.3492489   -5.6776666      4441.87            4 
   72100    1.3611321   -5.6673854    4434.1804            2 
   72200    1.3504247   -5.6301269    4408.0624            1 
   72300    1.3820793   -5.6199108    4426.9268            3 
   72400    1.3522402    -5.629598     4436.458            1 
   72500    1.3312001   -5.6988112    4435.4478            3 
   72600    1.3607846   -5.6961769    4427.1571            2 
   72700    1.3645486   -5.6747861    4425.8141            4 
   72800    1.3692457   -5.6471302    4421.2919            4 
   72900    1.3823622   -5.6423486     4438.495            2 
   73000    1.3736526   -5.6756676    4435.4596            2 
   73100    1.3522249   -5.7126637     4424.012            3 
   73200    1.3666495   -5.6941522    4426.7368            4 
   73300    1.3498778   -5.6575232    4445.8153            5 
   73400    1.3707138   -5.6143617    4449.7894            4 
   73500    1.3510476   -5.6305472    4436.0797            3 
   73600    1.3750654   -5.6580907    4440.2281            2 
   73700    1.3453665   -5.6410435    4446.5733            2 
   73800    1.3454025    -5.654589    4416.0799            2 
   73900    1.3839132   -5.6470997    4397.2088            3 
   74000    1.3405164   -5.6698938    4408.7271            2 
   74100    1.3476923   -5.6735375    4424.1018            7 
   74200    1.3725595   -5.6608037    4435.2774            2 
   74300    1.3306929   -5.6747275     4437.872            3 
   74400    1.3780719   -5.6571472    4424.4043            4 
   74500    1.3319294   -5.6498234    4405.4233            1 
   74600    1.3689774   -5.6881964    4426.1997            4 
   74700    1.3724633   -5.7017164    4426.7857            2 
   74800    1.3544061   -5.6910415    4414.1545            2 
   74900    1.3583575   -5.6927489    4430.2853            3 
   75000    1.3660292   -5.6653211    4432.2684            1 
   75100    1.3539351   -5.6423418    4445.1006            1 
   75200    1.3740109   -5.6414031    4434.2755            2 
   75300    1.3757987   -5.6802781    4416.8217            3 
   75400    1.3418248   -5.6748955    4409.9347            3 
   75500    1.3649765   -5.6326436    4437.2511            1 
   75600    1.3443137   -5.6364498    4437.0647            4 
   75700    1.3452207   -5.6759343    4423.0825            2 
   75800    1.3684258   -5.6357261    4420.6253            4 
   75900      1.36568   -5.6248737    4429.4814            1 
   76000    1.3476345   -5.6597468    4450.6517            4 
   76100    1.3522458   -5.6593568    4434.8898            6 
   76200    1.3796285   -5.6652875    4413.6695            2 
   76300    1.3623756   -5.6788012    4440.0946            3 
   76400    1.3567966   -5.6882079     4440.897            1 
   76500    1.3501127   -5.7000631    4421.3907            2 
   76600    1.3798711   -5.6619424    4427.3126            1 
   76700    1.3455568   -5.6653767    4437.6343            2 
   76800    1.3669643   -5.6402149    4443.2372            2 
   76900    1.3542178   -5.6593572    4422.8894            3 
   77000    1.3768079    -5.666328    4427.1466            3 
   77100    1.3348669   -5.6345079    4443.9977            2 
   77200    1.3452357   -5.6753934    4447.7388            3 
   77300     1.365766   -5.6831333    4421.2106            4 
   77400    1.3956715   -5.6491818    4422.1451            5 
   77500    1.3493947   -5.6396455    4421.2843            2 
   77600    1.3468591   -5.6394419    4434.9141            2 
   77700    1.3653609   -5.6223929    4449.2993            1 
   77800    1.3479747   -5.6586355    4436.1558            4 
   77900    1.3596713   -5.6816775    4422.4932            3 
   78000    1.3406696   -5.6766454    4384.9309            4 
   78100    1.3752586   -5.7077467     4397.106            1 
   78200    1.3362132   -5.6908146    4433.5732            3 
   78300    1.3759388   -5.6883282    4441.3413            2 
   78400    1.3523428   -5.6709943    4434.6891            2 
   78500    1.3216083   -5.6770779    4406.7878            4 
   78600    1.3731737   -5.6813398    4422.7493            2 
   78700    1.3635065   -5.6649212    4422.4049            2 
   78800    1.3577621    -5.697516    4413.4634            2 
   78900    1.3565126   -5.6746855    4448.2921            2 
   79000    1.3706796   -5.6616101    4450.1424            4 
   79100    1.3457442   -5.6407591    4437.9499            2 
   79200    1.3791878   -5.6399637    4415.3706            2 
   79300    1.3433277   -5.6134816     4404.637            1 
   79400     1.371225   -5.6713109    4416.6227            2 
   79500    1.3361279   -5.6736333    4410.4258            4 
   79600    1.3502832     -5.68296    4427.8291            2 
   79700    1.3238299   -5.6441126      4437.67            3 
   79800    1.3737681   -5.6467259    4437.8248            4 
   79900    1.3629516   -5.6632709    4423.3572            3 
   80000    1.3673367   -5.6435755    4416.9562            3 
   80100    1.3216259   -5.6471609    4422.5908            4 
   80200    1.3485804   -5.6827315    4421.9225            2 
   80300    1.3626747   -5.6876178     4435.379            8 
   80400    1.3522493   -5.7111556    4411.5736            5 
   80500    1.3543521   -5.7236221    4402.0901            2 
   80600    1.3741272   -5.6698852    4418.7294            3 
   80700    1.3999695   -5.6572788    4421.3806            4 
   80800    1.3513364   -5.6616898    4418.5189            3 
   80900    1.3716239   -5.6904841     4443.831            4 
   81000    1.3466734   -5.6719828    4440.9154            2 
   81100    1.3580983   -5.6695639    4422.0656            1 
   81200    1.3859055   -5.6393476    4425.6064            1 
   81300    1.3315086   -5.6324985    4435.9561            5 
   81400    1.3530815   -5.6586857    4426.6619            1 
   81500    1.3654671    -5.672686    4426.2519            3 
   81600    1.3780669   -5.6803164    4443.5085            1 
   81700    1.3295076   -5.6764291    4430.7107            2 
   81800    1.3599205   -5.6681528    4433.0466            1 
   81900    1.3732191   -5.6503474    4412.1086            3 
   82000    1.3498566    -5.670766    4408.2024            3 
   82100    1.3647608   -5.6661277     4440.981            2 
   82200    1.3307496   -5.6535117    4443.0917            1 
   82300    1.3790934   -5.6603331     4434.059            1 
   82400    1.3615216   -5.6476909     4414.949            2 
   82500    1.3637201   -5.6617956    4414.2661            2 
   82600    1.3695451   -5.6859014    4437.6666            4 
   82700    1.3188423   -5.6269195    4447.7143            4 
   82800    1.3962449   -5.6507945    4420.3225            3 
   82900    1.3637915   -5.6803719    4407.6042            1 
   83000    1.3299791   -5.6660214     4416.756            1 
   83100    1.3408612   -5.6232338     4437.503            4 
   83200    1.3805708   -5.6542998    4427.7869            2 
   83300    1.3575285   -5.6720048    4409.7927            2 
   83400    1.3713114   -5.6954833    4427.2704            1 
   83500    1.3532927   -5.6972065    4441.7023            5 
   83600    1.3704101   -5.6747713    4440.3948            2 
   83700    1.3755454   -5.6188168    4441.4003            3 
   83800    1.3245652   -5.6175333     4424.246            1 
   83900    1.3753404   -5.6372432    4423.3348            1 
   84000    1.3529535   -5.6870333    4413.3755            6 
   84100    1.3267898   -5.6749055    4423.9484            2 
   84200    1.3675335   -5.6837389    4430.3802            3 
   84300    1.3401999    -5.674481    4427.2222            1 
   84400    1.3267038   -5.6773057    4404.9555            3 
   84500     1.361582    -5.657961    4411.0048            3 
   84600    1.3549569   -5.6814185    4411.4851            3 
   84700    1.3507614   -5.6338663    4417.9222            2 
   84800     1.350041   -5.6449075    4421.6621            3 
   84900    1.3711269    -5.703029    4417.2266            4 
   85000    1.3569774   -5.6806929    4430.6408            3 
   85100      1.35455   -5.7231793    4416.7977            7 
   85200    1.3821154   -5.6955829    4406.6994            4 
   85300    1.3809074   -5.6777292    4432.3631            2 
   85400    1.3300786    -5.666977    4450.7298            2 
   85500    1.3883689   -5.6664476    4441.5584            1 
   85600    1.3758011   -5.6599751     4411.576            2 
   85700    1.3639231   -5.6443501    4413.3025            1 
   85800    1.3645561   -5.6780507    4426.7116            2 
   85900    1.3476697   -5.6894468     4428.321            3 
   86000     1.387291   -5.6898258    4445.5453            2 
   86100    1.3448099   -5.6938737    4414.6484            2 
   86200     1.359276   -5.6661282    4420.6402            2 
   86300     1.346388   -5.6331898    4448.0566            2 
   86400    1.3830022   -5.6347274    4443.4287            2 
   86500    1.3836857   -5.6681501    4417.1842            1 
   86600    1.3751461   -5.6768607    4429.7488            2 
   86700    1.3736936   -5.6643586    4439.7587            3 
   86800     1.339431   -5.6796043    4414.6075            5 
   86900    1.3596999   -5.6939898    4427.8175            2 
   87000    1.3439368   -5.6327851    4427.7859            3 
   87100    1.3462869   -5.6495236    4418.1301            2 
   87200    1.3615506    -5.667398    4405.4361            1 
   87300    1.3878786   -5.6723528    4420.9691            2 
   87400    1.3394684   -5.6766539    4429.3893            4 
   87500    1.3535864   -5.6622382    4422.0084            3 
   87600    1.3434149   -5.7147392    4411.0004            5 
   87700    1.3655022   -5.6954554    4418.7513            4 
   87800     1.369047   -5.6977565    4424.9615            7 
   87900    1.3449315    -5.702917    4434.3534            2 
   88000    1.3629384   -5.6525084    4438.5704            2 
   88100    1.3889598   -5.6866258    4414.8406            5 
   88200     1.352259   -5.6729727    4426.2324            4 
   88300    1.3633734   -5.6565589    4447.7126            2 
   88400    1.3475848   -5.6780522    4443.5127            5 
   88500    1.3613626   -5.6825872    4402.7193            1 
   88600    1.3287301   -5.6354159    4410.8366            3 
   88700     1.378769   -5.6601628    4420.7417            2 
   88800    1.3425569   -5.6825697    4431.7633            3 
   88900    1.3739214   -5.6952608    4426.7065            2 
   89000    1.3537064    -5.674256    4423.8665            3 
   89100    1.3484435   -5.6995982    4420.6292            2 
   89200    1.3520604   -5.6842747      4410.09            2 
   89300    1.3619474   -5.6682273    4436.1554            5 
   89400    1.3621353   -5.6559861     4442.495            4 
   89500    1.3867937   -5.6801095    4424.8383            5 
   89600    1.3577623    -5.695876    4406.8078            3 
   89700    1.3714853   -5.6777804     4404.133            2 
   89800    1.3370696   -5.6028401    4448.7921            1 
   89900    1.3710149   -5.6496793    4434.9255            1 
   90000    1.3656529   -5.6691198    4415.1062            5 
   90100    1.3923753   -5.6513134    4397.4226            4 
   90200    1.3388761    -5.676673    4431.2026            1 
   90300    1.3343237   -5.7035116    4436.3038            5 
   90400    1.3748811   -5.6732337    4426.1825            3 
   90500    1.3813767   -5.6699933    4416.1502            4 
   90600    1.3492336   -5.6890221    4412.2564            2 
   90700    1.3722282   -5.6692329      4434.87            2 
   90800    1.3725223   -5.6746305    4431.0373            2 
   90900    1.3599807   -5.6796494    4420.2785            2 
   91000    1.3510773   -5.6542044    4409.6103            5 
   91100    1.3631491   -5.6762163    4418.8547            3 
   91200    1.3693981   -5.6836769    4442.5449            2 
   91300    1.3515183   -5.6846939    4433.6135            1 
   91400    1.3642446   -5.6725718    4423.0713            2 
   91500    1.3528225   -5.6453831    4451.9367            2 
   91600    1.3714378   -5.6384277    4454.1392            2 
   91700    1.3458812   -5.6365786      4421.81            6 
   91800    1.3588935   -5.6929816    4409.1238            3 
   91900     1.343667   -5.6576099    4407.8071            4 
   92000    1.3739081   -5.6673517    4425.8617            1 
   92100    1.3457803   -5.6927487    4429.5105            2 
   92200    1.3499323    -5.648387    4417.9914            3 
   92300     1.407503   -5.6525136    4416.3151            3 
   92400    1.3616223   -5.6468898    4414.1182            2 
   92500    1.3446825   -5.6511395    4442.3255            3 
   92600    1.3664741   -5.6827341    4437.2913            3 
   92700    1.3589573   -5.6919252    4411.4664            5 
   92800    1.3640351   -5.6575163    4414.1005            4 
   92900    1.3503682   -5.6341358    4427.9432            2 
   93000    1.3677898   -5.6831016    4417.8807            5 
   93100    1.3432253   -5.6971416     4415.684            6 
   93200    1.3486969   -5.6655802    4428.1891            3 
   93300    1.3643428   -5.6547851    4454.9909            3 
   93400    1.3820786   -5.6230464    4435.7881            2 
   93500    1.4107216   -5.6230523    4443.1976            2 
   93600    1.3467064   -5.6183909    4424.0203            2 
   93700    1.3516195   -5.6924519    4432.1079            2 
   93800     1.358223    -5.673843    4436.2729            2 
   93900    1.3790364   -5.6574749    4439.0869            2 
   94000    1.3651644   -5.6758543    4408.4722            1 
   94100    1.3577746    -5.676473    4410.3185            1 
   94200    1.3761094   -5.6501109    4459.5709            3 
   94300    1.3429923     -5.62063    4459.1035            2 
   94400    1.3622414   -5.6774156     4413.141            2 
   94500    1.3643544    -5.686557    4421.0983            3 
   94600    1.3654271   -5.6648465    4437.7727            2 
   94700    1.3306847   -5.6353752     4437.571            5 
   94800     1.359088   -5.6751519    4405.5158            1 
   94900    1.3974731   -5.7081916      4404.99            8 
   95000    1.3587221   -5.6676825    4429.3195            5 
   95100    1.3519496   -5.6451099    4436.4274            4 
   95200     1.365233   -5.6607643    4423.3509            3 
   95300    1.3708866   -5.6439621    4427.7122            2 
   95400    1.3446552   -5.6542493    4412.9606            3 
   95500    1.3697365    -5.676935    4396.5845            4 
   95600    1.3333967   -5.6913599    4411.5197            2 
   95700    1.3636777    -5.676533    4435.1318            3 
   95800    1.3475996   -5.6737527    4429.6697            6 
   95900    1.3456931    -5.694122    4405.8837            2 
   96000    1.3492266   -5.6411406    4422.5934            3 
   96100    1.3623246   -5.6648447    4428.5474            2 
   96200    1.3519752   -5.6624034    4427.1315            3 
   96300    1.3713681   -5.6518576    4447.7445            4 
   96400    1.3667606    -5.695874    4420.0756            3 
   96500    1.3438664   -5.7142317    4420.6814            5 
   96600    1.3538755   -5.6603991    4429.5794            3 
   96700    1.3435989   -5.6502017    4428.8954            1 
   96800    1.3786028   -5.6609673    4420.7883            1 
   96900    1.3941973   -5.6237447    4425.7974            3 
   97000    1.3284232   -5.6100331    4449.2098            3 
   97100    1.3491649   -5.6422734    4445.7364            2 
   97200    1.3568578     -5.68223     4426.769            1 
   97300    1.3925991   -5.6543808    4428.7727            5 
   97400    1.3887398   -5.6705107    4416.8389            2 
   97500    1.3386094   -5.6513627    4429.4135            4 
   97600     1.383406   -5.6574209     4450.853            2 
   97700    1.3532719    -5.632656    4461.5115            2 
   97800    1.3466114    -5.620784    4433.6766            2 
   97900    1.3638306    -5.662691    4415.1961            3 
   98000    1.3489337   -5.6684138    4401.5834            3 
   98100    1.3786883   -5.6568473    4437.3949            2 
   98200    1.3823674   -5.6497615    4441.8149            2 
   98300     1.343006    -5.668524    4436.6386            2 
   98400    1.3952485   -5.6789469    4430.0913            2 
   98500    1.3422376   -5.6742714    4423.4572            3 
   98600    1.3791159   -5.7022492    4426.2785            3 
   98700    1.3554073   -5.6939784    4438.9602            3 
   98800    1.3710901   -5.6617501    4417.6527            3 
   98900    1.3802425   -5.6660371    4413.0223            4 
   99000    1.3329488   -5.6889273    4426.0114            4 
   99100    1.3444041   -5.6781223    4441.3173            5 
   99200    1.3549583   -5.6369334    4428.4138            2 
   99300     1.353819   -5.6795381    4409.1393            2 
   99400     1.343913   -5.6400034    4422.5814            3 
   99500     1.355789   -5.6408749    4428.1783            2 
   99600     1.350257   -5.6805814    4417.8021            2 
   99700    1.3289287   -5.6753885    4409.4732            5 
   99800    1.3684694   -5.6697817    4434.6479            2 
   99900    1.3459331   -5.6506843    4422.0871            3 
  100000     1.359399   -5.6989862    4395.7037            4 
  100100    1.3564215   -5.6718637    4406.9157            4 
  100200    1.3449736   -5.6500203    4439.2546            3 
  100300    1.3595837   -5.6379097    4418.8845            2 
  100400    1.3529132   -5.6430943      4407.82            2 
  100500     1.363667   -5.6411642    4422.9332            7 
  100600    1.3250891   -5.6054963    4461.3089            4 
  100700    1.3447437   -5.6441421    4430.9989            3 
  100800     1.394016   -5.6815948    4412.3779            2 
  100900    1.3434319   -5.6678772    4417.9183            2 
  101000    1.3469336   -5.7080532    4412.9185            2 
  101100    1.3764986   -5.6815421    4420.0526            4 
  101200    1.3798109   -5.6558826    4436.2791            5 
  101300      1.35445   -5.6686012    4437.6033            2 
  101400    1.3731652   -5.6882406    4420.5322            7 
  101500    1.3667059   -5.6927987    4422.6154            3 
  101600    1.3442865   -5.6811541    4417.1131            2 
  101700    1.3678457   -5.6584059    4397.6297            2 
  101800    1.3702454   -5.6602009     4412.573            3 
  101900    1.3636912   -5.6470684    4445.4077            1 
  102000     1.336392   -5.6618478    4441.6071            4 
  102100    1.3539975   -5.6926749    4424.6245            3 
  102200    1.3878708   -5.6823357     4407.528            4 
  102300     1.337117   -5.6903222    4417.6582            5 
  102400    1.3933928   -5.7003194    4435.9261            3 
  102500    1.3650078   -5.7179673    4426.9453            3 
  102600     1.349596   -5.6910381     4421.669            2 
  102700    1.3343796   -5.6343223    4416.0603            4 
  102800     1.395746   -5.6776948    4417.2532            2 
  102900    1.3451862   -5.6398703    4438.0207            2 
  103000     1.383025   -5.6436998    4451.3477            3 
  103100    1.3674424   -5.6178777    4454.4075            3 
  103200    1.3720961   -5.6899376     4429.781            3 
  103300    1.3349519    -5.669938    4422.5256            3 
  103400    1.3966269   -5.6930317    4420.6946            4 
  103500    1.3411233   -5.6846033    4414.4321            2 
  103600    1.3586546   -5.6747832    4412.9858            2 
  103700    1.3535605   -5.6813786    4411.4725            2 
  103800    1.3814949     -5.65367    4419.3389            2 
  103900    1.3646716   -5.6510843    4438.2749            1 
  104000    1.3408481   -5.6763498     4433.111            3 
Loop time of 280.146 on 18 procs for 100000 steps with 4000 atoms

Performance: 61682.122 tau/day, 356.957 timesteps/s
99.6% CPU use with 18 MPI tasks x no OpenMP threads

MPI task timing breakdown:
Section |  min time  |  avg time  |  max time  |%varavg| %total
---------------------------------------------------------------
Pair    | 34.344     | 35.998     | 37.846     |  16.2 | 12.85
Neigh   | 5.3084     | 5.4163     | 5.6424     |   3.6 |  1.93
Comm    | 12.467     | 14.332     | 17.123     |  43.6 |  5.12
Output  | 5.709      | 5.7103     | 5.7259     |   0.2 |  2.04
Modify  | 213.53     | 216.22     | 218.96     |  12.2 | 77.18
Other   |            | 2.474      |            |       |  0.88

Nlocal:        222.222 ave         234 max         215 min
Histogram: 3 2 3 2 2 2 2 1 0 1
Nghost:        2224.33 ave        2250 max        2204 min
Histogram: 1 3 2 2 1 4 3 1 0 1
Neighs:        22883.3 ave       24708 max       21235 min
Histogram: 2 1 0 6 2 2 1 1 1 2
FullNghs:      45766.8 ave       48608 max       43986 min
Histogram: 3 2 3 3 1 1 2 2 0 1

Total # of neighbors = 823803
Ave neighs/atom = 205.95075
Neighbor list builds = 6935
Dangerous builds = 0

#clear
#
#next RN
#
#jump SELF
Total wall time: 0:04:42
