
units lj                  # Use reduced LJ style units
atom_style atomic         # Uncharged point particles
atom_modify map hash      # Needed for indexing of clusters etc
                          # Used to be able to find where atoms are in relation to each other.

# Define a lattice with which to populate the simulation cell. With units
# set to 'lj' the second argument to the lattice command is the reduced
# density rho* and the spacings are multiples of that required to acheive
# that density. Also define a simulation cell called 'box' in lattice units
# and fill it with atoms. Here we're creating a box which is ten lattice
# constants in each direction.
lattice fcc 1.0 spacing 1 1 1                 # All equal sizes - gives the right reduced density.
Lattice spacing in x,y,z = 1.5874011 1.5874011 1.5874011

region box block 0 10 0 10 0 10 units lattice # Defines a region, "box", in lattice units
create_box 1 box                              # Creates a simulation box as specified above,
Created orthogonal box = (0.0000000 0.0000000 0.0000000) to (15.874011 15.874011 15.874011)
  3 by 4 by 4 MPI processor grid
                                              # with one type of atom
create_atoms 1 box                            # Creates particles on lattice points
Created 4000 atoms
  using lattice units in orthogonal box = (0.0000000 0.0000000 0.0000000) to (15.874011 15.874011 15.874011)
  create_atoms CPU = 0.009 seconds


# Set the mass of the first (and only) atom type.
mass 1 1.0

# Lennard-Jones interactions between particles, 3.5 sigma cut-off. Apply
# long range tail corrections to energy and pressure and set all coefficients
# to unity since we work in reduced units here. Note that this doesn't shift
# the potential such that it goes to zero at the cutoff. That would require
# pair_modify('shift', 'yes').
pair_style lj/cut  3.5      # non-GPU version
pair_modify tail  yes
pair_coeff 1  1  1.0  1.0   # Intearaction between 1 and 1 set with epsilon = 1 and sigma = 1

write_data data.*
System init for write_data ...
Neighbor list info ...
  update every 1 steps, delay 10 steps, check yes
  max neighbors/atom: 2000, page size: 100000
  master list distance cutoff = 3.8
  ghost atom cutoff = 3.8
  binsize = 1.9, bins = 9 9 9
  1 neighbor lists, perpetual/occasional/extra = 1 0 0
  (1) pair lj/cut, perpetual
      attributes: half, newton on
      pair build: half/bin/atomonly/newton
      stencil: half/bin/3d
      bin: standard

#############################
#   M E L T   S Y S T E M   #
#############################

velocity all create 2.4 2750902 mom yes dist gaussian # Assign velocities
                                                    # Temperature 2.4, random number seed, zero linear momentum
						                                                        # Gaussian distribution

timestep 0.002   # simulation timestep
thermo 1000       # output thermodynamic data every 1000 steps

# Define a fix  in this case with index 1 applied to all
# particles in the simulation. This fix is for simulations
# in the anisotropic NPT ensemble. Note that we use the MTK
# correction.
fix 1 all npt temp 2.4 2.4 0.1 iso 5.68 5.68 0.5 mtk yes tchain 5 pchain 5 # Use NPT ensemble
                                                                         # Set temperature and pressure and damping
                                                                         # Numbers of thermostats in chain and in barostat
run 1000         # run for 10000 steps
Per MPI rank memory allocation (min/avg/max) = 3.642 | 3.644 | 3.648 Mbytes
Step Temp E_pair E_mol TotEng Press Volume 
       0          2.4   -8.3859253            0   -4.7868253   -2.2405722         4000 
    1000    2.3434012   -4.4238704            0  -0.90964738    5.8682558    5151.8188 
Loop time of 0.238466 on 48 procs for 1000 steps with 4000 atoms

Performance: 724633.087 tau/day, 4193.479 timesteps/s
99.2% CPU use with 48 MPI tasks x no OpenMP threads

MPI task timing breakdown:
Section |  min time  |  avg time  |  max time  |%varavg| %total
---------------------------------------------------------------
Pair    | 0.091624   | 0.099691   | 0.10927    |   1.3 | 41.81
Neigh   | 0.017323   | 0.018722   | 0.020321   |   0.5 |  7.85
Comm    | 0.064832   | 0.074766   | 0.087252   |   1.8 | 31.35
Output  | 2.6089e-05 | 2.6729e-05 | 3.3818e-05 |   0.0 |  0.01
Modify  | 0.040098   | 0.043724   | 0.048015   |   1.0 | 18.34
Other   |            | 0.001536   |            |       |  0.64

Nlocal:        83.3333 ave          95 max          78 min
Histogram: 8 10 8 7 5 5 2 1 1 1
Nghost:        1391.50 ave        1422 max        1362 min
Histogram: 4 2 3 6 11 8 4 3 2 5
Neighs:        7406.25 ave        8468 max        6555 min
Histogram: 2 6 8 5 10 4 6 2 1 4

Total # of neighbors = 355500
Ave neighs/atom = 88.875000
Neighbor list builds = 87
Dangerous builds = 20

# Equilibrate just above the melting temperature to avoid step fn in T

fix 1 all npt temp 1.25 1.25 0.1 iso 5.68 5.68 0.5 mtk yes tchain 5 pchain 5
run 1000
Per MPI rank memory allocation (min/avg/max) = 3.642 | 3.644 | 3.648 Mbytes
Step Temp E_pair E_mol TotEng Press Volume 
    1000    2.3434012   -4.4238704            0  -0.90964738    5.8682558    5151.8188 
    2000    1.2429145   -5.8542389            0   -3.9903333    5.7194736    4334.1532 
Loop time of 0.211704 on 48 procs for 1000 steps with 4000 atoms

Performance: 816235.729 tau/day, 4723.586 timesteps/s
99.6% CPU use with 48 MPI tasks x no OpenMP threads

MPI task timing breakdown:
Section |  min time  |  avg time  |  max time  |%varavg| %total
---------------------------------------------------------------
Pair    | 0.092228   | 0.099304   | 0.10498    |   0.9 | 46.91
Neigh   | 0.015651   | 0.016232   | 0.017031   |   0.2 |  7.67
Comm    | 0.066591   | 0.072103   | 0.078051   |   1.1 | 34.06
Output  | 2.4438e-05 | 2.5443e-05 | 3.1771e-05 |   0.0 |  0.01
Modify  | 0.01986    | 0.022105   | 0.025507   |   1.0 | 10.44
Other   |            | 0.001935   |            |       |  0.91

Nlocal:        83.3333 ave          91 max          76 min
Histogram: 2 0 6 7 12 2 13 2 2 2
Nghost:        1559.08 ave        1579 max        1541 min
Histogram: 2 2 8 11 4 8 3 5 3 2
Neighs:        8794.40 ave        9967 max        8047 min
Histogram: 4 3 11 7 11 7 2 2 0 1

Total # of neighbors = 422131
Ave neighs/atom = 105.53275
Neighbor list builds = 75
Dangerous builds = 8


# Small amount of linear quench

fix 1 all npt temp 1.25 ${temp} 0.1 iso 5.68 5.68 0.5 mtk yes tchain 5 pchain 5
fix 1 all npt temp 1.25 0.02 0.1 iso 5.68 5.68 0.5 mtk yes tchain 5 pchain 5
run 2000
Per MPI rank memory allocation (min/avg/max) = 3.643 | 3.645 | 3.648 Mbytes
Step Temp E_pair E_mol TotEng Press Volume 
    2000    1.2429145   -5.8542389            0   -3.9903333    5.7194736    4334.1532 
    3000   0.76283114   -6.5716554            0   -5.4276947    5.7139962    4028.5057 
    4000   0.15673281   -7.4328152            0   -7.1977748    5.7445051    3721.7381 
Loop time of 0.450034 on 48 procs for 2000 steps with 4000 atoms

Performance: 767941.870 tau/day, 4444.108 timesteps/s
99.7% CPU use with 48 MPI tasks x no OpenMP threads

MPI task timing breakdown:
Section |  min time  |  avg time  |  max time  |%varavg| %total
---------------------------------------------------------------
Pair    | 0.20925    | 0.22494    | 0.23396    |   1.1 | 49.98
Neigh   | 0.02158    | 0.022963   | 0.023968   |   0.3 |  5.10
Comm    | 0.14183    | 0.15103    | 0.17383    |   1.7 | 33.56
Output  | 4.8265e-05 | 5.1013e-05 | 0.00014503 |   0.0 |  0.01
Modify  | 0.03843    | 0.045348   | 0.052061   |   1.9 | 10.08
Other   |            | 0.005701   |            |       |  1.27

Nlocal:        83.3333 ave          89 max          76 min
Histogram: 1 3 0 9 5 5 18 1 3 3
Nghost:        1713.88 ave        1733 max        1695 min
Histogram: 2 1 7 7 8 5 9 5 2 2
Neighs:        10299.9 ave       11058 max        9387 min
Histogram: 2 0 3 8 6 8 9 6 2 4

Total # of neighbors = 494396
Ave neighs/atom = 123.59900
Neighbor list builds = 100
Dangerous builds = 0

#############################
# F R E E Z E  S Y S T E M  #
#############################

# Define solid atoms. This closely follows ten Wolde  Ruiz-Montero and Frenkel  Faraday Discuss  1996  104  93-110
# Compute components of the per-atom q6 vector
compute q6 all orientorder/atom degrees 1 6 components 6 nnn NULL cutoff 1.3 # compute the Q6 parameter.
                                                                             # Use all neighbours within 1.3 unit cell.

# get number of connections
compute coord_number all coord/atom orientorder q6 0.5

# An atom is solid if it has 8 or more connections (of a possible 14)
variable is_solid atom c_coord_number>=8
group solid dynamic all var is_solid    # Must be dynamic to update
dynamic group solid defined

# do clustering
compute cluster solid cluster/atom 1.3 # Create a cluster where all atoms within are solid and max 1.3 units from another member

# define chunks one chunk per cluster
compute clus_chunks solid chunk/atom c_cluster nchunk every compress yes  # Says which atoms are in which chunk

# count the size of each chunk
compute size_chunks solid property/chunk clus_chunks count


# Find the maximum entry in the vector of chunk sizes
variable max_n equal max(c_size_chunks)


# Thermo style which includes this variable
thermo_style custom step temp pe vol v_max_n

thermo ${N}  # Print the thermo information every 100 steps
thermo 1000  

# Reset the npt fix at a lower temperature (below freezing)
fix 1  all npt temp  ${temp} ${temp}  0.1  iso  5.68  5.68  0.5  mtk yes tchain  5  pchain  5
fix 1  all npt temp  0.02 ${temp}  0.1  iso  5.68  5.68  0.5  mtk yes tchain  5  pchain  5
fix 1  all npt temp  0.02 0.02  0.1  iso  5.68  5.68  0.5  mtk yes tchain  5  pchain  5

dump dmp2 all dcd ${N} traj_${rand}.dcd
dump dmp2 all dcd 1000 traj_${rand}.dcd
dump dmp2 all dcd 1000 traj_462431.dcd


# fix rnuntil all halt ${N} v_max_n >= 3980 error soft message no   # Stop when solidified


run 1000000 # 5000000  # Run for this many steps
Neighbor list info ...
  update every 1 steps, delay 10 steps, check yes
  max neighbors/atom: 2000, page size: 100000
  master list distance cutoff = 3.8
  ghost atom cutoff = 3.8
  binsize = 1.9, bins = 9 9 9
  4 neighbor lists, perpetual/occasional/extra = 1 3 0
  (1) pair lj/cut, perpetual
      attributes: half, newton on
      pair build: half/bin/atomonly/newton
      stencil: half/bin/3d
      bin: standard
  (2) compute orientorder/atom, occasional
      attributes: full, newton on
      pair build: full/bin/atomonly
      stencil: full/bin/3d
      bin: standard
  (3) compute coord/atom, occasional
      attributes: full, newton on
      pair build: full/bin/atomonly
      stencil: full/bin/3d
      bin: standard
  (4) compute cluster/atom, occasional
      attributes: full, newton on
      pair build: full/bin/atomonly
      stencil: full/bin/3d
      bin: standard
Per MPI rank memory allocation (min/avg/max) = 9.395 | 9.398 | 9.401 Mbytes
Step Temp PotEng Volume v_max_n 
    4000   0.15673281   -7.4328152    3721.7381           39 
    5000  0.021955296   -7.6523162    3659.2681           62 
    6000  0.019785265   -7.6737297    3652.4105           80 
    7000  0.020563069    -7.684932    3647.5203           88 
    8000  0.020276338   -7.7000229    3643.2009          159 
    9000  0.019631316   -7.7059136    3642.2567          120 
   10000  0.019987264   -7.7106734    3643.1439          223 
   11000   0.02007323   -7.7144798    3641.2558          295 
   12000  0.019944356   -7.7169921    3640.6822          398 
   13000  0.020012995   -7.7197023    3637.6297          422 
   14000  0.019862094    -7.721545    3637.0105          313 
   15000  0.019958577   -7.7228404    3636.6731          377 
   16000  0.020036826   -7.7239935    3636.8977          410 
   17000  0.020353643   -7.7282033    3637.0992          421 
   18000  0.020498431   -7.7310055    3637.6809          397 
   19000  0.019797572   -7.7310273    3637.1183          391 
   20000  0.020126155   -7.7312542    3636.8568          440 
   21000    0.0202978   -7.7302072    3636.1659          460 
   22000  0.019787402   -7.7289043    3634.8082          391 
   23000  0.019892833   -7.7288711    3634.9255          437 
   24000  0.020061276    -7.728808    3635.3179          427 
   25000  0.019988526   -7.7294153    3635.2524          431 
   26000   0.01999125   -7.7306098    3635.9882          456 
   27000  0.019664234   -7.7315509    3636.5971          438 
   28000   0.02014445   -7.7309705    3636.5056          408 
   29000  0.019657249   -7.7320434    3637.5653          466 
   30000  0.020307661   -7.7307648    3636.3298          488 
   31000  0.019637262    -7.730101    3635.7352          453 
   32000  0.019466584   -7.7294123    3635.6115          476 
   33000  0.020285176   -7.7286699         3635          454 
   34000  0.020451339   -7.7297071    3635.5192          389 
   35000  0.019484313   -7.7297482    3635.5012          463 
   36000  0.019598239   -7.7313833    3636.6748          400 
   37000  0.020057306   -7.7314317    3636.6498          475 
   38000  0.019831508   -7.7314968    3636.9773          378 
   39000  0.020111927   -7.7313466    3636.9945          404 
   40000  0.019618184   -7.7302238    3635.9785          448 
   41000  0.020429833   -7.7289863    3635.2497          446 
   42000  0.019895733   -7.7282191    3634.4737          439 
   43000  0.019931886    -7.729384    3635.3828          446 
   44000  0.020011585   -7.7295584    3635.7893          469 
   45000  0.019373057   -7.7306784    3636.2135          492 
   46000  0.019331384    -7.730601     3636.019          494 
   47000  0.019891119   -7.7318872    3637.1714          431 
   48000  0.019899339   -7.7306455    3636.3257          444 
   49000  0.019875366   -7.7307349    3636.3616          422 
   50000  0.020408219   -7.7296467    3635.7217          393 
   51000  0.020102266   -7.7293944    3635.4343          383 
   52000  0.020150528   -7.7275329    3634.0848          460 
   53000  0.020183209   -7.7297449    3635.4435          471 
   54000  0.020204971   -7.7298238    3636.1959          448 
   55000  0.019518703   -7.7326595    3637.7615          449 
   56000  0.020033259   -7.7313937    3636.9296          430 
   57000  0.020043356   -7.7310037    3636.6333          468 
   58000  0.020105094   -7.7313542    3636.7434          414 
   59000  0.020085009   -7.7301722     3635.738          476 
   60000  0.019720349   -7.7297287    3635.3706          430 
   61000  0.020276237   -7.7280519    3634.8442          467 
   62000  0.019699389   -7.7279072     3634.226          452 
   63000    0.0203129   -7.7305605    3635.7027          374 
   64000  0.020192255   -7.7313565    3636.6013          440 
   65000  0.020430267     -7.73073    3636.2928          398 
   66000  0.020002716   -7.7300494    3636.1735          415 
   67000  0.019912572   -7.7317528    3636.6748          409 
   68000  0.020136022    -7.730614    3635.9676          427 
   69000  0.020016508   -7.7292834    3635.2201          441 
   70000  0.020037676   -7.7297353    3635.4607          415 
   71000  0.019866158   -7.7299103    3635.5372          425 
   72000  0.019702716   -7.7296618    3635.4861          433 
   73000  0.020214479   -7.7305319    3636.1645          421 
   74000  0.019942732   -7.7315541    3636.9199          417 
   75000  0.019877075   -7.7318009    3637.0229          410 
   76000  0.020260252   -7.7320622    3636.6318          460 
   77000  0.019992138   -7.7316113    3636.5254          439 
   78000  0.020153702   -7.7299566    3635.3754          462 
   79000  0.020035227   -7.7294226    3635.1517          379 
   80000  0.019747201   -7.7288655    3635.0092          381 
   81000  0.020113441   -7.7286159    3634.3656          431 
   82000  0.019824448    -7.730227    3635.7146          421 
   83000  0.020077716    -7.730742    3636.3849          464 
   84000  0.020382979   -7.7323224     3636.828          382 
   85000  0.019920031   -7.7313029    3636.0992          428 
   86000  0.019847913   -7.7308483    3636.4436          420 
   87000  0.020147625    -7.730472    3635.9627          471 
   88000  0.020485393   -7.7294745    3635.1591          376 
   89000  0.020177577   -7.7297002    3635.5755          429 
   90000  0.019996547   -7.7290858    3634.9483          466 
   91000  0.019680357    -7.730078     3635.599          426 
   92000  0.020036286   -7.7310182    3636.2129          415 
   93000  0.019966852   -7.7314454     3636.468          428 
   94000  0.019821641   -7.7318537    3636.6768          417 
   95000  0.019695324   -7.7335805    3638.0396          413 
   96000  0.020143355   -7.7312491    3636.2268          425 
   97000  0.020413183   -7.7300702    3635.6367          388 
   98000  0.020050626   -7.7292168    3635.1227          423 
   99000  0.019813916   -7.7266077    3633.7323          367 
  100000  0.019560478   -7.7296025    3634.9818          438 
  101000  0.020100624    -7.730817    3635.7176          450 
  102000  0.020116649   -7.7311431    3636.3027          421 
  103000  0.020627888   -7.7330894     3637.843          425 
  104000  0.019540031   -7.7320346    3636.9691          428 
  105000  0.020202763   -7.7312153    3636.3574          416 
  106000  0.019955256   -7.7298917      3635.95          426 
  107000  0.019965557   -7.7291472    3635.0351          423 
  108000  0.020178544   -7.7292857    3635.0531          437 
  109000  0.019699222   -7.7297549    3635.0308          458 
  110000  0.019561237   -7.7299008    3635.6002          432 
  111000  0.019767108   -7.7315261    3636.3228          339 
  112000   0.02017702   -7.7318041    3636.9423          405 
  113000  0.019943785    -7.731635    3636.2079          480 
  114000  0.020028287   -7.7320038     3636.914          406 
  115000  0.019889489   -7.7310606    3635.8531          364 
  116000  0.019945011   -7.7296019    3635.3526          425 
  117000  0.019720882   -7.7286735    3634.4665          416 
  118000  0.020519277   -7.7296493    3635.2164          449 
  119000  0.020186983   -7.7296178    3635.0268          413 
  120000  0.020189148   -7.7304271    3635.7342          406 
  121000  0.019824767   -7.7305021    3636.2767          423 
  122000  0.019589481   -7.7322063    3637.1296          442 
  123000  0.019654341   -7.7310655     3636.248          474 
  124000  0.019801261   -7.7318526    3636.6903          463 
  125000   0.02004508     -7.73101    3635.8264          421 
  126000  0.020477649   -7.7297297    3635.8146          373 
  127000  0.019851879   -7.7290049    3634.5445          423 
  128000  0.019775252   -7.7292427     3634.908          441 
  129000  0.020307218   -7.7302245    3635.5291          436 
  130000  0.020373914   -7.7308024    3636.0998          422 
  131000  0.019515963   -7.7327741    3637.3833          410 
  132000   0.02005506    -7.732037    3635.9712          401 
  133000  0.019968083   -7.7313282    3636.8367          375 
  134000  0.020213338    -7.730447      3635.94          415 
  135000  0.019579709   -7.7294599    3634.6685          419 
  136000  0.020248603   -7.7289639    3635.4846          408 
  137000   0.02012116   -7.7299263    3635.2046          367 
  138000  0.020310461   -7.7295171    3634.8768          422 
  139000  0.019800646    -7.730639    3636.0514          417 
  140000  0.020485312   -7.7321711    3636.6943          414 
  141000  0.019741703   -7.7324897    3637.0474          388 
  142000  0.019873958   -7.7308815    3636.3269          466 
  143000  0.019707659   -7.7304692    3635.8803          465 
  144000  0.019796796   -7.7305795    3635.7633          413 
  145000  0.020176528   -7.7293689    3634.9469          370 
  146000  0.020177842   -7.7298779     3635.719          415 
  147000  0.020089012   -7.7292309    3634.6436          438 
  148000   0.01970484   -7.7306545    3635.8158          388 
  149000  0.020321556   -7.7312195     3636.555          416 
  150000  0.019658007   -7.7315093    3636.6799          387 
  151000    0.0201533   -7.7322863    3637.1453          421 
  152000  0.020619905    -7.731082    3636.5117          419 
  153000  0.019952087   -7.7300144    3636.0926          385 
  154000  0.019982315   -7.7289326    3634.9649          387 
  155000  0.020230971    -7.729561    3635.3971          438 
  156000  0.020283141   -7.7290496    3634.7562          453 
  157000  0.019996167   -7.7297584     3635.054          428 
  158000  0.020073933    -7.730418    3636.0334          468 
  159000  0.020537528   -7.7314165    3636.5939          386 
  160000  0.019590279   -7.7348958    3638.7235          435 
  161000  0.020316445   -7.7316204    3636.8262          428 
  162000    0.0194219   -7.7305695    3636.0988          398 
  163000  0.019855812   -7.7301256    3635.6169          421 
  164000   0.02039444   -7.7299428    3635.5147          460 
  165000  0.020140403   -7.7285661    3634.3655          479 
  166000  0.019969011   -7.7293368    3635.4303          375 
  167000  0.019567418   -7.7303341    3635.6602          384 
  168000  0.019940677   -7.7308087    3636.0465          458 
  169000  0.020252361   -7.7323492    3636.6446          416 
  170000  0.019927847     -7.73252    3637.4784          434 
  171000  0.019527167   -7.7314348    3636.4148          425 
  172000  0.019993129    -7.730877    3635.8531          404 
  173000  0.020323698   -7.7302419    3635.3545          343 
  174000  0.020003236   -7.7303102    3635.3679          460 
  175000  0.020400517   -7.7288719    3634.9873          439 
  176000  0.020373487   -7.7301546    3635.7359          412 
  177000  0.019855941   -7.7306619    3636.3149          435 
  178000  0.020081524   -7.7305653    3636.1619          372 
  179000  0.020440572   -7.7310647    3636.7034          455 
  180000  0.020272911   -7.7313999    3636.7722          425 
  181000  0.019988336   -7.7308418    3636.3996          426 
  182000  0.019686976   -7.7303676    3635.7571          460 
  183000  0.019850607   -7.7296079    3635.2001          376 
  184000  0.019762119   -7.7288694    3634.9613          418 
  185000  0.019918902   -7.7291096    3635.1775          434 
  186000  0.020027318   -7.7307591     3635.849          415 
  187000  0.019679071   -7.7300786    3636.0721          461 
  188000  0.019849863    -7.732253    3637.1189          423 
  189000  0.020026585   -7.7312872     3636.277          424 
  190000  0.020350968   -7.7316007    3636.6564          471 
  191000  0.020153653   -7.7301138    3635.9418          461 
  192000  0.019979991   -7.7300099     3635.429          437 
  193000  0.019909551   -7.7282802    3634.9008          451 
  194000  0.019808865   -7.7293507    3635.1004          464 
  195000  0.020196577   -7.7299053    3635.1272          449 
  196000  0.019702146   -7.7308197    3636.0432          418 
  197000  0.019740094   -7.7316244     3636.326          415 
  198000  0.019501719   -7.7331286    3637.6378          402 
  199000  0.020390871   -7.7317781    3636.2904          426 
  200000  0.020233278   -7.7313785    3636.0779          416 
  201000  0.019695089   -7.7311576    3635.2788          467 
  202000  0.019983795   -7.7313241    3634.6282          481 
  203000  0.019560283   -7.7317113    3633.4562          500 
  204000   0.02000205   -7.7344928     3634.257          459 
  205000  0.019656066   -7.7354905    3634.2072          550 
  206000  0.020144996   -7.7372893     3634.103          522 
  207000  0.019893426   -7.7387846    3634.8513          538 
  208000  0.019820126   -7.7386339    3634.7791          499 
  209000  0.020260546   -7.7400982     3635.532          502 
  210000  0.019931256   -7.7383832    3634.0667          511 
  211000  0.020129234   -7.7372259    3633.7152          500 
  212000  0.019921647   -7.7368295    3631.8615          523 
  213000  0.019849743   -7.7368375    3632.4943          577 
  214000  0.019943036   -7.7380995    3632.6861          498 
  215000  0.019778471   -7.7375151    3632.6492          542 
  216000  0.019668967   -7.7400938    3633.0216          530 
  217000  0.020048735   -7.7403891    3633.2903          611 
  218000  0.019861918   -7.7427672    3634.2456          634 
  219000  0.019994653    -7.741567    3633.7016          568 
  220000  0.019891036   -7.7422931      3634.24          538 
  221000  0.020077268   -7.7416483    3633.0019          560 
  222000  0.019851153   -7.7409572    3633.0024          519 
  223000   0.02003902   -7.7404539    3632.4956          589 
  224000  0.020111538   -7.7397395    3631.9658          563 
  225000  0.019733045   -7.7406071    3632.3028          528 
  226000  0.020055797   -7.7394863    3631.7029          526 
  227000  0.019843979   -7.7411265    3632.7584          541 
  228000  0.020362688   -7.7412134    3633.1598          523 
  229000  0.020146332   -7.7416201    3633.1108          543 
  230000  0.019929783   -7.7427153    3633.9893          490 
  231000  0.020135036   -7.7421315    3633.9895          495 
  232000  0.020275263   -7.7413062    3634.0233          526 
  233000  0.019880333   -7.7422637     3633.877          536 
  234000  0.020063891   -7.7413237    3632.8048          592 
  235000  0.019652748   -7.7405352    3632.5016          540 
  236000  0.019735084   -7.7405616    3632.3954          616 
  237000  0.020142685   -7.7396158    3632.2069          549 
  238000   0.01979903    -7.739498    3631.9922          555 
  239000  0.020081646   -7.7408131    3632.6766          521 
  240000  0.019935829   -7.7412714    3633.1292          543 
  241000  0.019670786    -7.742121     3633.999          506 
  242000  0.019365295    -7.740815    3633.6667          552 
  243000  0.020517219   -7.7410081    3632.9386          526 
  244000  0.020018307   -7.7410158    3633.1106          513 
  245000  0.020303872   -7.7417848    3633.6601          535 
  246000   0.01994008    -7.741047    3633.0931          612 
  247000  0.020341821   -7.7399097    3632.3848          553 
  248000  0.019641258     -7.73934    3631.9983          525 
  249000  0.019685061   -7.7401348    3632.3703          528 
  250000  0.020131134    -7.738302    3631.4604          537 
  251000  0.020361315   -7.7402937    3632.2803          629 
  252000  0.019633652   -7.7405084    3632.9594          537 
  253000  0.019561022   -7.7419338    3633.5091          575 
  254000  0.019914263   -7.7420477    3633.4554          494 
  255000  0.019971025   -7.7427133    3633.9716          545 
  256000  0.019525247   -7.7427911    3634.0542          557 
  257000  0.019871089   -7.7411808    3633.4768          582 
  258000  0.020353301   -7.7413864    3632.9403          488 
  259000  0.019969395   -7.7409044    3632.9088          625 
  260000  0.019792386   -7.7402957    3632.7297          636 
  261000  0.019999601   -7.7393849    3631.5007          553 
  262000  0.020285568   -7.7405906     3632.565          539 
  263000  0.020019223   -7.7403101    3632.6629          572 
  264000  0.020379291   -7.7412653     3632.896          596 
  265000  0.019807838    -7.742096    3633.7667          536 
  266000  0.019637604   -7.7412706    3633.6221          587 
  267000  0.020341859   -7.7425166    3633.4889          631 
  268000   0.02015049   -7.7428509     3633.824          541 
  269000  0.020046099     -7.74273    3633.5648          544 
  270000  0.019787553   -7.7410765    3632.9023          531 
  271000  0.019677904   -7.7400016    3632.4481          608 
  272000   0.01975548   -7.7381479    3630.9193          541 
  273000  0.020103545   -7.7391104    3631.7759          491 
  274000  0.020010956   -7.7403164    3632.2144          538 
  275000  0.019689553   -7.7400466    3632.5097          531 
  276000  0.020242454   -7.7413252    3633.2776          537 
  277000  0.019693543   -7.7419666    3633.5872          540 
  278000  0.019712029   -7.7422224    3633.8672          597 
  279000   0.01984847   -7.7428054    3633.9171          524 
  280000  0.020393053   -7.7432549    3634.8343          528 
  281000  0.019687864   -7.7415736    3633.4444          544 
  282000  0.019610487   -7.7411412    3632.5958          528 
  283000  0.019799919    -7.738376     3631.572          507 
  284000  0.019304603   -7.7398434    3632.1437          586 
  285000  0.019637645   -7.7398809    3632.1832          557 
  286000  0.019912967    -7.739648    3631.8932          541 
  287000  0.020273835   -7.7401308     3632.345          628 
  288000  0.019769094   -7.7412381    3633.1483          549 
  289000  0.020120885   -7.7430132    3634.5136          641 
  290000  0.019826064   -7.7426185    3633.8794          540 
  291000  0.019799598   -7.7419614    3633.4238          634 
  292000   0.02009422   -7.7430436    3634.2869          603 
  293000  0.020083003   -7.7413085    3633.0083          511 
  294000  0.019802636   -7.7405389    3632.2919          556 
  295000  0.020368668   -7.7405898    3632.5136          472 
  296000  0.020297525   -7.7392687    3631.8313          529 
  297000  0.019926582   -7.7403991    3632.1692          530 
  298000    0.0200753    -7.740403    3632.3371          519 
  299000  0.019913355   -7.7404084    3632.3695          635 
  300000  0.020158004   -7.7412633    3633.4958          516 
  301000   0.01967234   -7.7420044    3633.6416          537 
  302000  0.020071949   -7.7415587    3633.7542          551 
  303000  0.019943108   -7.7429981     3635.275          545 
  304000   0.01942411   -7.7413988    3633.5065          522 
  305000  0.020069275   -7.7407202     3633.013          570 
  306000  0.019847821   -7.7396258    3631.9781          593 
  307000  0.019737541   -7.7397538    3631.9033          533 
  308000  0.020436551   -7.7402213    3632.1784          555 
  309000   0.02015259   -7.7401815    3632.6536          597 
  310000  0.020015337   -7.7398383     3632.079          650 
  311000  0.019705255   -7.7413624    3632.8639          536 
  312000  0.020049766   -7.7415857     3633.413          593 
  313000  0.020018079   -7.7416353     3633.618          545 
  314000  0.019754057   -7.7418309    3633.9836          538 
  315000  0.020066001   -7.7417001    3633.5763          617 
  316000  0.019958544   -7.7417592    3633.4364          541 
  317000  0.019929681   -7.7410911    3632.9899          586 
  318000  0.019842784   -7.7408526    3632.4847          537 
  319000  0.020384228   -7.7399258     3632.347          554 
  320000  0.019825486   -7.7396892    3631.8153          530 
  321000  0.019573249   -7.7382148    3630.7759          533 
  322000  0.020038031   -7.7401495    3632.5471          557 
  323000  0.020280196   -7.7409627    3632.9756          509 
  324000  0.020395561   -7.7417215    3633.5295          525 
  325000  0.020310127   -7.7443531    3634.9498          531 
  326000  0.020349454   -7.7427201    3634.3666          627 
  327000  0.019734274   -7.7412186    3634.0483          523 
  328000   0.01993565   -7.7421263    3633.2996          531 
  329000  0.020131931   -7.7410072    3632.8824          532 
  330000  0.019805468   -7.7394922    3632.6234          540 
  331000  0.020006748   -7.7401854    3632.1833          648 
  332000   0.01987096   -7.7382626    3630.4979          526 
  333000  0.020033811   -7.7401773     3632.105          614 
  334000   0.02011972   -7.7406941    3632.5899          541 
  335000  0.019854629   -7.7409993    3633.1064          509 
  336000  0.020194325   -7.7429539    3634.1583          620 
  337000   0.01987415   -7.7433519    3634.7533          543 
  338000  0.019761679    -7.741601    3633.7808          519 
  339000  0.019841695   -7.7422353     3633.942          490 
  340000  0.019819657   -7.7410974    3633.2699          500 
  341000  0.019886024   -7.7405468    3632.7658          638 
  342000  0.019695396   -7.7406232    3632.8423          520 
  343000  0.020506753   -7.7395399    3631.9146          533 
  344000   0.02021609   -7.7398879    3631.8068          488 
  345000  0.020243309   -7.7404973     3632.343          554 
  346000  0.019652573    -7.741043    3632.7709          545 
  347000  0.019888572   -7.7415724    3633.1349          513 
  348000  0.019906726   -7.7417094    3633.5208          531 
  349000  0.019828871   -7.7420695    3633.7289          534 
  350000  0.019548311   -7.7420375    3634.0624          610 
  351000  0.020015489   -7.7423885     3633.829          608 
  352000  0.019787257   -7.7416934    3633.7648          576 
  353000   0.02029254   -7.7406933    3632.7274          561 
  354000  0.020103118   -7.7400596    3632.5441          525 
  355000   0.02002742   -7.7390346    3631.1151          482 
  356000  0.020139198   -7.7401507    3632.4482          613 
  357000  0.020240211   -7.7397921    3632.2679          629 
  358000  0.020147584   -7.7415879    3632.7523          516 
  359000  0.019596592   -7.7424707    3633.3293          492 
  360000  0.019971678   -7.7416395    3633.3217          599 
  361000  0.019774613   -7.7418349    3633.5913          529 
  362000  0.020198512   -7.7431728    3634.3675          535 
  363000  0.019798025    -7.741826    3633.0762          520 
  364000  0.020051171   -7.7418131    3633.0867          511 
  365000   0.02018333    -7.740624    3632.7288          528 
  366000  0.019937787   -7.7398695      3631.88          556 
  367000  0.020135892   -7.7408368    3632.8342          537 
  368000  0.019617287     -7.73986     3632.427          538 
  369000   0.01990237    -7.740005    3632.5529          584 
  370000  0.019969378   -7.7409219    3632.8279          549 
  371000   0.01946483   -7.7415837    3632.8925          527 
  372000  0.020529997   -7.7421206    3633.9519          531 
  373000  0.020260203   -7.7422205    3633.7763          548 
  374000   0.01978747    -7.740624    3633.0297          499 
  375000  0.020031579   -7.7416462    3633.1768          505 
  376000  0.020097476   -7.7415397    3633.0058          621 
  377000  0.019652958   -7.7410167    3632.6757          524 
  378000  0.019920802   -7.7391064    3631.9133          524 
  379000  0.020278609   -7.7396704    3631.8632          520 
  380000  0.019711268   -7.7397057    3632.2888          495 
  381000  0.020517614   -7.7406641    3632.5822          573 
  382000  0.019740589   -7.7407152    3633.0373          554 
  383000  0.019525665   -7.7432382    3634.5364          563 
  384000  0.020110394   -7.7420935    3633.5697          516 
  385000  0.020376881   -7.7418908    3633.4184          546 
  386000  0.020197429    -7.742381    3633.5898          509 
  387000  0.020289426   -7.7418585    3633.1063          522 
  388000  0.019580103    -7.740907     3632.834          561 
  389000  0.019875476    -7.739884    3632.1408          527 
  390000  0.019800033    -7.740484    3632.3961          514 
  391000  0.020005544   -7.7394737    3631.6448          622 
  392000  0.020220483   -7.7379586     3631.193          551 
  393000  0.019605363     -7.74051    3632.5429          505 
  394000  0.020127891   -7.7412387    3633.0159          524 
  395000  0.019626955   -7.7423033     3633.942          528 
  396000  0.019721074   -7.7428845    3634.2797          594 
  397000  0.020122819   -7.7421719    3633.5304          498 
  398000  0.019297875   -7.7416864    3633.7787          625 
  399000  0.020318677   -7.7418637    3633.5263          541 
  400000  0.020004701   -7.7409937    3632.8328          505 
  401000  0.020104432   -7.7405756    3632.5637          501 
  402000  0.020183938   -7.7395478    3632.0896          528 
  403000  0.020534697   -7.7394489     3631.398          547 
  404000   0.02001503   -7.7402091    3632.7002          497 
  405000  0.019807753   -7.7410861    3632.8105          534 
  406000  0.020673728   -7.7408892    3633.1728          503 
  407000  0.020193734   -7.7414348    3633.2936          522 
  408000  0.019571984   -7.7432825    3634.2793          546 
  409000  0.019803904    -7.741193    3633.3483          534 
  410000  0.020002066   -7.7419074    3633.5498          546 
  411000  0.019750563   -7.7413493    3633.0954          563 
  412000  0.019930715    -7.740162    3632.4924          525 
  413000  0.019829822   -7.7412184     3632.708          499 
  414000  0.019676041   -7.7399016    3632.3621          525 
  415000  0.020319439   -7.7397946    3632.0393          550 
  416000  0.020009977   -7.7400735    3631.9995          548 
  417000  0.019561338   -7.7404274     3633.023          529 
  418000  0.019966423   -7.7416546    3633.1332          557 
  419000  0.020049433   -7.7424549    3633.7868          520 
  420000  0.019977314   -7.7416396    3633.5819          588 
  421000  0.019474971   -7.7426506    3634.5865          514 
  422000  0.020023332   -7.7414877    3633.7977          521 
  423000  0.020066653   -7.7413698    3633.0082          533 
  424000  0.020391899   -7.7413237    3632.3228          535 
  425000  0.019611732   -7.7409504    3632.6995          526 
  426000  0.019624276    -7.739067    3631.9481          546 
  427000  0.020205419   -7.7395747     3631.856          646 
  428000  0.019907877   -7.7414276    3632.7264          489 
  429000  0.020513338    -7.740562    3632.8727          496 
  430000  0.019713013   -7.7410192    3633.1945          644 
  431000    0.0196149   -7.7425176    3633.7749          526 
  432000  0.019705053   -7.7420499    3633.7275          544 
  433000  0.020219089   -7.7436963    3634.6748          497 
  434000  0.019995057   -7.7412446    3633.3894          544 
  435000  0.020190162   -7.7411043    3633.1625          527 
  436000  0.019931768   -7.7400654    3632.3397          553 
  437000  0.020046455   -7.7390474    3631.1987          521 
  438000  0.019991038   -7.7393264    3631.8927          612 
  439000  0.019965546   -7.7394591    3632.2316          501 
  440000  0.020435572   -7.7397508    3632.3716          477 
  441000  0.019852686   -7.7404804    3632.6411          586 
  442000  0.020264126   -7.7416421    3633.5511          514 
  443000  0.019681982   -7.7412229    3633.3334          572 
  444000  0.020246324   -7.7424825    3633.9552          540 
  445000  0.019766393   -7.7429336    3634.0477          542 
  446000  0.019509711   -7.7414794    3633.5682          525 
  447000   0.01985744   -7.7412536    3633.0764          504 
  448000  0.020059641   -7.7397508    3632.0135          522 
  449000  0.019976684   -7.7398014    3632.2188          531 
  450000   0.01985853   -7.7392999    3632.5546          589 
  451000  0.019721884   -7.7404277    3632.4108          535 
  452000  0.020012446   -7.7401735     3632.621          629 
  453000  0.020069239   -7.7409734    3632.9888          507 
  454000  0.019875669   -7.7414799    3633.4237          681 
  455000   0.01990766    -7.741108    3633.5535          643 
  456000  0.019761321    -7.743166     3634.764          496 
  457000  0.020178331   -7.7419445    3633.8626          475 
  458000  0.019497114   -7.7412918    3633.5439          544 
  459000  0.019872541   -7.7407957    3633.0125          538 
  460000  0.019831324   -7.7397307    3632.3432          626 
  461000  0.019953111   -7.7401755    3632.5063          542 
  462000  0.019660427   -7.7390576    3631.5944          601 
  463000  0.020243346   -7.7410013    3632.6786          619 
  464000  0.019902744   -7.7405078    3632.3659          688 
  465000   0.01997399   -7.7408807    3632.9695          539 
  466000  0.020365732   -7.7413686    3633.4288          534 
  467000    0.0203194   -7.7419362    3633.6184          551 
  468000  0.019937128    -7.742858    3634.6928          581 
  469000  0.019864776   -7.7416274    3633.3953          558 
  470000  0.020147415   -7.7418513    3633.3005          556 
  471000  0.020076423   -7.7407156    3632.9756          548 
  472000  0.020609492   -7.7396463    3631.9811          541 
  473000  0.019559101   -7.7397864    3632.4828          560 
  474000  0.020257591    -7.739662    3632.1238          565 
  475000  0.019630299   -7.7395979    3631.7738          552 
  476000  0.020407015    -7.740888     3632.601          655 
  477000   0.02021133   -7.7413018    3632.9836          531 
  478000  0.020397565   -7.7419843    3633.2548          534 
  479000  0.019945648   -7.7437456    3634.6385          569 
  480000    0.0195822   -7.7421648    3633.6873          536 
  481000  0.020006838   -7.7430228     3633.925          540 
  482000  0.020185785   -7.7425058    3633.2952          554 
  483000  0.019974471   -7.7410877    3632.8857          558 
  484000  0.020046993   -7.7399514     3632.376          541 
  485000  0.019690641   -7.7406303    3632.5168          524 
  486000  0.019660688   -7.7385749    3631.3713          510 
  487000  0.019497616    -7.740621    3632.8247          578 
  488000  0.020153416   -7.7412217    3632.7174          532 
  489000  0.019932802    -7.741811    3633.1695          532 
  490000  0.019972573   -7.7433908    3633.9884          548 
  491000  0.020088835   -7.7409956    3633.3046          526 
  492000  0.019650517   -7.7419033    3633.8166          541 
  493000  0.020067974     -7.74246    3633.8211          595 
  494000   0.01968737    -7.741043    3633.0449          536 
  495000  0.020897851   -7.7408355    3633.0244          562 
  496000  0.020381226   -7.7402494    3632.4969          547 
  497000  0.019996504     -7.73908    3631.9119          678 
  498000  0.020269801   -7.7405768    3632.5921          544 
  499000  0.020009055   -7.7397895    3632.1155          565 
  500000  0.020223326   -7.7414671    3632.7552          546 
  501000  0.020317922   -7.7420976    3633.4524          550 
  502000   0.02014672   -7.7411124    3633.2055          510 
  503000   0.01975109   -7.7419721    3633.7148          518 
  504000  0.020176202   -7.7421776    3633.8531          550 
  505000  0.019870526   -7.7432652    3634.4447          532 
  506000   0.02010515   -7.7417823    3633.1298          564 
  507000  0.019974574   -7.7412135    3632.6888          516 
  508000  0.020313584   -7.7397244    3632.0543          573 
  509000  0.020357004   -7.7385247    3630.5927          544 
  510000  0.019891416   -7.7387409    3631.4009          574 
  511000  0.019969989   -7.7403877    3632.4138          597 
  512000  0.019974469   -7.7405147    3632.9066          507 
  513000  0.020183367   -7.7420829     3633.643          564 
  514000    0.0195638   -7.7421975    3633.2278          544 
  515000  0.019950958   -7.7422292    3633.6875          513 
  516000  0.019953206   -7.7415043    3633.5981          543 
  517000  0.019810649   -7.7421944    3633.7128          549 
  518000  0.020334984    -7.741002    3633.0814          547 
  519000  0.020135337   -7.7404048    3632.0754          554 
  520000  0.019515415   -7.7398101    3632.2312          605 
  521000  0.020418776   -7.7402994    3632.3139          537 
  522000  0.019681931   -7.7401668    3632.0774          540 
  523000  0.019870661   -7.7400254    3632.1772          516 
  524000  0.020223376   -7.7414389    3632.9416          523 
  525000  0.019925531   -7.7418815    3633.4272          561 
  526000  0.020281635   -7.7434884    3634.0061          531 
  527000  0.020271574   -7.7422069    3633.6513          604 
  528000  0.019799242   -7.7430487     3634.118          539 
  529000  0.019415277   -7.7428843    3633.5609          537 
  530000  0.019953232   -7.7409447     3633.028          535 
  531000  0.020223219    -7.740545    3632.7601          544 
  532000  0.019847671   -7.7391491    3631.5057          541 
  533000  0.020157191   -7.7401519    3632.2115          499 
  534000  0.020228583    -7.740223    3632.4664          529 
  535000  0.019517733   -7.7403948    3632.3972          532 
  536000  0.019972794   -7.7417163    3632.8818          531 
  537000  0.020045322   -7.7413752    3633.3382          556 
  538000  0.019925768   -7.7428175    3634.4338          614 
  539000  0.020479756   -7.7428973    3634.0778          551 
  540000  0.019809834   -7.7420349    3633.1852          604 
  541000  0.020358275   -7.7410278    3633.0013          553 
  542000  0.019768786   -7.7413113    3632.3414          549 
  543000  0.020251407   -7.7406255    3632.6674          511 
  544000  0.019898806   -7.7395093    3631.6844          537 
  545000  0.019525267   -7.7410691    3632.5675          620 
  546000  0.019815529   -7.7395953     3631.912          527 
  547000  0.020054276   -7.7414196     3632.737          631 
  548000  0.020267491   -7.7421892    3633.4397          545 
  549000  0.020009293   -7.7417101    3633.5865          545 
  550000  0.019773805   -7.7420639    3633.6523          503 
  551000  0.020376546   -7.7436134     3634.558          631 
  552000  0.020078169   -7.7418349    3633.3946          642 
  553000  0.019834756   -7.7409269    3633.1253          626 
  554000  0.019936311   -7.7405743    3632.6215          540 
  555000   0.01979747   -7.7396944    3632.1665          559 
  556000    0.0197641   -7.7401499    3632.4043          518 
  557000  0.020388555   -7.7412152    3632.8586          608 
  558000  0.020383485   -7.7409582    3632.9035          501 
  559000  0.019981975   -7.7416894    3633.2948          557 
  560000  0.019701074   -7.7414684     3633.308          557 
  561000  0.020063521   -7.7428706    3634.3863          494 
  562000  0.020256775   -7.7421142    3633.1964          648 
  563000  0.020249093   -7.7426353    3634.0137          570 
  564000  0.020190811   -7.7409704    3633.1099          539 
  565000   0.02033243   -7.7416234    3632.6435          543 
  566000  0.019908636    -7.740716    3632.6626          530 
  567000  0.020034464   -7.7394488    3631.7959          542 
  568000  0.020141004   -7.7414519    3632.8188          525 
  569000  0.020307967   -7.7405235    3632.9462          547 
  570000  0.019931819   -7.7401817    3632.6732          529 
  571000   0.02038025   -7.7416266    3633.1457          513 
  572000   0.01988826   -7.7426487    3633.7556          546 
  573000  0.019697075   -7.7417983    3633.3679          515 
  574000  0.020061482   -7.7438621    3634.6021          503 
  575000  0.020004973   -7.7417354    3633.0106          548 
  576000  0.019799105   -7.7410326    3633.6185          553 
  577000  0.019936437   -7.7411668     3632.727          524 
  578000  0.020192047   -7.7398204    3631.8273          534 
  579000  0.020345225   -7.7414048    3632.7011          556 
  580000  0.019493267   -7.7389093     3631.844          598 
  581000  0.020010159   -7.7407951    3632.6025          558 
  582000  0.019937445   -7.7406429    3632.6949          560 
  583000  0.019452504   -7.7413805    3633.0115          518 
  584000  0.019764046    -7.742269    3634.1453          555 
  585000  0.020223285   -7.7416984    3633.3888          570 
  586000  0.019909654   -7.7428337    3634.2005          551 
  587000  0.019727226      -7.7426    3633.9756          506 
  588000  0.020001984   -7.7416765    3633.0665          502 
  589000  0.019827542   -7.7407359    3632.5641          553 
  590000  0.020201373   -7.7407163    3632.7468          552 
  591000  0.019921797   -7.7408072    3632.5978          559 
  592000  0.020047383   -7.7390686    3631.5769          545 
  593000  0.019909062   -7.7401497    3632.1024          520 
  594000  0.020298372   -7.7401975    3632.8091          649 
  595000  0.020335484   -7.7410497    3633.0792          548 
  596000   0.02014792   -7.7432081    3633.8952          558 
  597000  0.019813241   -7.7412151    3633.2985          526 
  598000  0.020134741   -7.7429543    3634.2249          520 
  599000   0.01958402   -7.7416822    3633.4236          586 
  600000  0.019979175   -7.7419966    3633.0423          607 
  601000  0.020011786   -7.7410262    3632.8729          512 
  602000  0.020240566   -7.7417994    3632.6605          509 
  603000  0.019990441   -7.7394867    3631.3752          534 
  604000   0.01970605   -7.7402536    3632.6447          536 
  605000  0.019525423   -7.7405753    3632.1021          566 
  606000  0.019693697   -7.7410154    3632.7528          561 
  607000  0.020109146   -7.7414622    3633.2218          539 
  608000  0.020019224   -7.7431053    3634.4018          607 
  609000   0.01992903   -7.7419854    3633.8319          550 
  610000  0.020220992   -7.7415553    3633.3634          509 
  611000  0.019988316   -7.7417002    3633.9161          629 
  612000  0.019990215   -7.7414306    3632.9657          553 
  613000  0.019770274   -7.7406204    3632.4536          539 
  614000  0.020051976   -7.7410609    3632.6157          557 
  615000   0.01995287   -7.7393788      3631.58          583 
  616000  0.020246277   -7.7390314    3631.7035          534 
  617000  0.019984048   -7.7405946    3632.5012          549 
  618000   0.02010409   -7.7411801    3632.8746          582 
  619000  0.019530328   -7.7432397     3634.133          509 
  620000  0.019651768   -7.7423936    3633.4459          503 
  621000  0.020137277   -7.7429655    3633.6244          503 
  622000  0.020000885   -7.7451342    3635.5272          551 
  623000  0.019660986   -7.7417043    3633.6069          554 
  624000  0.019717858   -7.7411477     3633.013          534 
  625000  0.019572196   -7.7406034    3632.6442          640 
  626000  0.019915623   -7.7389398    3631.2401          546 
  627000  0.020266288   -7.7402378    3632.4286          653 
  628000  0.019815754   -7.7403476    3632.3867          520 
  629000  0.020724543   -7.7404367      3632.76          505 
  630000  0.020309324    -7.741475    3632.9411          613 
  631000  0.019553151   -7.7417926    3633.0553          524 
  632000  0.019876337   -7.7435467    3634.3553          574 
  633000  0.020398858   -7.7417248    3633.3666          614 
  634000  0.019572717   -7.7423661    3634.0747          534 
  635000   0.02008314   -7.7411388    3633.0161          563 
  636000  0.019844713   -7.7411318    3632.8094          689 
  637000  0.019488473   -7.7409898    3632.7384          528 
  638000  0.020165066   -7.7400562    3631.6653          506 
  639000  0.019951242   -7.7410535    3632.4755          507 
  640000  0.020085687   -7.7398507    3631.7145          555 
  641000   0.01981267   -7.7407847    3632.7764          649 
  642000   0.01991823   -7.7411324    3633.2321          638 
  643000  0.020213833   -7.7421347    3633.1111          553 
  644000  0.020132752   -7.7430222    3634.1722          552 
  645000  0.020005683   -7.7416549    3633.1141          528 
  646000  0.020045983   -7.7423048    3633.7914          602 
  647000  0.019771826   -7.7414607    3633.1009          516 
  648000  0.020014061    -7.740425    3632.5537          619 
  649000  0.020128092    -7.740508    3632.0201          529 
  650000  0.020087927   -7.7399905    3632.1605          555 
  651000  0.020229897   -7.7390084    3631.3322          583 
  652000  0.019714237   -7.7399702    3631.5556          546 
  653000  0.019472683   -7.7414536     3632.567          638 
  654000  0.019962043   -7.7412406    3633.3357          525 
  655000  0.019664374   -7.7435938    3634.3145          523 
  656000  0.019603217    -7.742816    3634.0788          557 
  657000  0.019941545   -7.7423655    3633.7397          498 
  658000  0.019761174   -7.7428966    3634.2043          532 
  659000  0.019994946   -7.7414827     3633.297          552 
  660000  0.019617829   -7.7405755    3632.4921          562 
  661000  0.020398008   -7.7400169    3632.2557          554 
  662000  0.019590641   -7.7403638    3632.2963          515 
  663000  0.020415466   -7.7397535    3631.4166          649 
  664000  0.019990292   -7.7405277    3632.2871          626 
  665000   0.02034198   -7.7410083    3632.8015          611 
  666000  0.019949027   -7.7410119     3633.075          625 
  667000  0.020569214   -7.7423277    3633.7917          497 
  668000  0.020830069   -7.7421002    3633.3341          539 
  669000  0.019786737   -7.7433652    3634.3053          623 
  670000  0.019660729    -7.742651    3633.8428          537 
  671000  0.019929683   -7.7412282    3633.2365          606 
  672000  0.020265706   -7.7409865    3632.5521          558 
  673000  0.020057819    -7.738638    3631.4289          543 
  674000  0.020327609   -7.7384211    3631.0472          653 
  675000  0.019966872   -7.7405699    3632.3355          548 
  676000  0.019776838   -7.7400232    3632.4859          604 
  677000  0.019947726     -7.74051    3632.6469          658 
  678000  0.019834544   -7.7421861    3633.0594          538 
  679000  0.019861018   -7.7419344     3633.594          547 
  680000  0.020191309   -7.7429541    3634.1617          578 
  681000  0.019616746   -7.7433835    3634.3343          551 
  682000  0.020060467     -7.74158    3633.4683          547 
  683000  0.019842869   -7.7415372    3633.0492          509 
  684000  0.020384662    -7.740045    3632.3538          572 
  685000  0.020519477   -7.7397782    3631.8786          528 
  686000  0.020277241   -7.7404898    3632.1687          528 
  687000  0.020315373   -7.7390687    3631.5559          525 
  688000  0.019586817   -7.7399711    3632.1237          556 
  689000  0.020017656    -7.741357    3632.8683          554 
  690000  0.019635522   -7.7421884    3633.6601          541 
  691000  0.019792057   -7.7419548     3633.749          584 
  692000  0.020265719   -7.7426621    3633.6198          628 
  693000  0.019993692   -7.7423418    3633.8284          545 
  694000   0.01998297    -7.743353    3634.5493          551 
  695000  0.019634322   -7.7415648    3632.9281          528 
  696000  0.019686712   -7.7408315    3632.5373          620 
  697000  0.020498748   -7.7390002     3631.581          544 
  698000  0.020071437   -7.7392606    3631.4949          549 
  699000  0.020264157   -7.7402857    3632.1886          495 
  700000  0.019870349   -7.7410052    3632.8311          546 
  701000  0.020513119   -7.7416778    3632.7776          517 
  702000  0.020141418   -7.7415314    3633.5552          591 
  703000  0.019762591   -7.7418372    3633.4952          637 
  704000  0.020152389   -7.7433322    3634.7604          510 
  705000  0.019917464   -7.7435364    3634.0814          544 
  706000  0.019678079   -7.7418397    3633.1114          555 
  707000  0.019800382   -7.7411111    3632.8789          545 
  708000  0.020631876   -7.7396508    3632.1092          549 
  709000  0.020296682   -7.7404534    3632.5583          544 
  710000  0.020160128   -7.7396254    3632.0985          553 
  711000  0.020067373   -7.7404914    3632.3645          618 
  712000  0.020229877   -7.7407714    3632.1481          524 
  713000  0.019957054   -7.7415036    3632.9426          514 
  714000   0.01962231    -7.741843    3633.3006          640 
  715000  0.020198085   -7.7424436    3633.8544          523 
  716000  0.020127804   -7.7429976    3634.5698          521 
  717000  0.019879891   -7.7414937    3633.3498          564 
  718000   0.02016775   -7.7415683    3633.4893          515 
  719000  0.020326686   -7.7409698    3632.7089          539 
  720000  0.020120051   -7.7394575    3631.6642          606 
  721000  0.020333057   -7.7397579    3632.3592          624 
  722000  0.020083657   -7.7398885    3632.3145          544 
  723000  0.020022087   -7.7400996      3631.94          623 
  724000  0.019827293   -7.7402017    3631.9902          551 
  725000  0.019628628   -7.7420501    3633.0052          645 
  726000  0.019771063   -7.7421369    3633.5041          573 
  727000  0.019958253   -7.7425786     3633.593          524 
  728000  0.019755772   -7.7444959     3634.975          542 
  729000  0.020394342   -7.7419457    3633.5482          568 
  730000  0.019759573    -7.741065    3633.2966          548 
  731000  0.020028047   -7.7406405     3632.412          639 
  732000  0.020416485   -7.7394582    3631.9845          535 
  733000  0.019660551   -7.7407473    3632.4181          593 
  734000  0.019672834   -7.7395787    3631.7101          530 
  735000  0.019954406   -7.7415223    3632.5687          556 
  736000  0.020075513   -7.7409359    3632.8357          609 
  737000   0.02018165   -7.7421106    3632.9781          588 
  738000  0.019896923    -7.742535    3633.8293          492 
  739000  0.019747473   -7.7428713    3633.9593          566 
  740000  0.019753058   -7.7421382      3633.34          544 
  741000  0.019898706   -7.7412117    3633.2265          541 
  742000  0.019786528   -7.7406433    3633.4258          638 
  743000  0.019816633   -7.7405882    3632.8805          526 
  744000  0.019668282   -7.7394073    3631.8504          632 
  745000  0.020056032   -7.7387023    3631.2534          555 
  746000  0.020488632    -7.740056    3632.2968          535 
  747000  0.019709183   -7.7411564     3632.691          553 
  748000  0.019712533   -7.7415678     3632.676          525 
  749000  0.020118544   -7.7421389    3633.1845          550 
  750000   0.01985152   -7.7431768    3634.2188          549 
  751000  0.019910137   -7.7428832    3634.2726          541 
  752000  0.020183044   -7.7422789    3633.5345          559 
  753000  0.019569358   -7.7413237    3633.2067          539 
  754000  0.020102876   -7.7411034    3632.8936          529 
  755000  0.020063113   -7.7407533     3632.486          532 
  756000   0.01988389   -7.7405862      3632.32          560 
  757000  0.020096478    -7.739425    3630.9412          544 
  758000  0.019973896   -7.7404247    3632.1433          508 
  759000  0.020044417   -7.7413976    3632.6848          628 
  760000  0.020115033   -7.7417785     3633.258          531 
  761000  0.019528416   -7.7416911    3633.4445          526 
  762000  0.020121051   -7.7426247    3634.0574          642 
  763000  0.020150814   -7.7421451    3633.2069          506 
  764000  0.020340815   -7.7428044    3633.9941          539 
  765000  0.020364719   -7.7417305    3633.1537          560 
  766000  0.020442945   -7.7411556    3632.5023          547 
  767000   0.01999105   -7.7408457    3632.7095          522 
  768000  0.019560023   -7.7389276    3631.6777          526 
  769000  0.019715245   -7.7409386    3632.7802          534 
  770000  0.020211495   -7.7393601    3632.3565          539 
  771000   0.01961828   -7.7411303    3632.8224          524 
  772000  0.019928847   -7.7425414    3633.6371          543 
  773000  0.020340107   -7.7423763    3633.8644          527 
  774000   0.02056423   -7.7423027    3634.0771          550 
  775000  0.020211593   -7.7442653     3635.022          558 
  776000   0.01980258    -7.742336    3634.0367          552 
  777000  0.019872021   -7.7410027    3633.0564          535 
  778000  0.019615721   -7.7400695    3632.4799          562 
  779000  0.019964674   -7.7394373    3631.9615          539 
  780000  0.019530759   -7.7401219     3632.346          477 
  781000  0.019757587   -7.7409625    3632.2197          543 
  782000  0.019794368   -7.7404852    3631.9297          548 
  783000  0.020003933   -7.7408588    3633.1115          543 
  784000  0.019960422   -7.7420489    3633.4806          584 
  785000   0.02015496   -7.7420348    3633.3922          539 
  786000  0.019880574   -7.7434497    3634.6632          556 
  787000  0.019969245   -7.7413868    3633.1603          532 
  788000  0.020034792   -7.7417047    3633.0288          562 
  789000  0.019898211   -7.7411256    3632.8211          550 
  790000  0.020544289   -7.7395425    3632.1745          517 
  791000  0.019848394    -7.740478    3632.2191          644 
  792000  0.019985541   -7.7383281    3631.1559          537 
  793000  0.020133262   -7.7398363    3632.3085          520 
  794000  0.020147316   -7.7402355    3632.3097          509 
  795000  0.019884944    -7.741209    3633.1537          507 
  796000  0.020171703   -7.7410997    3633.6702          565 
  797000   0.01983042   -7.7429527    3634.6897          519 
  798000  0.020111436   -7.7430248    3634.2001          507 
  799000  0.020246927   -7.7418054    3633.4951          551 
  800000   0.01994615    -7.741893     3633.203          514 
  801000  0.019939275   -7.7398178    3632.2949          493 
  802000  0.019998273   -7.7397648     3631.893          557 
  803000  0.020284865   -7.7406912    3632.3726          572 
  804000  0.019773193   -7.7392819    3631.6549          547 
  805000  0.019417414   -7.7408047    3632.7726          630 
  806000  0.019662231   -7.7407394    3632.7464          512 
  807000   0.02015697   -7.7413418    3633.0599          537 
  808000  0.020161634    -7.742842    3634.0042          614 
  809000   0.01988825   -7.7419478    3633.1137          648 
  810000  0.019534067   -7.7437765    3634.6414          545 
  811000  0.020097874    -7.741795    3633.3237          592 
  812000  0.020259677   -7.7412986    3633.2077          553 
  813000   0.01989297   -7.7408106    3632.6114          556 
  814000  0.020001512   -7.7407149     3632.188          506 
  815000  0.019980925   -7.7395173    3632.0468          552 
  816000  0.020179384   -7.7406962    3632.4269          539 
  817000  0.019661315   -7.7396635    3631.9874          544 
  818000  0.019915974   -7.7410274    3633.0245          551 
  819000  0.020037211   -7.7416295    3633.2634          539 
  820000  0.019848683   -7.7419617    3633.4939          584 
  821000  0.019773572   -7.7437068    3634.6815          551 
  822000  0.020088663   -7.7421294    3633.5635          557 
  823000  0.019799358   -7.7419406    3633.9167          521 
  824000  0.020145718   -7.7414278    3633.1928          625 
  825000  0.019894535   -7.7406435    3632.7179          554 
  826000  0.019753495   -7.7405427    3632.3187          509 
  827000  0.020198936   -7.7383781    3631.2935          548 
  828000  0.019572081   -7.7404526     3632.424          597 
  829000    0.0195187   -7.7407932     3632.198          550 
  830000  0.019565763   -7.7411125    3632.6148          545 
  831000  0.019911318   -7.7421567    3633.2241          537 
  832000  0.019862851    -7.741976    3633.5349          627 
  833000  0.019802602   -7.7434632    3634.1334          535 
  834000  0.020187363   -7.7428346    3633.8318          523 
  835000  0.020197195   -7.7424036    3633.3539          655 
  836000  0.019225623    -7.741214    3633.1956          598 
  837000  0.019608257   -7.7399312    3632.4089          554 
  838000  0.019675697   -7.7407199    3632.3938          564 
  839000   0.02013035   -7.7383576    3630.8626          555 
  840000  0.019863868   -7.7399837    3632.2054          538 
  841000  0.020253155   -7.7408165    3632.3093          538 
  842000  0.019760703   -7.7411444    3632.9121          542 
  843000  0.019898796    -7.742698    3633.8032          503 
  844000  0.019989901   -7.7424349    3633.4821          515 
  845000  0.020069603     -7.74285    3634.2163          542 
  846000  0.019637388   -7.7440294    3634.8533          554 
  847000  0.019775563   -7.7419096    3633.4732          668 
  848000  0.019940079   -7.7414735    3632.8773          552 
  849000  0.019615172   -7.7403867    3632.0574          520 
  850000  0.019751416   -7.7395607     3632.468          488 
  851000  0.020319293   -7.7405166    3632.2543          536 
  852000  0.020039632   -7.7394989    3632.2409          521 
  853000   0.02013377    -7.740644     3632.394          506 
  854000  0.020110196   -7.7410165    3633.0363          544 
  855000  0.019959474   -7.7420287    3633.1837          544 
  856000  0.020433166   -7.7428005    3633.7376          505 
  857000  0.020034529   -7.7445536    3635.0586          531 
  858000  0.020181817   -7.7421243    3634.0391          564 
  859000  0.019937109   -7.7417619    3633.3711          555 
  860000  0.020352993   -7.7411635    3632.8832          556 
  861000  0.019858377   -7.7394705     3631.737          651 
  862000  0.020121615   -7.7397204    3632.1099          635 
  863000   0.02008733   -7.7382191    3631.2745          626 
  864000  0.019969503   -7.7401816    3631.8901          548 
  865000  0.020756074   -7.7401688    3632.8771          563 
  866000  0.020208141   -7.7413008     3632.979          541 
  867000  0.019769576   -7.7422468     3633.662          500 
  868000  0.019953432   -7.7420065    3633.9204          587 
  869000  0.020003994   -7.7428264    3634.1604          536 
  870000  0.020013162   -7.7421932    3633.8424          523 
  871000   0.01962918   -7.7418658    3633.0977          533 
  872000  0.019988918   -7.7405891    3632.6912          570 
  873000  0.020257933   -7.7404729    3632.4958          509 
  874000  0.020075404   -7.7394322    3631.8765          633 
  875000  0.020292446   -7.7374581    3630.7814          602 
  876000  0.019800839   -7.7401904    3631.9286          559 
  877000   0.01993147   -7.7401084     3632.813          547 
  878000  0.019992725   -7.7421215    3633.2913          569 
  879000  0.020401445   -7.7422473    3633.4742          546 
  880000  0.019984914   -7.7421014    3633.3954          646 
  881000  0.019788104   -7.7424813      3633.94          540 
  882000  0.020093838   -7.7433858     3634.039          551 
  883000   0.01993135   -7.7418577    3633.5933          660 
  884000  0.019564999    -7.740952    3632.8176          548 
  885000  0.020331462   -7.7404783    3632.3104          526 
  886000  0.020435658    -7.738023    3630.8517          518 
  887000  0.019892524   -7.7379128     3630.635          595 
  888000  0.020262875   -7.7404419     3632.187          527 
  889000  0.020004771   -7.7410931    3632.6501          588 
  890000  0.020107744   -7.7421778     3633.281          543 
  891000  0.020057624   -7.7419803      3633.94          563 
  892000  0.019819366   -7.7417928    3633.5851          558 
  893000  0.020009958   -7.7431601     3634.499          506 
  894000  0.020201681   -7.7412197    3633.2196          524 
  895000  0.019548949   -7.7414045    3633.2547          558 
  896000  0.020140441   -7.7411388     3632.672          563 
  897000  0.019894032   -7.7387291    3631.5084          565 
  898000   0.02019745   -7.7388619     3631.734          615 
  899000  0.020057997   -7.7402081    3632.4618          577 
  900000  0.019714425   -7.7403575    3632.2478          572 
  901000  0.020215456   -7.7404375      3632.72          507 
  902000  0.019585719   -7.7421403    3633.6031          587 
  903000  0.019804604   -7.7425244    3633.6218          491 
  904000  0.020012372   -7.7425703    3633.8228          548 
  905000  0.019713342   -7.7443753    3635.3505          541 
  906000  0.020280046    -7.742635    3633.6932          546 
  907000  0.020448185    -7.741677    3633.1092          512 
  908000  0.019972642   -7.7414316    3632.3672          543 
  909000  0.019855296   -7.7394835    3631.3349          547 
  910000  0.019488024   -7.7398111    3631.8651          530 
  911000  0.020255562   -7.7406871    3632.1954          574 
  912000  0.020217728   -7.7397143    3631.6644          551 
  913000  0.020274077   -7.7406324    3632.8253          550 
  914000  0.020071491   -7.7413166     3633.219          530 
  915000  0.020170785   -7.7431278     3634.442          521 
  916000   0.02029471   -7.7431782    3633.9452          520 
  917000  0.019638663   -7.7424837    3633.9632          538 
  918000  0.019869369   -7.7442796    3634.5829          613 
  919000  0.020223339   -7.7414995    3633.1853          564 
  920000  0.019732741   -7.7410551    3632.7009          507 
  921000   0.01989146   -7.7395716    3632.0255          542 
  922000  0.020090147   -7.7397953    3631.7938          559 
  923000  0.019981577   -7.7408743    3632.3995          512 
  924000  0.019670344   -7.7398401    3631.9356          527 
  925000  0.019656278    -7.741103    3632.8945          536 
  926000  0.020075201   -7.7417807    3633.4776          630 
  927000  0.020037574   -7.7411449    3633.1865          549 
  928000   0.01983457   -7.7436663     3634.087          554 
  929000   0.01979575   -7.7415401    3633.1916          602 
  930000  0.019746523   -7.7423621    3633.5429          542 
  931000  0.019967704   -7.7409155    3633.0774          603 
  932000  0.019750148    -7.740585    3632.4544          530 
  933000  0.019530846   -7.7400297    3632.4524          563 
  934000  0.020172978   -7.7405358    3632.3694          533 
  935000  0.019851746   -7.7406318    3632.5671          527 
  936000  0.020290083    -7.740019    3632.0843          520 
  937000  0.020244409   -7.7410659    3632.9512          581 
  938000  0.020133574   -7.7419315    3633.3879          561 
  939000   0.02016282   -7.7415195    3633.4247          572 
  940000  0.020200156   -7.7433061    3634.2376          516 
  941000  0.019602336   -7.7422016    3633.3362          559 
  942000  0.019739523   -7.7419279    3633.3716          550 
  943000  0.020153298   -7.7407135    3633.2418          596 
  944000   0.01976829   -7.7400882    3632.1968          532 
  945000  0.019514859   -7.7407877    3632.5466          519 
  946000  0.019810142   -7.7398522    3632.2013          557 
  947000  0.019163948   -7.7408677    3632.6901          561 
  948000  0.019902477   -7.7408458    3632.0268          548 
  949000  0.019837316   -7.7412239     3632.861          569 
  950000  0.020353576   -7.7422204    3633.6302          514 
  951000  0.020262481    -7.741299    3633.2585          550 
  952000   0.01954232   -7.7426166    3633.7871          507 
  953000  0.020202563   -7.7426071    3633.7622          619 
  954000  0.020028366   -7.7415109    3633.2807          603 
  955000  0.019980922   -7.7416433    3632.8968          571 
  956000  0.020110389   -7.7411128    3632.7861          633 
  957000  0.019696237   -7.7396157    3631.7725          529 
  958000  0.019873615    -7.741109    3632.6036          550 
  959000  0.020292026    -7.739019    3631.7172          511 
  960000  0.020203328   -7.7415794    3632.6476          529 
  961000  0.020105938   -7.7417421    3632.7226          542 
  962000  0.020075141    -7.741482      3633.16          564 
  963000  0.020257531   -7.7430176    3633.9435          647 
  964000  0.019801472   -7.7432429     3633.608          512 
  965000  0.019803349   -7.7423431    3633.9601          537 
  966000  0.020586649   -7.7427028     3633.958          534 
  967000  0.020535763   -7.7410766    3633.1215          626 
  968000  0.020293926   -7.7405105    3632.5482          537 
  969000  0.019981218   -7.7392591    3631.5429          508 
  970000  0.019970634   -7.7397816    3632.1701          527 
  971000  0.020253016   -7.7402913    3632.5644          603 
  972000  0.020057042   -7.7402645    3632.1684          543 
  973000  0.019758231   -7.7414268    3633.0881          617 
  974000  0.019638424    -7.741928     3633.434          590 
  975000  0.020100042   -7.7422071    3633.3502          534 
  976000  0.020169167   -7.7442749    3634.8771          541 
  977000  0.019993845   -7.7423722    3633.9073          548 
  978000  0.020195564   -7.7415203    3633.4287          550 
  979000  0.019876531   -7.7408709    3632.8608          627 
  980000   0.02036689   -7.7389503    3631.6864          587 
  981000  0.019708209   -7.7400492    3631.6223          558 
  982000  0.020019776   -7.7404638    3632.3374          528 
  983000  0.019881806   -7.7401372    3631.9649          545 
  984000  0.020272795   -7.7400754    3632.1796          523 
  985000  0.020099264   -7.7415504    3633.0474          546 
  986000  0.019957747   -7.7413028    3633.3879          586 
  987000  0.020397692   -7.7435544    3634.5856          493 
  988000  0.019866522    -7.742828    3633.1072          556 
  989000  0.019602067   -7.7417081    3633.7745          548 
  990000  0.020064685   -7.7414731    3633.3747          545 
  991000  0.019953714   -7.7409488    3632.6784          506 
  992000  0.020281265   -7.7408298    3632.6478          552 
  993000   0.02000421   -7.7402636    3631.9868          573 
  994000   0.01998252   -7.7407365    3632.3607          545 
  995000  0.020099453   -7.7394744    3631.6534          576 
  996000  0.020094967   -7.7411155    3632.9725          506 
  997000  0.019800368   -7.7410012    3633.0976          561 
  998000  0.019952712    -7.742374    3633.8313          519 
  999000  0.019640041   -7.7420066    3633.5321          541 
 1000000  0.020396931   -7.7432939    3634.5245          600 
 1001000  0.019899719   -7.7413881    3633.2226          561 
 1002000  0.020226853   -7.7409799    3633.1145          539 
 1003000  0.020612473    -7.740823     3632.437          569 
 1004000   0.01974654   -7.7409134     3632.613          560 
Loop time of 2079.63 on 48 procs for 1000000 steps with 4000 atoms

Performance: 83091.555 tau/day, 480.854 timesteps/s
99.4% CPU use with 48 MPI tasks x no OpenMP threads

MPI task timing breakdown:
Section |  min time  |  avg time  |  max time  |%varavg| %total
---------------------------------------------------------------
Pair    | 128.88     | 153.27     | 174.37     |  80.9 |  7.37
Neigh   | 0.1919     | 0.21074    | 0.22298    |   1.5 |  0.01
Comm    | 83.291     | 103.42     | 128.19     |  97.1 |  4.97
Output  | 2.1145     | 2.1163     | 2.1307     |   0.2 |  0.10
Modify  | 1773.4     | 1781.8     | 1790.8     |  11.4 | 85.68
Other   |            | 38.86      |            |       |  1.87

Nlocal:        83.3333 ave          89 max          75 min
Histogram: 2 1 3 3 2 13 5 13 1 5
Nghost:        1750.88 ave        1778 max        1736 min
Histogram: 4 8 6 14 6 6 2 0 0 2
Neighs:        10648.3 ave       11454 max        9536 min
Histogram: 1 2 2 2 7 10 11 8 2 3
FullNghs:      21296.9 ave       22800 max       19161 min
Histogram: 2 1 3 3 6 9 10 8 1 5

Total # of neighbors = 1022251
Ave neighs/atom = 255.56275
Neighbor list builds = 839
Dangerous builds = 0

#clear
#
#next RN
#
#jump SELF
Total wall time: 0:34:40
