
units lj                  # Use reduced LJ style units
atom_style atomic         # Uncharged point particles
atom_modify map hash      # Needed for indexing of clusters etc
                          # Used to be able to find where atoms are in relation to each other.

# Define a lattice with which to populate the simulation cell. With units
# set to 'lj' the second argument to the lattice command is the reduced
# density rho* and the spacings are multiples of that required to acheive
# that density. Also define a simulation cell called 'box' in lattice units
# and fill it with atoms. Here we're creating a box which is ten lattice
# constants in each direction.
lattice fcc 1.0 spacing 1 1 1                 # All equal sizes - gives the right reduced density.
Lattice spacing in x,y,z = 1.5874011 1.5874011 1.5874011

region box block 0 10 0 10 0 10 units lattice # Defines a region, "box", in lattice units
create_box 1 box                              # Creates a simulation box as specified above,
Created orthogonal box = (0.0000000 0.0000000 0.0000000) to (15.874011 15.874011 15.874011)
  2 by 3 by 3 MPI processor grid
                                              # with one type of atom
create_atoms 1 box                            # Creates particles on lattice points
Created 4000 atoms
  using lattice units in orthogonal box = (0.0000000 0.0000000 0.0000000) to (15.874011 15.874011 15.874011)
  create_atoms CPU = 0.001 seconds


# Set the mass of the first (and only) atom type.
mass 1 1.0

# Lennard-Jones interactions between particles, 3.5 sigma cut-off. Apply
# long range tail corrections to energy and pressure and set all coefficients
# to unity since we work in reduced units here. Note that this doesn't shift
# the potential such that it goes to zero at the cutoff. That would require
# pair_modify('shift', 'yes').
pair_style lj/cut  3.5      # non-GPU version
pair_modify tail  yes
pair_coeff 1  1  1.0  1.0   # Intearaction between 1 and 1 set with epsilon = 1 and sigma = 1

write_data data.*
System init for write_data ...
Neighbor list info ...
  update every 1 steps, delay 10 steps, check yes
  max neighbors/atom: 2000, page size: 100000
  master list distance cutoff = 3.8
  ghost atom cutoff = 3.8
  binsize = 1.9, bins = 9 9 9
  1 neighbor lists, perpetual/occasional/extra = 1 0 0
  (1) pair lj/cut, perpetual
      attributes: half, newton on
      pair build: half/bin/atomonly/newton
      stencil: half/bin/3d
      bin: standard

#############################
#   M E L T   S Y S T E M   #
#############################

velocity all create 2.4 8172548 mom yes dist gaussian # Assign velocities
                                                    # Temperature 2.4, random number seed, zero linear momentum
						                                                        # Gaussian distribution

timestep 0.002   # simulation timestep
thermo 100       # output thermodynamic data every 100 steps

# Define a fix  in this case with index 1 applied to all
# particles in the simulation. This fix is for simulations
# in the anisotropic NPT ensemble. Note that we use the MTK
# correction.
fix 1 all npt temp 2.4 2.4 0.1 iso 5.68 5.68 0.5 mtk yes tchain 5 pchain 5 # Use NPT ensemble
                                                                         # Set temperature and pressure and damping
                                                                         # Numbers of thermostats in chain and in barostat
run 1000         # run for 10000 steps
Per MPI rank memory allocation (min/avg/max) = 3.680 | 3.683 | 3.691 Mbytes
Step Temp E_pair E_mol TotEng Press Volume 
       0          2.4   -8.3859253            0   -4.7868253   -2.2405722         4000 
     100    1.2521358   -6.5115055            0   -4.6337712    5.4508644    4089.6042 
     200    1.4689284   -6.2983762            0   -4.0955344    6.0837578    4137.2801 
     300    1.5740251   -6.0110759            0   -3.6506285    5.8428293    4272.3887 
     400    1.7007621   -5.7248177            0   -3.1743123    5.9311621    4395.3486 
     500    1.8066394   -5.4467078            0   -2.7374262    5.7861894     4545.589 
     600    1.8844107   -5.1406616            0   -2.3147521    5.8323888    4700.1474 
     700    2.0254849   -4.9242047            0    -1.886737    5.8268404    4833.6959 
     800    2.1385093   -4.7031284            0   -1.4961664    5.8326966    4964.1584 
     900    2.2562357   -4.5439597            0   -1.1604522    5.8538779    5071.7859 
    1000    2.3669211   -4.4724005            0  -0.92290647    5.7399528    5154.5285 
Loop time of 0.559523 on 18 procs for 1000 steps with 4000 atoms

Performance: 308834.381 tau/day, 1787.236 timesteps/s
99.7% CPU use with 18 MPI tasks x no OpenMP threads

MPI task timing breakdown:
Section |  min time  |  avg time  |  max time  |%varavg| %total
---------------------------------------------------------------
Pair    | 0.31717    | 0.34346    | 0.37361    |   2.4 | 61.39
Neigh   | 0.061874   | 0.064829   | 0.067502   |   0.7 | 11.59
Comm    | 0.093783   | 0.12287    | 0.14602    |   3.8 | 21.96
Output  | 0.00024327 | 0.00025252 | 0.00036144 |   0.0 |  0.05
Modify  | 0.022033   | 0.025171   | 0.029835   |   1.7 |  4.50
Other   |            | 0.002934   |            |       |  0.52

Nlocal:        222.222 ave         234 max         214 min
Histogram: 2 3 0 3 1 4 2 2 0 1
Nghost:        2030.39 ave        2051 max        2008 min
Histogram: 1 1 1 2 3 4 3 1 1 1
Neighs:        19703.8 ave       21135 max       18594 min
Histogram: 1 3 3 1 1 4 2 2 0 1

Total # of neighbors = 354669
Ave neighs/atom = 88.667250
Neighbor list builds = 86
Dangerous builds = 10

# Equilibrate just above the melting temperature to avoid step fn in T

fix 1 all npt temp 1.25 1.25 0.1 iso 5.68 5.68 0.5 mtk yes tchain 5 pchain 5
run 1000
Per MPI rank memory allocation (min/avg/max) = 3.680 | 3.684 | 3.691 Mbytes
Step Temp E_pair E_mol TotEng Press Volume 
    1000    2.3669211   -4.4724005            0  -0.92290647    5.7399528    5154.5285 
    1100    1.9578949   -4.6918684            0   -1.7557603    5.6487477    4991.6913 
    1200    1.7396677   -4.9813711            0   -2.3725219    5.5906411    4811.1244 
    1300    1.5731527   -5.2038437            0   -2.8447047    5.7283734     4660.157 
    1400    1.4617969   -5.4064956            0   -3.2143485    5.7429155    4548.2287 
    1500    1.3856267   -5.5768053            0   -3.4988849    5.5616911    4480.7352 
    1600    1.2965183   -5.6686791            0   -3.7243878    5.5183337    4437.4897 
    1700    1.2706454   -5.7482266            0   -3.8427351     5.587581    4391.7293 
    1800    1.2485176   -5.8146125            0   -3.9423043    5.4355018     4375.335 
    1900    1.2452702    -5.820016            0   -3.9525776    5.6724499    4352.6927 
    2000     1.271515   -5.8429821            0   -3.9361864    5.6243904    4346.3347 
Loop time of 0.540771 on 18 procs for 1000 steps with 4000 atoms

Performance: 319543.762 tau/day, 1849.212 timesteps/s
99.7% CPU use with 18 MPI tasks x no OpenMP threads

MPI task timing breakdown:
Section |  min time  |  avg time  |  max time  |%varavg| %total
---------------------------------------------------------------
Pair    | 0.33147    | 0.34323    | 0.36343    |   1.4 | 63.47
Neigh   | 0.055426   | 0.056941   | 0.058523   |   0.4 | 10.53
Comm    | 0.093766   | 0.11174    | 0.12232    |   2.2 | 20.66
Output  | 0.00023873 | 0.0002478  | 0.00035517 |   0.0 |  0.05
Modify  | 0.022148   | 0.025333   | 0.030372   |   1.6 |  4.68
Other   |            | 0.003286   |            |       |  0.61

Nlocal:        222.222 ave         228 max         215 min
Histogram: 1 0 1 3 2 3 5 0 0 3
Nghost:        2236.78 ave        2249 max        2225 min
Histogram: 2 1 1 2 2 5 1 1 2 1
Neighs:        23340.2 ave       24347 max       22415 min
Histogram: 1 1 3 2 3 2 3 1 0 2

Total # of neighbors = 420123
Ave neighs/atom = 105.03075
Neighbor list builds = 75
Dangerous builds = 7


# Small amount of linear quench

fix 1 all npt temp 1.25 ${temp} 0.1 iso 5.68 5.68 0.5 mtk yes tchain 5 pchain 5
fix 1 all npt temp 1.25 0.95 0.1 iso 5.68 5.68 0.5 mtk yes tchain 5 pchain 5
run 2000
Per MPI rank memory allocation (min/avg/max) = 3.680 | 3.684 | 3.691 Mbytes
Step Temp E_pair E_mol TotEng Press Volume 
    2000     1.271515   -5.8429821            0   -3.9361864    5.6243904    4346.3347 
    2100    1.2258052   -5.8458125            0   -4.0075643    5.6318772    4345.5735 
    2200    1.2585466   -5.8525556            0   -3.9652077    5.7146175    4336.8538 
    2300    1.2234036   -5.8744277            0   -4.0397811    5.5878711    4335.7755 
    2400    1.1941979   -5.9109521            0   -4.1201031       5.4027    4334.0618 
    2500    1.1898249   -5.9567514            0   -4.1724602    5.3558349    4316.1622 
    2600    1.1676561   -5.9804338            0   -4.2293875    5.3313355    4309.2894 
    2700      1.14484   -5.9833124            0   -4.2664818    5.4645678    4293.5628 
    2800    1.1390889    -6.022931            0   -4.3147249    5.5978982    4267.1983 
    2900    1.1360378   -5.9936027            0    -4.289972    5.8547451    4256.5496 
    3000     1.107633   -6.0219241            0     -4.36089    5.7573119    4251.0333 
    3100    1.0924525   -6.0460686            0   -4.4077995    5.7647823    4238.7225 
    3200    1.0753005    -6.074272            0   -4.4617246    5.6778954    4235.2777 
    3300     1.077364   -6.1235945            0   -4.5079524    5.6253672    4220.3758 
    3400    1.0557308    -6.143978            0   -4.5607778    5.6830087    4207.3069 
    3500    1.0249981   -6.1529899            0   -4.6158771    5.6215548    4205.2814 
    3600    1.0166622   -6.1768039            0   -4.6521918    5.8644469    4176.3357 
    3700    1.0115638   -6.2031127            0   -4.6861464    5.9657494    4157.0381 
    3800    1.0046507   -6.2403276            0   -4.7337283    6.0159693    4141.2796 
    3900   0.99094172   -6.2811214            0   -4.7950804    5.7968616    4139.5967 
    4000   0.94652391   -6.2847876            0   -4.8653567    5.8098248    4135.3061 
Loop time of 1.11486 on 18 procs for 2000 steps with 4000 atoms

Performance: 309995.007 tau/day, 1793.953 timesteps/s
99.7% CPU use with 18 MPI tasks x no OpenMP threads

MPI task timing breakdown:
Section |  min time  |  avg time  |  max time  |%varavg| %total
---------------------------------------------------------------
Pair    | 0.71078    | 0.737      | 0.77642    |   2.0 | 66.11
Neigh   | 0.096427   | 0.098351   | 0.10185    |   0.4 |  8.82
Comm    | 0.18758    | 0.22117    | 0.23868    |   2.8 | 19.84
Output  | 0.00045809 | 0.00047619 | 0.0006775  |   0.0 |  0.04
Modify  | 0.043066   | 0.050475   | 0.060526   |   2.6 |  4.53
Other   |            | 0.007378   |            |       |  0.66

Nlocal:        222.222 ave         229 max         215 min
Histogram: 2 0 3 1 2 3 1 3 1 2
Nghost:        2315.28 ave        2329 max        2307 min
Histogram: 3 1 1 6 3 1 0 1 1 1
Neighs:        24559.9 ave       26424 max       23543 min
Histogram: 2 4 4 2 1 1 2 1 0 1

Total # of neighbors = 442079
Ave neighs/atom = 110.51975
Neighbor list builds = 125
Dangerous builds = 0

#############################
# F R E E Z E  S Y S T E M  #
#############################

# Define solid atoms. This closely follows ten Wolde  Ruiz-Montero and Frenkel  Faraday Discuss  1996  104  93-110
# Compute components of the per-atom q6 vector
compute q6 all orientorder/atom degrees 1 6 components 6 nnn NULL cutoff 1.3 # compute the Q6 parameter.
                                                                             # Use all neighbours within 1.3 unit cell.

# get number of connections
compute coord_number all coord/atom orientorder q6 0.5

# An atom is solid if it has 8 or more connections (of a possible 14)
variable is_solid atom c_coord_number>=8
group solid dynamic all var is_solid    # Must be dynamic to update
dynamic group solid defined

# do clustering
compute cluster solid cluster/atom 1.3 # Create a cluster where all atoms within are solid and max 1.3 units from another member

# define chunks one chunk per cluster
compute clus_chunks solid chunk/atom c_cluster nchunk every compress yes  # Says which atoms are in which chunk

# count the size of each chunk
compute size_chunks solid property/chunk clus_chunks count


# Find the maximum entry in the vector of chunk sizes
variable max_n equal max(c_size_chunks)


# Thermo style which includes this variable
thermo_style custom step temp pe vol v_max_n

thermo ${N}  # Print the thermo information every 100 steps
thermo 100  

# Reset the npt fix at a lower temperature (below freezing)
fix 1  all npt temp  ${temp} ${temp}  0.1  iso  5.68  5.68  0.5  mtk yes tchain  5  pchain  5
fix 1  all npt temp  0.95 ${temp}  0.1  iso  5.68  5.68  0.5  mtk yes tchain  5  pchain  5
fix 1  all npt temp  0.95 0.95  0.1  iso  5.68  5.68  0.5  mtk yes tchain  5  pchain  5

dump dmp2 all dcd ${N} traj_${rand}.dcd
dump dmp2 all dcd 100 traj_${rand}.dcd
dump dmp2 all dcd 100 traj_462431.dcd


# fix rnuntil all halt ${N} v_max_n >= 3980 error soft message no   # Stop when solidified


run 100000 # 5000000  # Run for this many steps
Neighbor list info ...
  update every 1 steps, delay 10 steps, check yes
  max neighbors/atom: 2000, page size: 100000
  master list distance cutoff = 3.8
  ghost atom cutoff = 3.8
  binsize = 1.9, bins = 9 9 9
  4 neighbor lists, perpetual/occasional/extra = 1 3 0
  (1) pair lj/cut, perpetual
      attributes: half, newton on
      pair build: half/bin/atomonly/newton
      stencil: half/bin/3d
      bin: standard
  (2) compute orientorder/atom, occasional
      attributes: full, newton on
      pair build: full/bin/atomonly
      stencil: full/bin/3d
      bin: standard
  (3) compute coord/atom, occasional
      attributes: full, newton on
      pair build: full/bin/atomonly
      stencil: full/bin/3d
      bin: standard
  (4) compute cluster/atom, occasional
      attributes: full, newton on
      pair build: full/bin/atomonly
      stencil: full/bin/3d
      bin: standard
Per MPI rank memory allocation (min/avg/max) = 9.502 | 9.505 | 9.509 Mbytes
Step Temp PotEng Volume v_max_n 
    4000   0.94652391   -6.2847876    4135.3061            9 
    4100   0.95878688   -6.3463906    4123.3526           12 
    4200    0.9664987   -6.3537204    4121.7018            8 
    4300   0.95177059   -6.3138265     4124.774            5 
    4400   0.94538232   -6.3110685    4127.8266            7 
    4500   0.94834608   -6.3569611    4114.9461           18 
    4600    0.9564447   -6.3549286    4116.3389            6 
    4700   0.94633443   -6.3111242    4125.0728           21 
    4800   0.95588138   -6.3303549      4116.72            6 
    4900   0.95222474   -6.3557847    4108.3697            7 
    5000   0.94685106   -6.3560099    4113.5788            7 
    5100   0.95387156    -6.327144    4133.4551            5 
    5200   0.95654396   -6.3245882    4127.5443            3 
    5300   0.94686658   -6.3127332    4127.3107           10 
    5400   0.95595316    -6.329479    4118.2575            8 
    5500   0.93316219   -6.3418452    4111.8905            5 
    5600   0.97353689   -6.3699255    4130.3214            6 
    5700   0.95990374   -6.3946156    4126.2507            6 
    5800   0.91488876   -6.3701936    4111.4403            4 
    5900   0.93753321   -6.3580963    4116.9417            8 
    6000   0.96069459   -6.3863489    4125.1082            6 
    6100   0.92933052   -6.3560603    4117.4497            6 
    6200   0.94524348   -6.3499069    4119.9856           12 
    6300   0.96752967   -6.3303878    4115.6365           11 
    6400   0.95581616   -6.3778036    4110.9809            7 
    6500   0.97355091   -6.4109803    4112.3527           11 
    6600   0.95440652   -6.3518881     4112.862            6 
    6700   0.95833766   -6.3827759    4113.3381            6 
    6800   0.92975945   -6.3706012    4106.1223            8 
    6900   0.95233177   -6.3985902    4106.6969            8 
    7000    0.9430464   -6.3958767    4105.6703            7 
    7100   0.95366152   -6.3914676     4107.404            4 
    7200    0.9560385   -6.3439581    4131.3551            4 
    7300   0.94688966   -6.3560867    4127.7857            3 
    7400    0.9300316   -6.3759162    4106.9235            8 
    7500    0.9529158   -6.3844183    4116.0352            6 
    7600   0.96324058   -6.3630718    4121.1136            6 
    7700   0.95031536   -6.3865646    4109.2851            9 
    7800   0.93213762   -6.3650622    4110.3949           12 
    7900   0.95572667    -6.362559    4118.1785            9 
    8000   0.95101949   -6.3716952    4111.2958            6 
    8100   0.95094706    -6.364512    4102.3204            9 
    8200   0.95246665   -6.3166716    4110.9344            7 
    8300   0.96125962   -6.3659567    4109.4599            6 
    8400   0.94352626   -6.3707003    4113.8099            6 
    8500   0.95222766   -6.3374198     4129.225           10 
    8600   0.96847353   -6.3740059    4129.6353           10 
    8700   0.95195853   -6.3792969    4106.1299           14 
    8800   0.93543535   -6.3879075    4120.4732            7 
    8900   0.93721323    -6.383565    4116.8119           10 
    9000   0.95019739   -6.3699718    4116.4606           17 
    9100   0.94675995   -6.3575115    4101.8253           16 
    9200    0.9429936   -6.3662618    4098.8884           18 
    9300   0.96887463   -6.3749601    4111.5614           20 
    9400   0.94974951   -6.3655896    4111.6718            7 
    9500   0.94566479   -6.3944464    4108.8979           10 
    9600   0.95169514   -6.3840207    4110.9364            6 
    9700   0.96082766   -6.3548822    4113.6581            6 
    9800   0.93639218   -6.3735675    4100.5859            4 
    9900   0.94664332   -6.3691292    4103.4574           10 
   10000   0.96595553   -6.3619127    4111.7392            8 
   10100   0.94369058   -6.3559903    4117.3802            6 
   10200   0.92254974    -6.361891    4111.2015           12 
   10300   0.93541103   -6.3871427    4118.5297           14 
   10400   0.94917817   -6.3715863    4115.0117            9 
   10500   0.93609104   -6.3818034    4108.7294            6 
   10600   0.95078828   -6.3798553    4109.9999            8 
   10700    0.9518283   -6.3617896    4109.3049            7 
   10800   0.96794493   -6.3739923    4108.7165           10 
   10900    0.9615556   -6.3761202    4112.0334            8 
   11000   0.93419984    -6.359181    4101.8992           10 
   11100   0.95897634   -6.4006604    4101.1234           12 
   11200   0.94613189   -6.3435582    4113.0104            5 
   11300   0.95341654    -6.366943    4107.2871            6 
   11400   0.95980466   -6.3750258    4094.6745           19 
   11500   0.95292534   -6.3610391    4114.9916           19 
   11600   0.95633345    -6.364827    4107.2696           13 
   11700   0.95046765   -6.3505104    4105.8405           14 
   11800   0.95360699   -6.3336282    4109.0436           10 
   11900    0.9227295   -6.3466443    4114.7456            8 
   12000   0.96099221   -6.3759638    4118.2126            8 
   12100   0.95806174   -6.3738742    4120.5131            3 
   12200   0.93601264   -6.3795863    4110.3412           12 
   12300    0.9437315   -6.3868585    4115.8486            8 
   12400   0.94515133   -6.3589422     4109.828            7 
   12500    0.9500636   -6.3342768    4113.7101           10 
   12600   0.95649603   -6.3420895    4117.7724            7 
   12700   0.96254241   -6.3686057    4108.3887           13 
   12800   0.94697452   -6.3484931    4109.0206           22 
   12900   0.96807134   -6.3587652    4113.7309           18 
   13000   0.93119616   -6.3215835    4114.1164           11 
   13100   0.95629116   -6.3184998    4119.3418           14 
   13200   0.95358511   -6.3568967     4109.117            5 
   13300   0.94132589   -6.3565552    4109.4377            5 
   13400   0.95947849   -6.3604101    4120.0394            9 
   13500   0.93936562   -6.3743185    4119.5777           14 
   13600   0.93404324    -6.379744     4113.556           11 
   13700   0.94991579   -6.3959618    4116.5321            7 
   13800   0.94338407   -6.3472246    4126.6938           15 
   13900   0.94740538   -6.3555623    4131.2254            9 
   14000   0.90694861   -6.3301804    4132.1564            7 
   14100   0.94577872   -6.3501897    4133.5311            4 
   14200    0.9479354   -6.3471331    4129.1947           11 
   14300    0.9253487   -6.3686804    4120.4345            9 
   14400   0.92872686   -6.3485171    4112.6359           14 
   14500    0.9553251   -6.3362369    4119.5082            8 
   14600   0.95238084   -6.3435358    4121.1087            6 
   14700   0.94274838   -6.3740434    4112.8477            6 
   14800   0.94533687   -6.3671018    4107.3554            8 
   14900   0.95728442   -6.3616796    4112.0143            7 
   15000   0.94373751   -6.3704143    4104.8579            7 
   15100   0.94759848   -6.3870525    4105.7214           11 
   15200    0.9613061   -6.3756416     4108.696            7 
   15300   0.94147768   -6.3719655    4113.1695            6 
   15400   0.96092919   -6.3613652    4119.6987            7 
   15500   0.94537199   -6.3852835    4116.3358            7 
   15600   0.92926037   -6.4160143    4114.2646            7 
   15700   0.93308393   -6.3795164    4133.1951           15 
   15800   0.93718962   -6.3842622    4131.6862            7 
   15900    0.9078415   -6.3643104    4119.3349           11 
   16000    0.9425385   -6.3675107    4129.7132            7 
   16100   0.93320116   -6.3739481    4124.5646            7 
   16200   0.95571566   -6.3823584    4119.2944           12 
   16300   0.94933314   -6.3463225     4123.957            6 
   16400   0.94050478   -6.3686056    4126.4599           12 
   16500   0.94917523   -6.3713546    4120.5671            3 
   16600   0.94470341   -6.3377886    4123.3752            6 
   16700   0.96668914   -6.3656891     4126.977            8 
   16800   0.93401224   -6.3660942    4119.9843            8 
   16900   0.93280507    -6.360313    4124.8022            4 
   17000   0.94371396   -6.3530631    4128.6407            6 
   17100    0.9739004   -6.3468434    4125.9905           10 
   17200    0.9613425    -6.363019    4113.3245            6 
   17300   0.95890817   -6.3626193    4119.2896            7 
   17400   0.95819866   -6.3710144    4118.1481            7 
   17500   0.92517634    -6.351726    4108.0843            8 
   17600   0.97274695   -6.3671604    4106.6141           11 
   17700    0.9544277   -6.3745516    4106.7469            4 
   17800   0.94384156    -6.376108    4117.2244           11 
   17900   0.96684296   -6.3637439    4118.3261           12 
   18000   0.92651175   -6.3576846    4112.9725           13 
   18100   0.92750297   -6.3708637    4105.8094            7 
   18200   0.95074512   -6.4118538    4096.0434            8 
   18300    0.9575767   -6.3737546    4103.4783           10 
   18400   0.96207775   -6.3601399    4108.2015           10 
   18500   0.93105235   -6.3555051     4111.817            7 
   18600   0.96122793   -6.3495799    4122.4151           14 
   18700   0.94977436   -6.3684248    4114.5437           11 
   18800    0.9426845   -6.3701125    4113.9061            6 
   18900   0.92108396   -6.3742607    4118.8412           11 
   19000   0.97937905   -6.4209392    4121.3963           10 
   19100   0.95582529   -6.3933042    4111.0648           10 
   19200   0.92870747   -6.3880098    4097.7823            7 
   19300    0.9421946   -6.3665608    4112.4795            9 
   19400    0.9663697   -6.3861074    4116.5447            7 
   19500   0.93065247   -6.3735918       4110.4           18 
   19600   0.94737251   -6.3812989      4108.34            5 
   19700   0.94874838   -6.3737742    4103.6532            8 
   19800   0.93731528   -6.3746455    4103.0637            5 
   19900   0.95841197   -6.3752339    4108.0863            9 
   20000   0.94243743   -6.3968651     4101.839            6 
   20100    0.9353957    -6.379899    4102.4637            7 
   20200   0.95237916   -6.3781744    4113.3087            7 
   20300   0.94958106   -6.3613723    4118.4624            5 
   20400   0.94837395   -6.3518041    4124.8567            6 
   20500    0.9368636   -6.3770667    4108.5728            8 
   20600   0.94462878   -6.3644325    4108.9013           14 
   20700   0.97543809   -6.3867542    4113.4491            7 
   20800   0.93267082   -6.3760586    4099.6218           13 
   20900   0.97008506   -6.3871996     4110.673            8 
   21000   0.94688392   -6.3820362    4111.0816           12 
   21100    0.9524233   -6.3393258    4113.5207            7 
   21200   0.94888696   -6.3348596    4110.5659            7 
   21300   0.95703657   -6.3715068    4096.0302            5 
   21400   0.95851988   -6.3853989    4109.9026            8 
   21500   0.95427512   -6.3614459    4111.3333            7 
   21600   0.94537659   -6.3670272    4117.4807            7 
   21700   0.94368189   -6.3951593    4114.9297           17 
   21800   0.96186439   -6.3946212    4101.3109           12 
   21900   0.95904987   -6.3589142    4113.4877            6 
   22000   0.93220797     -6.35079    4112.3934            9 
   22100   0.95839215   -6.3595931      4105.17            4 
   22200   0.95769965   -6.3635299     4116.812           10 
   22300   0.94471691     -6.34754    4116.5021           16 
   22400   0.94224248    -6.366705    4110.7498           16 
   22500    0.9466645   -6.3322469    4124.0058           21 
   22600   0.94344798   -6.3375919    4117.4713           17 
   22700   0.95584407   -6.3582915    4125.4642           14 
   22800   0.95530804   -6.3558352    4125.8165            7 
   22900   0.94239361   -6.3632095    4120.6057           19 
   23000   0.93169695   -6.3337335    4129.4098            9 
   23100   0.95731179   -6.3606011     4134.333            9 
   23200   0.94791812   -6.3797614    4118.1316           14 
   23300   0.95214737   -6.3683104    4116.6475           13 
   23400   0.92894526   -6.3530733    4114.9634           20 
   23500   0.95405452   -6.3544837    4109.3937           15 
   23600   0.95555157   -6.3602846    4111.8272           10 
   23700   0.95952687   -6.3781138    4099.5345            5 
   23800   0.96425271   -6.3775016    4091.5243            6 
   23900   0.99345919   -6.3953996    4106.2393            9 
   24000   0.94059485   -6.3763825    4104.3542            6 
   24100   0.95039113   -6.3602501    4108.2775            5 
   24200   0.97969507    -6.358454    4120.0424            8 
   24300   0.95624884   -6.3583517    4097.6069            7 
   24400   0.94147286   -6.3561703    4095.4094            4 
   24500   0.96556933   -6.3540633    4110.4776            8 
   24600   0.96043334   -6.3648451    4111.3326            9 
   24700   0.93344236   -6.3676066    4107.7485            5 
   24800   0.95790833   -6.3615336    4119.4795            7 
   24900   0.95332865     -6.36891    4117.6922            8 
   25000   0.93527608   -6.3853797    4110.5931            6 
   25100   0.95258372   -6.3586474    4123.1791            7 
   25200   0.93279955   -6.3345883    4116.0254            4 
   25300    0.9528701   -6.3540249    4106.1833            6 
   25400   0.94157164   -6.3661293    4098.6155           10 
   25500   0.96155459    -6.343669    4109.4664            6 
   25600   0.93229884   -6.3578132    4116.6278            5 
   25700   0.94950721   -6.3761269    4128.0728            8 
   25800   0.95261647   -6.3827195    4133.8624           13 
   25900   0.95410638   -6.3772627    4116.3939            9 
   26000   0.95316025    -6.382916     4103.993            8 
   26100   0.96465777   -6.3806787    4110.8232            8 
   26200   0.93063771   -6.3637206    4112.8288            4 
   26300   0.96007237   -6.3594104    4104.7665            9 
   26400   0.95060825   -6.3389432    4119.3147            7 
   26500   0.96198099   -6.3646854    4113.5193            8 
   26600   0.96379596   -6.3969956    4107.0662            7 
   26700   0.95028595   -6.4024039     4109.643           18 
   26800   0.94825642   -6.3800867     4133.858            5 
   26900   0.92883658   -6.3397584    4132.4853           14 
   27000   0.94676954   -6.3905146     4122.893           13 
   27100   0.93219069   -6.3870589    4119.4118           20 
   27200   0.93990107   -6.3804864     4109.961           17 
   27300    0.9519307    -6.363381    4121.5744           10 
   27400   0.94384728   -6.3600575    4111.1472            9 
   27500   0.95325075    -6.370153    4111.9933            9 
   27600   0.94744727   -6.3595664    4115.1658           19 
   27700   0.93977832   -6.3972333    4096.2386           15 
   27800   0.95319394   -6.3866367    4110.1146           13 
   27900   0.95227678    -6.363214    4107.3691           15 
   28000   0.94542781   -6.3815926    4096.5829           13 
   28100   0.96232025   -6.3669209    4114.3626           20 
   28200   0.96265157   -6.3487271    4105.3194            8 
   28300   0.94033747   -6.3581707     4102.899           10 
   28400   0.96241598   -6.3739839    4111.4282           19 
   28500   0.94258071   -6.4024675       4111.6            5 
   28600   0.96067552   -6.4130562    4106.6415            7 
   28700   0.94214463   -6.3733918     4108.389            6 
   28800   0.95461668   -6.3483242    4115.2843            6 
   28900   0.93516353   -6.3473056    4113.3216            6 
   29000   0.94033214   -6.3616587    4097.8072            9 
   29100   0.94014734   -6.3119842    4118.2203            8 
   29200   0.95161926   -6.3354252    4122.9803            5 
   29300   0.93651412   -6.3707273    4105.4645            5 
   29400    0.9586198   -6.3719797    4117.2219            8 
   29500   0.95891089   -6.3589025    4118.7167            5 
   29600   0.93879566   -6.3905234    4111.4185            8 
   29700   0.95773132   -6.3762901    4115.6827            6 
   29800   0.95717418   -6.3765678      4114.87            5 
   29900   0.93756674   -6.3508644    4110.8162            8 
   30000   0.94687503    -6.381757    4117.1533            7 
   30100   0.94476536   -6.3878335    4103.0216            8 
   30200   0.93981899   -6.3843847     4100.416            9 
   30300   0.95844762   -6.3669648    4106.4702            5 
   30400   0.95187721   -6.3982717    4101.8206            4 
   30500   0.94682143   -6.3954303    4110.3346            3 
   30600   0.94543988   -6.3782056     4109.105            8 
   30700   0.97065635   -6.3644229    4113.9487            4 
   30800   0.95943474   -6.3398281    4102.8145            3 
   30900    0.9404372   -6.3539017    4101.7556            4 
   31000   0.95621347   -6.3386539    4122.2311            7 
   31100   0.94734156   -6.3727928    4124.3388            6 
   31200   0.95322471   -6.3716426    4116.1353            8 
   31300   0.92454296    -6.361399    4114.8658           12 
   31400   0.96031777   -6.3639494     4124.392           11 
   31500   0.96170801   -6.3508614    4126.5537            8 
   31600   0.94278203   -6.3601517    4125.3382           14 
   31700   0.92601192   -6.3605793    4115.2877           10 
   31800   0.95452797   -6.3729823    4115.5859            7 
   31900   0.95476215   -6.3423519    4126.5169           10 
   32000   0.95477778   -6.3613482    4130.0549            8 
   32100   0.93981203   -6.3711601    4124.3666            6 
   32200   0.96150381   -6.3505018    4123.1002            7 
   32300   0.95587206   -6.3425721    4127.4456            8 
   32400   0.94940081   -6.3302155    4128.4921            7 
   32500   0.94131993   -6.3292264    4120.4885            6 
   32600   0.93793724   -6.3691086    4112.6215            3 
   32700   0.95469991   -6.3425645    4120.8755           12 
   32800    0.9498875   -6.3541532    4129.0033            7 
   32900   0.92661784   -6.3593986    4124.8509            8 
   33000   0.94939314   -6.4002712    4126.6025            6 
   33100   0.96019824   -6.3684524    4129.6434            7 
   33200   0.94841749   -6.3411939    4125.3787            5 
   33300   0.95787795   -6.3587593    4121.3317            7 
   33400   0.94143776    -6.378691    4118.3286            7 
   33500   0.94768471   -6.3336103    4117.7149            5 
   33600   0.95016311   -6.3468029    4120.8653            8 
   33700   0.95664436   -6.3869475    4111.3818           10 
   33800   0.94051339   -6.3617422    4114.4817            6 
   33900    0.9304895   -6.3579175    4121.9606           13 
   34000   0.95343779   -6.3879994    4124.2158           12 
   34100   0.93645313   -6.3933841    4105.6754            8 
   34200   0.92578805   -6.3820888      4092.34           11 
   34300   0.95935067   -6.3620437    4101.1249            6 
   34400   0.96316819   -6.3999696    4106.2965            9 
   34500   0.95344539   -6.4147873     4096.275            9 
   34600   0.94999476   -6.3775962    4108.8887           13 
   34700   0.97131028   -6.3827489    4110.7828            6 
   34800   0.93926274   -6.3597052    4102.4836            9 
   34900   0.92744729   -6.3951545    4098.2666            5 
   35000   0.93219883   -6.3789241    4107.4932            5 
   35100   0.94595315   -6.3869057    4114.6585            7 
   35200   0.96061278    -6.366285    4124.2043            9 
   35300   0.94539234   -6.3738701    4133.7406            8 
   35400   0.93953704   -6.3555096     4135.954            8 
   35500   0.93850265   -6.3789694    4114.2621            5 
   35600   0.94732985   -6.3740547    4107.1218            5 
   35700   0.95086968   -6.3372452    4120.8787            8 
   35800   0.96195441   -6.3515619    4116.0109           12 
   35900   0.95560391     -6.35371     4105.725           13 
   36000    0.9529515   -6.3767794    4108.5119            8 
   36100   0.94505455   -6.3790212    4110.8638            2 
   36200   0.94636006   -6.3796867     4112.693            5 
   36300   0.93431323   -6.3784346    4122.0021           12 
   36400   0.93378655    -6.377501    4124.2589            5 
   36500    0.9295178   -6.3364491    4132.5884            6 
   36600   0.92541771   -6.3574064    4127.2249            8 
   36700   0.94839599    -6.386951    4125.7551           14 
   36800   0.94942643   -6.3524073    4126.2629           11 
   36900   0.92500797   -6.3689673    4108.2844           12 
   37000   0.95385519   -6.3677927    4110.3338            7 
   37100   0.94467361   -6.3724325    4113.9659            7 
   37200   0.93576392    -6.392081     4105.219           11 
   37300   0.95662599     -6.41446    4105.7189            6 
   37400   0.95803138   -6.3681052    4127.9441           12 
   37500   0.92850276   -6.3466386     4124.364            7 
   37600   0.95879715   -6.3529222    4125.9833            8 
   37700   0.94468873   -6.3386008    4123.3049           12 
   37800   0.95546618   -6.3925496    4123.5834            8 
   37900   0.95003871   -6.3857221    4112.7947            6 
   38000   0.93654761    -6.386421    4108.9648           10 
   38100   0.94552682   -6.3506744    4114.5813            6 
   38200   0.95502342   -6.3369937     4113.992            7 
   38300   0.94469022   -6.3766148    4103.1967           12 
   38400   0.95982436   -6.3850059    4105.6799           13 
   38500   0.96236545   -6.3313694    4117.1291           13 
   38600   0.95940651   -6.3466074    4109.1678            4 
   38700   0.95790872   -6.3650468    4110.2869            4 
   38800   0.95472924   -6.3777135    4104.6236            6 
   38900   0.93309119   -6.3890004     4100.335            7 
   39000   0.94499635   -6.3966002     4110.785           14 
   39100   0.95136548   -6.3821952    4114.3594            7 
   39200   0.93372733    -6.384354    4116.7339           12 
   39300    0.9502512   -6.3760551    4115.2827           13 
   39400   0.93451426   -6.3791393    4117.2543            7 
   39500   0.97119975   -6.3809895    4124.2374           14 
   39600   0.93478029   -6.3817885    4118.4603            7 
   39700   0.94988468   -6.3853861     4131.667           14 
   39800   0.95836271   -6.3941069    4134.5831           10 
   39900   0.94146938   -6.3821566    4108.9038            7 
   40000   0.94634809   -6.3867371    4107.7774           12 
   40100   0.94211196   -6.3970344    4112.1134           15 
   40200   0.96542195   -6.3870583    4120.7213            9 
   40300   0.95609552   -6.4014495    4123.0032           14 
   40400   0.93441929   -6.3989677    4103.7394           13 
   40500   0.95413136   -6.3777998    4116.1085            9 
   40600   0.95264507   -6.3628869    4118.8112            8 
   40700   0.97607606   -6.3484959    4117.8522            7 
   40800   0.95639485   -6.3616933    4107.9249           10 
   40900   0.94343438   -6.3559318    4102.1844            9 
   41000   0.94282037   -6.3803894    4094.9162            8 
   41100   0.94185383   -6.3585442     4110.152            5 
   41200   0.95784517   -6.3597485    4126.4075            6 
   41300   0.93719836   -6.3643082    4123.6602            6 
   41400     0.947509   -6.3763109    4125.9726            8 
   41500   0.95244648   -6.3715034    4131.7834            9 
   41600   0.93096141    -6.368769    4129.3423            6 
   41700   0.92503803   -6.3826419    4120.1814            6 
   41800   0.94900142   -6.3666479    4119.2323            6 
   41900    0.9675905   -6.3721016    4126.7066            7 
   42000   0.95275048   -6.3749216    4114.0301            7 
   42100   0.93615897   -6.3706888    4111.9868            8 
   42200    0.9475472   -6.3641992    4124.3713            5 
   42300    0.9528495   -6.3763381    4132.7949            7 
   42400   0.92668564   -6.3813313    4124.4801            6 
   42500   0.93865251   -6.3650565    4121.5589            7 
   42600   0.94649203   -6.3527968    4112.9571            7 
   42700   0.92929151   -6.3673659    4113.8843           11 
   42800    0.9621034   -6.3574102    4120.6341           15 
   42900   0.95113721   -6.3819657    4114.6706           12 
   43000   0.96049486   -6.4066406    4110.3031            8 
   43100   0.94645954   -6.3405286    4122.1188            5 
   43200   0.96988295   -6.3391516    4114.3003            8 
   43300   0.95568272   -6.3312505    4105.6973            8 
   43400   0.94824344   -6.3620193    4106.3202            7 
   43500     0.951285   -6.3241103    4119.3704            5 
   43600   0.96578586   -6.3387368    4113.5202            5 
   43700   0.94538575   -6.3324281    4115.2567            4 
   43800   0.97383062   -6.3504523    4116.7908            8 
   43900   0.94177623   -6.3548944     4109.374            8 
   44000   0.93007413   -6.3676757    4099.9527           11 
   44100    0.9522761   -6.3681385     4108.659            9 
   44200   0.93977164   -6.3386592    4117.4209            5 
   44300   0.95235847   -6.3308127    4112.0398           10 
   44400   0.94370806   -6.3302759    4107.7211            6 
   44500    0.9730733   -6.3296657    4112.7821            8 
   44600   0.96517773   -6.3412911    4113.4135            8 
   44700   0.97082991   -6.3711363    4103.7435            9 
   44800   0.94363504   -6.3671743    4099.2428            6 
   44900   0.97020799   -6.3791668    4113.5414            8 
   45000   0.95567517   -6.3729675    4108.4694            5 
   45100   0.94943737    -6.389016    4112.2512           10 
   45200   0.95907843   -6.3689514    4118.1777            6 
   45300   0.96266755   -6.3682271    4123.3701            8 
   45400   0.93868837   -6.3545472    4112.5108            8 
   45500   0.93789397    -6.357499    4112.1792           12 
   45600   0.96396433   -6.3518651    4113.5434            7 
   45700   0.95626905   -6.3332516    4109.3644           10 
   45800   0.95269507   -6.3721826    4103.0669            5 
   45900   0.97355254   -6.3824767    4111.7464            7 
   46000   0.95429194   -6.3570986    4111.5389           15 
   46100   0.96264779   -6.3530776     4108.905            8 
   46200   0.96130868   -6.3552296    4109.4442           11 
   46300   0.92981627   -6.3453721    4120.0738            6 
   46400   0.94871369   -6.3392576    4110.4096            5 
   46500   0.93302895   -6.3636859    4114.1022           14 
   46600   0.93829142   -6.3556943    4120.9473            9 
   46700   0.95865811   -6.3564804     4123.932            8 
   46800   0.93847992   -6.3785491    4119.5795            9 
   46900   0.94204632   -6.3762434    4118.8233           14 
   47000   0.94962615   -6.3868889    4125.4695            9 
   47100   0.93531096   -6.3801114    4137.3659            8 
   47200   0.93939003   -6.3890146    4127.3081           12 
   47300   0.92871806   -6.3576672    4116.2765            6 
   47400   0.94355565    -6.359489    4103.0368            8 
   47500   0.96602005   -6.3637253    4121.9026            4 
   47600   0.96468862    -6.341009    4121.2693            7 
   47700   0.94816806   -6.3724013    4112.7441           10 
   47800   0.95754818   -6.3600864    4117.1509            5 
   47900   0.96031045   -6.3195442    4128.5076            5 
   48000   0.93405822   -6.3319333    4114.3533            6 
   48100   0.96902379   -6.3562029    4114.3302            8 
   48200   0.93468122   -6.3467397    4106.3686           10 
   48300   0.93450047   -6.3695076    4093.9105            6 
   48400   0.97053328   -6.3839535    4103.5481           12 
   48500   0.96144967   -6.3840805    4106.4566            9 
   48600   0.93102091   -6.3884366     4103.112            8 
   48700    0.9695885   -6.4068805    4102.7279            9 
   48800   0.95269675   -6.3740181    4098.3921            9 
   48900   0.94752728   -6.3423198    4101.9424           11 
   49000   0.98551393   -6.3731218    4105.5313           15 
   49100   0.96260778   -6.3739176    4098.5813           25 
   49200   0.93868049   -6.3645145    4097.3728            9 
   49300   0.91970918   -6.3723782    4100.9883            8 
   49400   0.95916874   -6.3704173    4109.6309            7 
   49500   0.95157872   -6.3828829    4103.8644           12 
   49600   0.95307684   -6.3900336    4101.6421           13 
   49700   0.93031846   -6.3779582    4103.1783           18 
   49800   0.95733152   -6.3903151    4112.0788           14 
   49900   0.97400523   -6.3824603    4120.8184            6 
   50000   0.94513268   -6.3490543    4112.7374            7 
   50100   0.93007664   -6.3653422    4101.3132            9 
   50200    0.9417246   -6.3656173     4097.187           30 
   50300   0.93527303   -6.3443853    4114.1984            4 
   50400   0.93207657   -6.3479329     4121.157            7 
   50500   0.95433395   -6.3387164    4116.0563            5 
   50600   0.97548588   -6.3349228    4107.9807            4 
   50700   0.95087137   -6.3455993    4099.9911            6 
   50800   0.96267455    -6.352629    4105.5207            5 
   50900   0.95064375   -6.3553296    4111.4398            6 
   51000   0.96604097   -6.3771521    4111.6883            4 
   51100   0.97207976   -6.3526735    4110.1557           11 
   51200    0.9495229   -6.3683943    4104.8934           18 
   51300   0.94991005    -6.347537     4112.037           18 
   51400   0.95112928   -6.3287571    4124.2241            9 
   51500   0.95055711   -6.3762668    4110.2692           13 
   51600   0.93440792   -6.3440375    4113.7995            9 
   51700   0.93617085   -6.3498141     4113.779           10 
   51800   0.95684066   -6.3828393    4120.6479           12 
   51900   0.96627331   -6.3730556     4125.631           10 
   52000   0.94327581    -6.401033    4112.3056           17 
   52100   0.95852995   -6.4168064    4112.8981           11 
   52200   0.95327614   -6.3742115    4124.1386            8 
   52300   0.94532735   -6.3464012    4127.1095           22 
   52400   0.94380653    -6.398352    4111.3884           32 
   52500   0.96333392   -6.3794596    4103.9225           15 
   52600    0.9476999   -6.3632678    4103.5494           17 
   52700   0.97315587   -6.3683647    4108.3317            7 
   52800   0.95847581   -6.3908392    4098.7827           11 
   52900   0.95085465   -6.4031359    4100.3954           10 
   53000   0.96030051   -6.3692147    4114.2695           12 
   53100   0.94430819   -6.3590138    4111.1408           12 
   53200   0.94912344   -6.4024359    4110.6872           18 
   53300   0.92609172   -6.4015579    4102.9411            8 
   53400   0.94346026   -6.3726504    4102.9493           15 
   53500   0.95338086   -6.3703818    4107.9417            8 
   53600   0.95323254   -6.3775487    4115.9805           20 
   53700   0.93520404   -6.3541041    4117.1824            6 
   53800    0.9427892   -6.3738404    4115.6531            5 
   53900   0.96777407   -6.3763785     4113.784           13 
   54000   0.92500541   -6.3513229    4102.0156           13 
   54100   0.95845447   -6.3651082    4112.1166           10 
   54200   0.95121967   -6.3464812    4118.5135           13 
   54300   0.93829047   -6.3624235    4108.0436           12 
   54400   0.96677184   -6.3684015    4117.0919            7 
   54500   0.94831482   -6.3530471     4113.893           11 
   54600   0.97027279   -6.3681602    4108.5421           12 
   54700   0.94252272   -6.3574018    4109.1888           14 
   54800   0.95043956    -6.339479    4121.5523           16 
   54900   0.93000552   -6.3353914    4131.0436           11 
   55000   0.93672212   -6.3831598    4133.2067           14 
   55100   0.92734284   -6.3475436    4131.3859            9 
   55200   0.93801854   -6.3333952    4135.8888           23 
   55300   0.95291296   -6.3022578    4133.3633           14 
   55400   0.96132631   -6.3485719    4127.8743           16 
   55500   0.94315121    -6.365365    4126.2357           20 
   55600   0.92359612   -6.3634743    4122.5841           18 
   55700   0.96168158   -6.3663222    4122.2542           24 
   55800     0.961104    -6.351061    4121.4072            7 
   55900   0.92953794   -6.3264319    4130.6563           10 
   56000   0.96759444   -6.3623122    4125.2824            5 
   56100    0.9513614   -6.3659035    4108.2882            5 
   56200   0.93654161   -6.3350696     4110.105            7 
   56300   0.96521328   -6.3589185    4107.3291            8 
   56400   0.94539837   -6.3612865    4100.6143           11 
   56500    0.9526476   -6.3411622    4100.0111           16 
   56600   0.95221496   -6.3724853    4112.0894           19 
   56700   0.95389232   -6.3866044    4115.8052            8 
   56800   0.97439411   -6.3698774    4120.5122           11 
   56900   0.93998231   -6.3573525    4106.6342            5 
   57000    0.9501537    -6.383668    4107.6809            5 
   57100   0.95303436   -6.3646335    4112.7452            9 
   57200   0.94079061   -6.3715709    4108.2577            9 
   57300   0.93844164    -6.348172     4103.753            7 
   57400    0.9683467   -6.3604075    4110.9037            7 
   57500   0.94351302   -6.3773115    4100.9718            5 
   57600   0.93577297   -6.3497725    4111.6678            5 
   57700   0.94441656   -6.3284855    4109.5545            4 
   57800   0.93518794   -6.3555787     4112.385            3 
   57900   0.93932018   -6.3385134    4108.1119            6 
   58000   0.94732435    -6.336896    4121.4455            4 
   58100   0.94391839   -6.3659463    4116.8816            9 
   58200   0.95408432   -6.3804324     4116.384            6 
   58300   0.94926433   -6.3335675    4122.0797            9 
   58400   0.95926274   -6.3571726    4115.0046            8 
   58500   0.96114431    -6.382361    4112.2304            6 
   58600    0.9478293   -6.3827337    4108.9681            6 
   58700   0.96099134   -6.3858683     4108.464            8 
   58800   0.95211301   -6.3766807    4119.5751           10 
   58900   0.93024104   -6.3734753    4124.9858            8 
   59000   0.92989436   -6.3432857    4135.6602           12 
   59100   0.94459657   -6.3812508    4135.9834            5 
   59200   0.94561685   -6.3875871    4125.0954            5 
   59300   0.94412455   -6.3575312    4119.6939            9 
   59400   0.93571684   -6.3709545    4117.3723            8 
   59500   0.94722579   -6.3639061    4109.7297            4 
   59600   0.95892287   -6.3486395    4113.5781            8 
   59700   0.94281709    -6.363551    4113.6313            4 
   59800   0.93626363   -6.3474875    4120.3755            6 
   59900    0.9665447   -6.3651746    4131.8374            8 
   60000   0.94648344   -6.3676095    4119.7476            6 
   60100   0.95069502   -6.3996921    4132.4106            6 
   60200   0.94487719   -6.3922426    4139.2689            5 
   60300   0.94250755   -6.3946919    4119.1796            7 
   60400   0.92986614   -6.3705462    4125.2727            6 
   60500   0.94099872    -6.360113    4128.6571            7 
   60600   0.94310267   -6.3728769    4123.2146            9 
   60700   0.92235876   -6.3541183    4115.7413            7 
   60800   0.95323127   -6.3594626    4115.2514            8 
   60900    0.9485823   -6.3463943     4105.501           12 
   61000   0.95232473   -6.3789307    4090.9384            6 
   61100   0.97033785    -6.370546    4091.8197           11 
   61200   0.95371664      -6.3534    4099.4303            7 
   61300   0.93523809   -6.3850955     4101.873            4 
   61400   0.95365494   -6.4022116    4110.9487           12 
   61500   0.94403878   -6.3691369    4120.1378            8 
   61600   0.92668279    -6.355986    4124.9378            6 
   61700   0.96304843   -6.3764382    4120.7188            5 
   61800   0.93735604   -6.3609595    4113.0734            6 
   61900   0.95407222   -6.3320083    4129.6843           16 
   62000   0.94795511   -6.3607302    4127.9542            4 
   62100   0.94705736   -6.3486118    4124.8151            4 
   62200   0.94784674   -6.3338865    4129.9884            8 
   62300   0.94699024   -6.3552453    4115.9781            4 
   62400   0.91890774   -6.3480775    4120.1223            6 
   62500   0.95188197   -6.3458006    4116.1102            7 
   62600   0.96637043   -6.3398582    4122.3517            6 
   62700   0.96415846    -6.373419    4120.0244            4 
   62800   0.96489773   -6.4097963     4109.127            9 
   62900   0.95161238   -6.3678698    4111.3987           22 
   63000   0.96337892   -6.3726477    4127.8387           12 
   63100   0.94372589   -6.3621865    4125.5658            5 
   63200   0.92178339   -6.3686945    4115.5629            5 
   63300   0.93872953   -6.3498485    4115.9274            4 
   63400   0.93737488   -6.3516565    4124.1605            8 
   63500   0.94667556   -6.3661872    4128.5626            9 
   63600      0.94496   -6.3404623    4127.7261           10 
   63700   0.94411383   -6.3316912    4130.9901            5 
   63800   0.93214517   -6.3635374    4119.8281            6 
   63900     0.952075   -6.3758444    4119.4657            6 
   64000   0.97180793   -6.3520873    4119.3412           12 
   64100    0.9648054   -6.3751995    4100.8733            9 
   64200   0.95077558   -6.3829508    4124.2763           11 
   64300   0.95661802     -6.37332    4120.3935            7 
   64400   0.94809523    -6.382829    4108.7702           13 
   64500   0.92790616   -6.3969259    4104.8847            7 
   64600   0.94364298   -6.3920923    4110.5578            6 
   64700   0.96209576    -6.368542    4112.1771            4 
   64800   0.94614098   -6.3806663    4102.9068            9 
   64900   0.93823344   -6.3578194    4110.2646           10 
   65000   0.93569754   -6.3374354    4112.4125           11 
   65100   0.97997555   -6.3418662    4105.7745            6 
   65200    0.9576388   -6.3644712    4095.8476            8 
   65300    0.9547413    -6.351925    4098.6522            7 
   65400   0.94823915   -6.3190036    4120.0946            4 
   65500   0.98031493   -6.3750188    4114.6071            8 
   65600   0.94373212   -6.3536277    4115.8237           11 
   65700   0.94264906   -6.3635187    4110.3967            4 
   65800   0.95594431   -6.3788766    4099.7606            7 
   65900   0.96849797   -6.3769436     4099.699           11 
   66000   0.97261549   -6.3463596    4116.4551           12 
   66100   0.93465331   -6.3373066    4117.1977           10 
   66200   0.97095174   -6.3847403    4108.4405            9 
   66300   0.92884478   -6.3518562    4108.2917            7 
   66400   0.96491226   -6.3635121    4107.6925            7 
   66500   0.95864283   -6.3878144    4095.0964            6 
   66600   0.96320976   -6.4034028    4097.7654            7 
   66700   0.94541821   -6.3696745    4105.9825           10 
   66800   0.94524228   -6.3506771    4118.5947            4 
   66900   0.93787493   -6.3337247    4119.4857            9 
   67000   0.95169334   -6.3431185    4115.2479            6 
   67100   0.94306702   -6.3432707    4104.3103            7 
   67200   0.95277232   -6.3824095    4110.6808            9 
   67300   0.95141707   -6.4021056    4106.4777            8 
   67400   0.95957094   -6.3760535    4102.2611           15 
   67500    0.9375921   -6.3474708    4107.9343           16 
   67600   0.96611584   -6.3559103     4117.842           13 
   67700   0.94649028    -6.364184    4119.2012           11 
   67800   0.93694487    -6.398314    4119.8059            5 
   67900     0.945092   -6.3528693    4118.6909            9 
   68000   0.96853018   -6.3606622    4109.5781           11 
   68100   0.95124553   -6.3384067    4113.3238           14 
   68200   0.95237761   -6.3347685    4118.7862            9 
   68300   0.93538137   -6.3571298    4120.7997            6 
   68400   0.94281513   -6.3571902    4117.4575            6 
   68500   0.94529108   -6.3939013    4101.0259            6 
   68600   0.94901808   -6.3660044    4115.8697            6 
   68700   0.95789971   -6.3763072    4113.9787            4 
   68800   0.95683704   -6.3543967    4108.2575            4 
   68900   0.96433846   -6.3703071    4104.9464            6 
   69000   0.93932487   -6.3678902    4095.9446            6 
   69100   0.96781121   -6.3883634    4104.9604           22 
   69200   0.96121165   -6.3621919    4111.6507            6 
   69300   0.96182782   -6.3593163    4119.7123           13 
   69400   0.95521082    -6.349945    4115.8765           10 
   69500   0.95673644   -6.3768236    4115.6294            5 
   69600    0.9598136   -6.3463072    4110.8324           11 
   69700   0.94087303   -6.3694881    4103.8231            8 
   69800   0.94949851   -6.3589625    4108.2683            5 
   69900   0.95807118    -6.346974    4127.7247            5 
   70000   0.96288505   -6.3360159    4121.8943            4 
   70100   0.94790354   -6.3447768    4110.9236            6 
   70200   0.93793981    -6.352003    4099.9562            8 
   70300   0.94914427   -6.3444718    4107.9561            5 
   70400    0.9503598   -6.3275062    4120.1411            4 
   70500   0.97076797   -6.3308289    4128.4356            7 
   70600   0.95246228   -6.3427415    4129.2957            5 
   70700   0.94210703   -6.3586416    4111.7259            6 
   70800   0.94967983   -6.3606181    4112.1515           10 
   70900   0.94951854   -6.3873859    4112.6876            7 
   71000   0.94432873   -6.3717974    4114.2722            5 
   71100   0.95398509    -6.370038    4117.1357            4 
   71200   0.92190175   -6.3742098    4109.6105            6 
   71300   0.93547813   -6.3572827    4116.8365            5 
   71400   0.96600918    -6.388117    4124.0714            7 
   71500   0.93566275   -6.3969442    4109.2061            8 
   71600   0.93928187   -6.3732406     4113.295            6 
   71700   0.95628038    -6.344244    4118.4481            5 
   71800   0.94702596   -6.3536876    4113.9837            6 
   71900   0.94337905   -6.3707256    4116.4989            4 
   72000   0.94830191   -6.3625956     4118.475            6 
   72100   0.94536771   -6.3427563    4114.9464            9 
   72200   0.92251012   -6.3366033    4113.1421            3 
   72300    0.9555953   -6.3747477    4111.2114            5 
   72400    0.9595845   -6.3619837    4105.8218            5 
   72500    0.9699774   -6.3947032    4099.9476            5 
   72600   0.94546166   -6.3863201    4096.4443           11 
   72700   0.94329595   -6.3853341     4112.461            7 
   72800   0.93241514   -6.3479623    4120.4848            6 
   72900   0.96091333   -6.3764731    4121.2162            5 
   73000   0.94903447   -6.4011106    4106.5771            8 
   73100   0.95034673   -6.3979679    4110.6265           10 
   73200   0.96743993   -6.3884879    4128.0484            5 
   73300   0.94758507    -6.368447    4114.0585            8 
   73400   0.92997877   -6.3654181    4109.6337           16 
   73500   0.95463699   -6.3661015    4115.9481           11 
   73600   0.94000161   -6.3643753    4113.1742           10 
   73700   0.92570884   -6.4024753    4105.1945            4 
   73800   0.94904914   -6.4034538    4103.9376            4 
   73900   0.95515825   -6.4031368    4113.7321            7 
   74000   0.95593305   -6.3837257     4110.649           11 
   74100   0.92405247   -6.3904654    4105.4847            6 
   74200   0.94697871   -6.3974202    4105.2658            6 
   74300   0.96559987   -6.3730594    4113.1949            7 
   74400   0.94116749   -6.3761479    4101.1397           10 
   74500   0.94792449   -6.3774388     4109.877            6 
   74600   0.94603618   -6.3698967    4118.6179            5 
   74700   0.95345819    -6.393246    4112.5889            6 
   74800   0.93733355   -6.3936446    4096.5633            5 
   74900   0.94785673   -6.3888822    4094.4267            4 
   75000   0.95312936    -6.368406    4099.3642            6 
   75100   0.96901251   -6.3575804    4107.7075            5 
   75200   0.94458714   -6.3630423    4108.6039            6 
   75300    0.9361379   -6.3596961    4105.5693            6 
   75400    0.9607909   -6.3622643    4111.8439            7 
   75500   0.94348118   -6.3868963    4102.7987           10 
   75600   0.96194188    -6.419463    4100.8626            7 
   75700   0.93866323    -6.371717    4119.6051           13 
   75800   0.95464999   -6.3809979     4114.301            8 
   75900   0.94530393    -6.387782    4105.8416           12 
   76000   0.96582484   -6.3896513    4104.9768            6 
   76100   0.94678045   -6.3913356    4102.9589           10 
   76200   0.94246743   -6.4118569    4094.6214           12 
   76300   0.94726925   -6.3829743    4108.2146           10 
   76400   0.94584256    -6.376997    4122.1502           11 
   76500   0.93768604    -6.363134    4129.2984           13 
   76600   0.93152568   -6.3681937    4120.8374            7 
   76700   0.94048356   -6.3595224    4125.4649            8 
   76800   0.94187227   -6.3708779    4116.5962            9 
   76900   0.95197031   -6.3589078    4111.3924            8 
   77000   0.97964464   -6.3315647    4118.5274           14 
   77100   0.96937564   -6.3496525    4128.5757           10 
   77200   0.95663402   -6.3852711    4126.4314            4 
   77300   0.93559816   -6.3842451    4116.1364           18 
   77400   0.96385578   -6.3708429    4108.1711           18 
   77500   0.94893547   -6.3675539    4102.3335            8 
   77600   0.95368144   -6.3810835    4107.2558            7 
   77700   0.95108248   -6.3611192    4115.7347            8 
   77800   0.97747121   -6.3554615    4122.2174           15 
   77900   0.93738785   -6.3412407    4107.7117            4 
   78000    0.9579484   -6.3619249    4102.4628            8 
   78100   0.95315111   -6.3685004    4103.3941            9 
   78200   0.97246986   -6.3538208    4116.2485            8 
   78300   0.94548174   -6.3561442    4119.2901           13 
   78400   0.93727394   -6.3680718    4118.1241           11 
   78500   0.95729934   -6.3708911    4132.3398            6 
   78600   0.95894556   -6.3669766    4125.7617           15 
   78700   0.94762278   -6.3439038    4103.2484            3 
   78800   0.93824245   -6.3729468    4095.3435            3 
   78900   0.97231241   -6.3775138    4103.8416            5 
   79000   0.95046648   -6.3733504    4116.5725            9 
   79100   0.96926361   -6.3765219    4118.3041            6 
   79200   0.93465992   -6.3708176    4116.4085           11 
   79300   0.94666721   -6.3425254    4116.4217            7 
   79400    0.9339368   -6.3666264    4125.7103           10 
   79500    0.9608474   -6.3668279    4123.5372            9 
   79600   0.92825213   -6.3722604    4124.3493            7 
   79700   0.95599401   -6.3869278    4118.5074            9 
   79800   0.96990369   -6.3815314     4118.386           10 
   79900   0.93553959   -6.3474551    4123.4152           10 
   80000   0.95005326   -6.3302471    4128.2349           10 
   80100   0.94025441   -6.3353015     4109.277           24 
   80200    0.9452209   -6.3638581    4107.2049           25 
   80300   0.94737273   -6.3591686    4111.6823           12 
   80400   0.95151776   -6.3456414    4116.5422            7 
   80500   0.96780757   -6.3692499    4114.3704            7 
   80600    0.9607822   -6.3727722    4101.1737           10 
   80700   0.97517678   -6.3770977    4100.1182            8 
   80800   0.93482387    -6.344862    4116.1626            7 
   80900   0.95750445   -6.3631479     4115.256            9 
   81000   0.93643869   -6.3778828    4110.1431            4 
   81100   0.94443317   -6.3711032      4123.16            7 
   81200   0.96604648   -6.3715206    4124.1788            8 
   81300   0.95060309   -6.3701991    4112.5082            8 
   81400   0.94929235   -6.3535268    4106.9766            9 
   81500   0.96939993   -6.3596526     4119.325            4 
   81600   0.96956882   -6.3763381    4118.8766            6 
   81700   0.94539651    -6.369104    4116.7814            7 
   81800   0.97618179   -6.3699858    4121.1231           10 
   81900   0.95042913   -6.3480541    4114.7625           10 
   82000   0.95663413   -6.3646471    4095.6792            5 
   82100   0.94993132   -6.3675621    4099.6932            6 
   82200   0.93209955   -6.3826819    4107.2975            8 
   82300   0.96038506    -6.372084    4109.9976            9 
   82400   0.96666419   -6.3684477    4102.2466           14 
   82500   0.96637863   -6.4029184    4109.7214            4 
   82600   0.94673384   -6.3971143    4111.4396            3 
   82700   0.93462878   -6.4041092    4110.9657            4 
   82800   0.96770555   -6.3981026    4118.6243            3 
   82900   0.96558268   -6.3593265    4117.5348            7 
   83000   0.95088062   -6.3829184    4112.5946            3 
   83100   0.93043794   -6.3819528    4112.5492            4 
   83200   0.93928717   -6.3539524    4118.8619            7 
   83300   0.96313302   -6.3638913    4125.0245            8 
   83400   0.93172385   -6.3550585     4120.821           13 
   83500   0.94559827   -6.3477437    4113.6545            6 
   83600   0.95621611   -6.3525287    4111.3784            4 
   83700   0.95573748   -6.3680933    4097.8245            6 
   83800   0.95639033   -6.3781248    4100.5639            3 
   83900   0.94994778   -6.3530269    4102.8547           21 
   84000   0.95418842   -6.3452579    4113.2695           10 
   84100   0.94596998   -6.3154103     4115.814            7 
   84200   0.93528578   -6.3390204    4116.7846           10 
   84300   0.95702453   -6.3537083    4114.0953            9 
   84400   0.96347937   -6.3684525    4109.0572            5 
   84500   0.92941218   -6.3661665     4112.998           12 
   84600   0.93144806   -6.3316379    4119.5846           12 
   84700   0.95009969   -6.3326952    4112.9071            5 
   84800   0.94391324   -6.3357073    4125.4803            8 
   84900   0.94397221   -6.3492546     4120.776           12 
   85000   0.93512292   -6.3338837    4116.7304           11 
   85100   0.95628001   -6.3423922    4118.9249           14 
   85200   0.94159369   -6.3385085    4114.1862            6 
   85300   0.96562473   -6.3741673     4112.605            8 
   85400   0.95912331   -6.3392932    4119.1116            6 
   85500   0.95229408   -6.3714731    4114.8508           17 
   85600    0.9626897   -6.3780323     4112.242           16 
   85700   0.96918442   -6.3537536    4118.9171            8 
   85800   0.97951127   -6.3344584    4127.9776           11 
   85900   0.96674692   -6.3597802    4109.9153           10 
   86000   0.94487784   -6.3659973    4102.2347           12 
   86100   0.95113441   -6.3657836    4109.9418            9 
   86200   0.95076486   -6.3287516    4118.3014           22 
   86300   0.96163261   -6.3443744    4125.3243           27 
   86400   0.94368578   -6.3734251    4117.8751           12 
   86500   0.96289191    -6.377952    4113.6313            9 
   86600   0.93185147    -6.386567    4105.9546            6 
   86700   0.94091898    -6.380587    4122.9107            8 
   86800   0.95594236   -6.3579473    4113.1135            8 
   86900   0.95614811   -6.3468103    4104.8638           11 
   87000   0.97736755   -6.3450091    4111.9799            7 
   87100   0.95854599   -6.3730515    4108.1071            5 
   87200   0.94418442   -6.3772854    4104.0008            4 
   87300   0.95869453   -6.3485027    4115.6657            8 
   87400   0.94953113   -6.3679153    4114.1659            3 
   87500   0.94750414   -6.3556092    4109.7047            5 
   87600   0.94752876    -6.339556    4117.2927            5 
   87700   0.95923802   -6.3243795    4112.5531            8 
   87800   0.96592998   -6.3720524    4104.9421            5 
   87900   0.93611647   -6.3505772    4115.0862            5 
   88000    0.9457426   -6.3476289    4118.4841            8 
   88100   0.94859887   -6.3678574    4103.5744           19 
   88200   0.94911248   -6.3867729    4106.1477           13 
   88300   0.93107713   -6.3437303    4113.5285            9 
   88400    0.9594121    -6.377598    4111.2195           10 
   88500   0.95166817   -6.4038154     4102.531            7 
   88600   0.94314029   -6.4009584    4091.1672            9 
   88700   0.94090877   -6.3582951    4110.1612           10 
   88800   0.95119853   -6.3488737    4118.5049            6 
   88900   0.94832215   -6.3245195    4129.8953           11 
   89000   0.94809646   -6.3253329    4120.6572            6 
   89100   0.95060185   -6.3412202    4109.4167            5 
   89200   0.93170178   -6.3407289    4106.9303            6 
   89300   0.95675893   -6.3871705    4088.5855           11 
   89400   0.95959733   -6.3566209    4114.9268            8 
   89500    0.9527646   -6.3381691    4121.1697           15 
   89600   0.93546623    -6.353741    4121.5951            3 
   89700   0.93811936   -6.3585661    4118.1668           18 
   89800   0.95431029   -6.3534901    4122.0697            9 
   89900   0.93423256   -6.3746887    4115.2938           14 
   90000   0.95843204   -6.3999571    4107.4674           12 
   90100   0.95677601   -6.3604213    4114.1031           14 
   90200   0.97842455   -6.3753537     4118.132           14 
   90300   0.94531108   -6.3704961    4119.3716           11 
   90400   0.96106231   -6.3757148    4124.5038            4 
   90500   0.94241934   -6.3858845    4109.4023            9 
   90600   0.97135675   -6.3803611    4115.2779           14 
   90700   0.94493774    -6.366547    4120.4406           21 
   90800   0.95168738   -6.3372243    4116.9093           20 
   90900   0.93654115   -6.3133419    4118.3042           14 
   91000    0.9480546    -6.319153    4121.3325           18 
   91100   0.95639853   -6.3603849    4108.3569           15 
   91200   0.94518436   -6.3718325    4108.2197           10 
   91300   0.93706535   -6.3286961    4114.4149           13 
   91400   0.95449528   -6.3404383    4122.1988           22 
   91500    0.9753146   -6.3684004    4110.9349           23 
   91600   0.94085844   -6.3657095    4103.4965           17 
   91700   0.93989281   -6.3393213     4110.549           11 
   91800   0.96417069   -6.3454626    4132.6417            9 
   91900   0.95859133   -6.3587281    4120.6089           17 
   92000   0.96092476   -6.3705296     4121.925           12 
   92100   0.95158183   -6.3256364    4130.2863            8 
   92200   0.93921143   -6.3196104    4128.6016            6 
   92300   0.93580664   -6.3295296    4117.7981            8 
   92400   0.95113003   -6.3589923    4118.3677            7 
   92500   0.94458916   -6.3251974    4123.6615            5 
   92600   0.95315835   -6.3385437    4128.5815            4 
   92700   0.92696021   -6.3412454    4122.5956            5 
   92800   0.97875318   -6.3930222     4132.474            8 
   92900   0.93348386   -6.3446955     4132.896            4 
   93000    0.9464485   -6.3714992    4121.5446            6 
   93100   0.94027327   -6.3882301    4112.9343           10 
   93200   0.93918857   -6.3569647    4119.1515            8 
   93300   0.93993591    -6.364876    4128.0904            6 
   93400   0.91919086   -6.3810618    4122.1859           12 
   93500    0.9491979   -6.3637195    4115.6987            7 
   93600   0.93977873   -6.3696964    4120.0027            5 
   93700   0.94653273   -6.3739536    4119.2364            7 
   93800   0.96021388    -6.344076    4125.6553            5 
   93900   0.95471166   -6.3839791    4121.7397           10 
   94000   0.93335372   -6.3930528    4118.1175            8 
   94100   0.95930029   -6.3957387    4119.4972           13 
   94200   0.94079583   -6.3656619    4117.5401           16 
   94300   0.96474644   -6.3556391    4127.5002           17 
   94400   0.95100717   -6.3557873    4116.0741            9 
   94500   0.93918507   -6.3591033    4115.2202            7 
   94600   0.97285182   -6.3524875     4117.686            5 
   94700   0.96183702   -6.3611146    4114.8312            5 
   94800    0.9461982   -6.3820314    4111.6855            5 
   94900    0.9596079   -6.3654785     4114.225            4 
   95000   0.97841293   -6.3707405     4107.999            8 
   95100   0.96820743   -6.3980349    4099.8169            6 
   95200   0.95286086   -6.3805952    4107.7602           15 
   95300   0.95314204   -6.3587872    4110.5954            9 
   95400   0.93715722    -6.369896    4118.4602            7 
   95500   0.94790927   -6.3589582    4134.9558           11 
   95600    0.9372711   -6.3111325    4130.5813            9 
   95700   0.96427708   -6.3814577    4116.0108           11 
   95800   0.95818929   -6.4078792    4110.0959           14 
   95900    0.9574148   -6.4033551     4115.187           14 
   96000   0.95296371   -6.3676896    4111.3729            9 
   96100   0.94329833    -6.380613       4107.2           10 
   96200   0.96626524   -6.3975928    4098.7766           20 
   96300   0.93578924   -6.3809196    4095.5061           17 
   96400   0.94448776   -6.3619176    4107.0223           10 
   96500   0.95591659   -6.3691971    4111.5841           14 
   96600   0.96759477   -6.3672931    4126.5167            7 
   96700   0.94777752   -6.3641262    4110.4245           13 
   96800   0.95292645   -6.4011731    4109.4541            7 
   96900   0.96435396   -6.3866786     4109.688           12 
   97000   0.93345828   -6.3967783    4106.1784            6 
   97100   0.95159863   -6.3936028    4107.3531           10 
   97200   0.94179606   -6.3820309    4116.0312            5 
   97300   0.94773282    -6.351958    4115.6264            6 
   97400   0.94378883    -6.375381    4110.1972           13 
   97500   0.95248324   -6.3951644    4106.1736            6 
   97600   0.95366666   -6.3396263    4114.0568           13 
   97700   0.95257425    -6.379306    4103.3637           14 
   97800   0.94714605    -6.376829    4105.6526            6 
   97900   0.95025973   -6.3618977    4113.9881            5 
   98000   0.96501559   -6.3754056     4125.712            4 
   98100   0.93666677   -6.3590014    4112.6103            8 
   98200   0.93307958   -6.3649931    4117.1431            8 
   98300   0.94956666   -6.3661937    4124.0515            3 
   98400   0.93575163   -6.3864919    4115.9562           10 
   98500   0.95386722   -6.3755609     4117.149           10 
   98600   0.94847084   -6.3564239    4122.4793            8 
   98700   0.93624542   -6.3628093    4110.9667           14 
   98800   0.94928727    -6.373852    4108.5992            8 
   98900   0.95009695   -6.3542259    4123.5836           12 
   99000   0.95029305   -6.3698258    4117.1375            6 
   99100   0.92143156   -6.3597004    4117.2751            8 
   99200   0.94944864   -6.3468226    4119.3693            9 
   99300   0.93758874   -6.3641989     4111.443            8 
   99400   0.92779692   -6.3848528    4100.2789           17 
   99500   0.93274274   -6.3719292    4115.4337           12 
   99600   0.95268291   -6.3658988    4124.9984           22 
   99700   0.92972054   -6.3654867    4111.9258            8 
   99800   0.95373038   -6.3864914    4115.4641            7 
   99900   0.95769242   -6.3511449    4123.1205            9 
  100000   0.98677412   -6.3661152    4112.4142            7 
  100100   0.95417284    -6.375203    4113.9663            7 
  100200   0.93250066    -6.371222    4120.8237           11 
  100300   0.93505923   -6.3532913    4124.6043           10 
  100400   0.97067289   -6.3612425    4135.6045            4 
  100500   0.94802593    -6.344694    4125.8333            5 
  100600   0.98042136   -6.3744141    4115.5136           10 
  100700   0.94875635   -6.3725548    4107.5959           13 
  100800   0.94872096    -6.347854    4116.8707            5 
  100900   0.96429818   -6.3445747    4122.7749            4 
  101000   0.94749086   -6.3407869    4116.7832            3 
  101100   0.96642218   -6.3622932    4115.9753            4 
  101200   0.93144863   -6.3193651     4120.569            5 
  101300   0.94888685   -6.3667593    4119.1876            8 
  101400   0.93628893   -6.3682145    4116.6371            5 
  101500   0.95392339   -6.3537548    4122.6844            4 
  101600   0.94712884   -6.3723318    4109.2313           11 
  101700   0.94488544   -6.3696605     4110.765           10 
  101800   0.94147917   -6.3547536    4112.5527            5 
  101900   0.95116395   -6.3637716     4107.472            5 
  102000   0.94993806   -6.3886061    4107.3872            8 
  102100   0.96620308   -6.3777767    4107.7289            8 
  102200   0.97699974    -6.346348    4123.4123            5 
  102300   0.94929289   -6.3413093     4117.951            6 
  102400   0.94162304   -6.3360814    4111.5109            8 
  102500   0.97034483   -6.3241364    4119.2971           10 
  102600   0.95738523   -6.3330535     4124.468           10 
  102700   0.94708806   -6.3501977    4116.0175            5 
  102800   0.94292294   -6.3417235    4114.1618            4 
  102900   0.96355366    -6.345567     4115.685            5 
  103000   0.95394776   -6.3418622    4111.2056            9 
  103100   0.94735171   -6.3406853    4113.0223            6 
  103200   0.94447361   -6.3730626    4104.5829            6 
  103300   0.93674604    -6.362209    4106.0597            6 
  103400   0.95288036   -6.3630285    4120.6316            4 
  103500     0.961234   -6.3513958    4121.9885            5 
  103600   0.95706794   -6.3583145     4121.101            9 
  103700   0.95891313   -6.3741957    4111.1844            6 
  103800   0.93147505   -6.3460946    4107.7549            8 
  103900   0.95387097   -6.4022073    4108.5272           11 
  104000   0.93639205    -6.405068    4110.8905            8 
Loop time of 291.526 on 18 procs for 100000 steps with 4000 atoms

Performance: 59274.373 tau/day, 343.023 timesteps/s
99.7% CPU use with 18 MPI tasks x no OpenMP threads

MPI task timing breakdown:
Section |  min time  |  avg time  |  max time  |%varavg| %total
---------------------------------------------------------------
Pair    | 36.897     | 38.797     | 41.125     |  16.4 | 13.31
Neigh   | 4.5268     | 4.6099     | 4.695      |   2.4 |  1.58
Comm    | 12.03      | 14.526     | 17.866     |  41.1 |  4.98
Output  | 5.7972     | 5.7988     | 5.8142     |   0.2 |  1.99
Modify  | 221.48     | 224.49     | 228        |  13.5 | 77.01
Other   |            | 3.301      |            |       |  1.13

Nlocal:        222.222 ave         234 max         211 min
Histogram: 1 0 1 6 0 6 3 0 0 1
Nghost:        2321.67 ave        2356 max        2293 min
Histogram: 1 1 2 4 3 3 3 0 0 1
Neighs:        24718.1 ave       25793 max       23608 min
Histogram: 3 1 2 1 0 4 2 0 2 3
FullNghs:      49438.0 ave       52207 max       46873 min
Histogram: 1 0 1 4 2 6 3 0 0 1

Total # of neighbors = 889884
Ave neighs/atom = 222.47100
Neighbor list builds = 5817
Dangerous builds = 0

#clear
#
#next RN
#
#jump SELF
Total wall time: 0:04:53
