
units lj                  # Use reduced LJ style units
atom_style atomic         # Uncharged point particles
atom_modify map hash      # Needed for indexing of clusters etc
                          # Used to be able to find where atoms are in relation to each other.

# Define a lattice with which to populate the simulation cell. With units
# set to 'lj' the second argument to the lattice command is the reduced
# density rho* and the spacings are multiples of that required to acheive
# that density. Also define a simulation cell called 'box' in lattice units
# and fill it with atoms. Here we're creating a box which is ten lattice
# constants in each direction.
lattice fcc 1.0 spacing 1 1 1                 # All equal sizes - gives the right reduced density.
Lattice spacing in x,y,z = 1.5874011 1.5874011 1.5874011

region box block 0 10 0 10 0 10 units lattice # Defines a region, "box", in lattice units
create_box 1 box                              # Creates a simulation box as specified above,
Created orthogonal box = (0.0000000 0.0000000 0.0000000) to (15.874011 15.874011 15.874011)
  2 by 3 by 4 MPI processor grid
                                              # with one type of atom
create_atoms 1 box                            # Creates particles on lattice points
Created 4000 atoms
  using lattice units in orthogonal box = (0.0000000 0.0000000 0.0000000) to (15.874011 15.874011 15.874011)
  create_atoms CPU = 0.002 seconds


# Set the mass of the first (and only) atom type.
mass 1 1.0

# Lennard-Jones interactions between particles, 3.5 sigma cut-off. Apply
# long range tail corrections to energy and pressure and set all coefficients
# to unity since we work in reduced units here. Note that this doesn't shift
# the potential such that it goes to zero at the cutoff. That would require
# pair_modify('shift', 'yes').
pair_style lj/cut  3.5      # non-GPU version
pair_modify tail  yes
pair_coeff 1  1  1.0  1.0   # Intearaction between 1 and 1 set with epsilon = 1 and sigma = 1

write_data data.*
System init for write_data ...
Neighbor list info ...
  update every 1 steps, delay 10 steps, check yes
  max neighbors/atom: 2000, page size: 100000
  master list distance cutoff = 3.8
  ghost atom cutoff = 3.8
  binsize = 1.9, bins = 9 9 9
  1 neighbor lists, perpetual/occasional/extra = 1 0 0
  (1) pair lj/cut, perpetual
      attributes: half, newton on
      pair build: half/bin/atomonly/newton
      stencil: half/bin/3d
      bin: standard

#############################
#   M E L T   S Y S T E M   #
#############################

velocity all create 2.4 1741580 mom yes dist gaussian # Assign velocities
                                                    # Temperature 2.4, random number seed, zero linear momentum
						                                                        # Gaussian distribution

timestep 0.002   # simulation timestep
thermo 100       # output thermodynamic data every 100 steps

# Define a fix  in this case with index 1 applied to all
# particles in the simulation. This fix is for simulations
# in the anisotropic NPT ensemble. Note that we use the MTK
# correction.
fix 1 all npt temp 2.4 2.4 0.1 iso 5.68 5.68 0.5 mtk yes tchain 5 pchain 5 # Use NPT ensemble
                                                                         # Set temperature and pressure and damping
                                                                         # Numbers of thermostats in chain and in barostat
run 1000         # run for 10000 steps
Per MPI rank memory allocation (min/avg/max) = 3.676 | 3.679 | 3.684 Mbytes
Step Temp E_pair E_mol TotEng Press Volume 
       0          2.4   -8.3859253            0   -4.7868253   -2.2405722         4000 
     100    1.2552531   -6.5115672            0   -4.6291582     5.497081    4088.0579 
     200    1.4628633    -6.289567            0   -4.0958206    6.0903972    4138.0466 
     300    1.5904925   -6.0345783            0   -3.6494359    5.7376042    4272.4771 
     400    1.6850752   -5.7072351            0   -3.1802542    5.9705826    4399.2373 
     500    1.7895599   -5.4225046            0   -2.7388358     5.865757    4546.8704 
     600    1.8965854   -5.1442855            0   -2.3001186     5.865539    4691.2751 
     700    2.0304439     -4.92263            0   -1.8777256    5.8141752    4830.4151 
     800    2.1710171   -4.7567122            0   -1.5010006    5.6106115    4968.6247 
     900    2.2247838   -4.5230698            0   -1.1867284    5.8051376    5086.8715 
    1000     2.364264   -4.4348938            0  -0.88938446    5.9115751    5144.0032 
Loop time of 0.319179 on 24 procs for 1000 steps with 4000 atoms

Performance: 541389.056 tau/day, 3133.039 timesteps/s
99.4% CPU use with 24 MPI tasks x no OpenMP threads

MPI task timing breakdown:
Section |  min time  |  avg time  |  max time  |%varavg| %total
---------------------------------------------------------------
Pair    | 0.17549    | 0.18589    | 0.1965     |   1.2 | 58.24
Neigh   | 0.033667   | 0.035284   | 0.037263   |   0.4 | 11.05
Comm    | 0.062596   | 0.073885   | 0.084994   |   2.0 | 23.15
Output  | 0.00021148 | 0.00022037 | 0.00028049 |   0.0 |  0.07
Modify  | 0.01927    | 0.021696   | 0.02347    |   0.9 |  6.80
Other   |            | 0.002201   |            |       |  0.69

Nlocal:        166.667 ave         176 max         152 min
Histogram: 1 0 2 0 3 4 6 4 3 1
Nghost:        1840.88 ave        1857 max        1826 min
Histogram: 3 1 3 4 1 2 4 4 0 2
Neighs:        14784.9 ave       15702 max       13755 min
Histogram: 2 1 1 5 1 3 5 0 4 2

Total # of neighbors = 354837
Ave neighs/atom = 88.709250
Neighbor list builds = 86
Dangerous builds = 16

# Equilibrate just above the melting temperature to avoid step fn in T

fix 1 all npt temp 1.25 1.25 0.1 iso 5.68 5.68 0.5 mtk yes tchain 5 pchain 5
run 1000
Per MPI rank memory allocation (min/avg/max) = 3.677 | 3.680 | 3.685 Mbytes
Step Temp E_pair E_mol TotEng Press Volume 
    1000     2.364264   -4.4348938            0  -0.88938446    5.9115751    5144.0032 
    1100    1.9499649   -4.6617779            0   -1.7375618    5.8205171    4978.7844 
    1200    1.7213197   -4.9482774            0   -2.3669434    5.7402188    4808.4294 
    1300    1.5721809   -5.1954201            0   -2.8377383    5.7003773    4667.9329 
    1400    1.4692769   -5.4052033            0   -3.2018389    5.6740098     4560.708 
    1500    1.3897296   -5.5637068            0   -3.4796336    5.6667574    4476.2103 
    1600    1.2963572   -5.6470084            0   -3.7029588    5.6441736    4434.9383 
    1700    1.2716936   -5.7363737            0   -3.8293102    5.7159049    4387.6158 
    1800    1.2561313   -5.8008832            0   -3.9171572    5.6027564    4366.0004 
    1900     1.242552   -5.8327759            0   -3.9694139    5.6800198    4347.3872 
    2000    1.2686809   -5.8614487            0   -3.9589031    5.5394068    4347.1855 
Loop time of 0.311313 on 24 procs for 1000 steps with 4000 atoms

Performance: 555067.640 tau/day, 3212.197 timesteps/s
99.8% CPU use with 24 MPI tasks x no OpenMP threads

MPI task timing breakdown:
Section |  min time  |  avg time  |  max time  |%varavg| %total
---------------------------------------------------------------
Pair    | 0.18073    | 0.18476    | 0.19216    |   0.7 | 59.35
Neigh   | 0.03064    | 0.031307   | 0.032314   |   0.2 | 10.06
Comm    | 0.065152   | 0.071497   | 0.076044   |   1.2 | 22.97
Output  | 0.00021757 | 0.0002226  | 0.00027876 |   0.0 |  0.07
Modify  | 0.019297   | 0.021049   | 0.022352   |   0.5 |  6.76
Other   |            | 0.002478   |            |       |  0.80

Nlocal:        166.667 ave         176 max         159 min
Histogram: 1 1 7 1 4 5 1 3 0 1
Nghost:        2035.25 ave        2048 max        2013 min
Histogram: 1 0 2 0 4 2 5 1 6 3
Neighs:        17526.7 ave       18387 max       16728 min
Histogram: 3 2 3 3 2 3 1 2 2 3

Total # of neighbors = 420641
Ave neighs/atom = 105.16025
Neighbor list builds = 76
Dangerous builds = 5


# Small amount of linear quench

fix 1 all npt temp 1.25 ${temp} 0.1 iso 5.68 5.68 0.5 mtk yes tchain 5 pchain 5
fix 1 all npt temp 1.25 0.13 0.1 iso 5.68 5.68 0.5 mtk yes tchain 5 pchain 5
run 2000
Per MPI rank memory allocation (min/avg/max) = 3.677 | 3.680 | 3.685 Mbytes
Step Temp E_pair E_mol TotEng Press Volume 
    2000    1.2686809   -5.8614487            0   -3.9589031    5.5394068    4347.1855 
    2100    1.2130875   -5.8559137            0   -4.0367374    5.6446008    4336.0795 
    2200     1.180555   -5.9105885            0   -4.1401988    5.5478983    4321.9683 
    2300    1.1481073    -5.972222            0   -4.2504915    5.5230886    4296.2364 
    2400    1.1103803   -6.0275004            0   -4.3623464    5.7152486    4253.3625 
    2500    1.0625278   -6.0971825            0   -4.5037893    5.7966523    4217.6779 
    2600    1.0057695    -6.179439            0    -4.671162    5.6438025    4190.3095 
    2700   0.94690603   -6.2589561            0   -4.8389521      5.61673    4161.0198 
    2800   0.90106817   -6.3474344            0   -4.9961701    5.6285393     4123.159 
    2900   0.84513861   -6.4169297            0   -5.1495388    5.7587765    4084.0552 
    3000   0.78364836   -6.4970427            0    -5.321864    5.6760477    4057.8954 
    3100   0.74053756    -6.584322            0   -5.4737934    5.8257046    4015.5203 
    3200   0.69974752   -6.6863872            0   -5.6370283    5.5960384    3989.9898 
    3300   0.64274934   -6.7713861            0   -5.8075032    5.5602823    3960.9656 
    3400   0.58793074   -6.8513367            0    -5.969661    5.6583292    3926.1418 
    3500   0.54063096   -6.9362662            0   -6.1255225    5.7263839    3890.8061 
    3600   0.47830856   -7.0163118            0   -6.2990283    5.5840963    3870.3418 
    3700   0.42874724   -7.1055856            0   -6.4626255    5.4955655     3846.281 
    3800     0.369932   -7.1768251            0   -6.6220659    5.4879493    3820.3197 
    3900   0.31606832   -7.2461756            0   -6.7721917    5.5775881    3791.6796 
    4000   0.26730455   -7.3245008            0   -6.9236442    5.5540044    3767.6436 
Loop time of 0.660162 on 24 procs for 2000 steps with 4000 atoms

Performance: 523507.573 tau/day, 3029.558 timesteps/s
99.8% CPU use with 24 MPI tasks x no OpenMP threads

MPI task timing breakdown:
Section |  min time  |  avg time  |  max time  |%varavg| %total
---------------------------------------------------------------
Pair    | 0.40405    | 0.41687    | 0.43201    |   1.0 | 63.15
Neigh   | 0.04344    | 0.044852   | 0.046112   |   0.3 |  6.79
Comm    | 0.13227    | 0.14864    | 0.16039    |   1.9 | 22.52
Output  | 0.00041803 | 0.00043122 | 0.00055859 |   0.0 |  0.07
Modify  | 0.038854   | 0.042798   | 0.046251   |   1.1 |  6.48
Other   |            | 0.00657    |            |       |  1.00

Nlocal:        166.667 ave         173 max         162 min
Histogram: 5 2 2 2 4 2 3 1 2 1
Nghost:        2230.79 ave        2244 max        2212 min
Histogram: 1 2 1 1 2 5 4 2 1 5
Neighs:        20428.4 ave       21183 max       19368 min
Histogram: 2 1 2 1 3 3 2 3 3 4

Total # of neighbors = 490282
Ave neighs/atom = 122.57050
Neighbor list builds = 104
Dangerous builds = 0

#############################
# F R E E Z E  S Y S T E M  #
#############################

# Define solid atoms. This closely follows ten Wolde  Ruiz-Montero and Frenkel  Faraday Discuss  1996  104  93-110
# Compute components of the per-atom q6 vector
compute q6 all orientorder/atom degrees 1 6 components 6 nnn NULL cutoff 1.3 # compute the Q6 parameter.
                                                                             # Use all neighbours within 1.3 unit cell.

# get number of connections
compute coord_number all coord/atom orientorder q6 0.5

# An atom is solid if it has 8 or more connections (of a possible 14)
variable is_solid atom c_coord_number>=8
group solid dynamic all var is_solid    # Must be dynamic to update
dynamic group solid defined

# do clustering
compute cluster solid cluster/atom 1.3 # Create a cluster where all atoms within are solid and max 1.3 units from another member

# define chunks one chunk per cluster
compute clus_chunks solid chunk/atom c_cluster nchunk every compress yes  # Says which atoms are in which chunk

# count the size of each chunk
compute size_chunks solid property/chunk clus_chunks count


# Find the maximum entry in the vector of chunk sizes
variable max_n equal max(c_size_chunks)


# Thermo style which includes this variable
thermo_style custom step temp pe vol v_max_n

thermo ${N}  # Print the thermo information every 100 steps
thermo 100  

# Reset the npt fix at a lower temperature (below freezing)
fix 1  all npt temp  ${temp} ${temp}  0.1  iso  5.68  5.68  0.5  mtk yes tchain  5  pchain  5
fix 1  all npt temp  0.13 ${temp}  0.1  iso  5.68  5.68  0.5  mtk yes tchain  5  pchain  5
fix 1  all npt temp  0.13 0.13  0.1  iso  5.68  5.68  0.5  mtk yes tchain  5  pchain  5

dump dmp2 all dcd ${N} traj_${rand}.dcd
dump dmp2 all dcd 100 traj_${rand}.dcd
dump dmp2 all dcd 100 traj_462431.dcd


# fix rnuntil all halt ${N} v_max_n >= 3980 error soft message no   # Stop when solidified


run 100000 # 5000000  # Run for this many steps
Neighbor list info ...
  update every 1 steps, delay 10 steps, check yes
  max neighbors/atom: 2000, page size: 100000
  master list distance cutoff = 3.8
  ghost atom cutoff = 3.8
  binsize = 1.9, bins = 9 9 9
  4 neighbor lists, perpetual/occasional/extra = 1 3 0
  (1) pair lj/cut, perpetual
      attributes: half, newton on
      pair build: half/bin/atomonly/newton
      stencil: half/bin/3d
      bin: standard
  (2) compute orientorder/atom, occasional
      attributes: full, newton on
      pair build: full/bin/atomonly
      stencil: full/bin/3d
      bin: standard
  (3) compute coord/atom, occasional
      attributes: full, newton on
      pair build: full/bin/atomonly
      stencil: full/bin/3d
      bin: standard
  (4) compute cluster/atom, occasional
      attributes: full, newton on
      pair build: full/bin/atomonly
      stencil: full/bin/3d
      bin: standard
Per MPI rank memory allocation (min/avg/max) = 9.523 | 9.528 | 9.534 Mbytes
Step Temp PotEng Volume v_max_n 
    4000   0.26730455   -7.3245008    3767.6436           32 
    4100   0.22482144   -7.3751488     3749.735           27 
    4200   0.19425986   -7.4198632    3735.2392           38 
    4300   0.17223923   -7.4522898    3724.0898           51 
    4400   0.15645019   -7.4768823    3715.1393           35 
    4500   0.14575202     -7.49667    3707.7033           39 
    4600   0.13867914   -7.5122759     3701.962           38 
    4700   0.13342963   -7.5235843    3699.1349           35 
    4800   0.13091983   -7.5306822    3697.0886           46 
    4900   0.13170643   -7.5382845    3694.4177           61 
    5000   0.13085236   -7.5421242    3694.0297           41 
    5100   0.13155607   -7.5440126     3694.118           51 
    5200   0.13225116   -7.5461113    3693.3639           52 
    5300   0.12871493   -7.5461536    3692.4866           42 
    5400   0.12900933   -7.5478289    3693.3538           39 
    5500   0.13002374   -7.5521293    3690.6933           39 
    5600   0.13080341   -7.5543906    3689.3639           79 
    5700   0.12981753   -7.5530104    3688.3408           41 
    5800   0.12989549   -7.5543389    3688.1111           46 
    5900   0.12931947   -7.5597174    3686.1011           53 
    6000   0.13090606    -7.561832    3685.9486           56 
    6100   0.13064289   -7.5614445     3686.186           43 
    6200   0.13069309   -7.5615377     3685.679           45 
    6300   0.12825852   -7.5622697    3685.4147           74 
    6400   0.13236331   -7.5652023    3684.7773           77 
    6500   0.12902949   -7.5630142     3685.684           82 
    6600   0.12812829   -7.5662215    3684.0001           46 
    6700   0.13153739   -7.5626685    3683.7725           50 
    6800    0.1300908   -7.5599077    3682.3119           46 
    6900   0.12922208    -7.562587    3680.1977           70 
    7000    0.1287522   -7.5591457    3679.2704           75 
    7100   0.13153938   -7.5618576    3679.8167           46 
    7200   0.13107074   -7.5694894    3679.9439           61 
    7300   0.12882063   -7.5693609     3682.225           54 
    7400   0.13200005     -7.57053    3682.5235           47 
    7500   0.13219146   -7.5690164    3683.3452           40 
    7600   0.13125141   -7.5722008    3681.8733           45 
    7700   0.12800341    -7.571041     3681.803           43 
    7800   0.12615287   -7.5726781    3682.3315           50 
    7900   0.12897764   -7.5718213    3682.3885          112 
    8000   0.13052986   -7.5706099    3681.8341          114 
    8100   0.12774922   -7.5756733    3679.9653           97 
    8200   0.12936545   -7.5721648    3678.9847          131 
    8300   0.12947605   -7.5709727    3679.7673           69 
    8400   0.12947283    -7.576829    3678.6254           58 
    8500   0.12834061   -7.5750733    3680.6495           72 
    8600   0.12961679   -7.5759571    3681.5525          120 
    8700   0.12882009    -7.581172    3681.0531          104 
    8800   0.13002082   -7.5822304    3681.1914          118 
    8900   0.12947972   -7.5805513    3683.2398           66 
    9000   0.12928336   -7.5817921    3683.4109           99 
    9100   0.12847725   -7.5863521    3681.9887           70 
    9200   0.12970232   -7.5815911    3683.7589           46 
    9300   0.13239854   -7.5839069    3683.2785           88 
    9400   0.13016694   -7.5880666    3682.7475          107 
    9500   0.13223011    -7.586634    3683.0907          103 
    9600    0.1309671   -7.5869074    3684.3307          119 
    9700    0.1280852   -7.5885029    3684.4155          110 
    9800    0.1291189   -7.5900228      3685.92           95 
    9900   0.13041762   -7.5902615    3687.2656          109 
   10000   0.12924787   -7.5881974     3687.517          204 
   10100   0.12897799   -7.5899136     3685.052          119 
   10200   0.12934026    -7.586605    3683.7816           92 
   10300    0.1314395   -7.5861871    3683.4261           93 
   10400    0.1259243   -7.5849722     3682.664           57 
   10500   0.13219827   -7.5869115    3682.4361           52 
   10600   0.12735707   -7.5883847    3682.7695           60 
   10700   0.12874945   -7.5875256    3681.9203           52 
   10800   0.13035112    -7.584905    3681.7492           58 
   10900   0.13050099   -7.5850265     3681.294           50 
   11000   0.12962783   -7.5868015    3679.4399           58 
   11100   0.12832514   -7.5842049    3679.9242           57 
   11200   0.13089447   -7.5846303    3677.4877           70 
   11300   0.12899547   -7.5860395    3676.3141           99 
   11400   0.12906544   -7.5809509    3676.8076          131 
   11500   0.12895015   -7.5827437    3675.3219          186 
   11600   0.12716198   -7.5865199    3675.9544          139 
   11700   0.13020256   -7.5832312    3677.0251          164 
   11800    0.1303864   -7.5861068    3678.1299           71 
   11900   0.12893819   -7.5902737    3677.0509          106 
   12000   0.13006704   -7.5861888    3677.9096          164 
   12100   0.13070276   -7.5867054    3677.2749          169 
   12200   0.12929604   -7.5874649    3676.3567           93 
   12300   0.13016506   -7.5890237    3675.1753          178 
   12400   0.12887149   -7.5917665    3674.3168          146 
   12500   0.13022937   -7.5879763    3674.9363          130 
   12600   0.12989051   -7.5872713    3674.3252          136 
   12700   0.12893003   -7.5901138    3671.4118          158 
   12800   0.13001008   -7.5845283    3670.9611          117 
   12900   0.13213176   -7.5871149    3669.8117           98 
   13000   0.12937475   -7.5912018    3673.4469          193 
   13100   0.13138871   -7.5890838    3676.3789          285 
   13200   0.13068885   -7.5937227    3675.9383          140 
   13300   0.12978592    -7.596361    3676.1651          241 
   13400   0.13254358   -7.5988109    3676.2196          193 
   13500   0.13066652   -7.5981644    3676.5404          298 
   13600   0.12935422   -7.6009197    3676.1769          211 
   13700   0.13087582   -7.6004557    3676.2453          215 
   13800   0.13057813   -7.6014381    3676.9407          258 
   13900   0.13283335   -7.5990822    3678.2565          240 
   14000   0.13226383   -7.6062214    3677.7504          257 
   14100   0.13009151   -7.6089545    3678.0713          221 
   14200   0.13153935   -7.6088904    3678.4159          221 
   14300   0.13129689   -7.6070211    3679.4268          266 
   14400   0.12806044   -7.6061541    3678.2582          147 
   14500    0.1308177   -7.6048791     3678.251          257 
   14600   0.13018094   -7.6034154    3678.8238          257 
   14700   0.12924315   -7.6071969      3677.22          252 
   14800   0.13046035   -7.6076634    3676.3959          260 
   14900   0.13130763   -7.6048031    3675.8351          261 
   15000   0.13005114   -7.6083528     3673.815          282 
   15100   0.12985706   -7.6074643    3673.5364          223 
   15200   0.12832195   -7.6060951    3674.3847          231 
   15300   0.13143873   -7.6048935    3674.3767          246 
   15400   0.12865345   -7.6077248    3673.7725          269 
   15500   0.13306558   -7.6111506    3671.6845          283 
   15600   0.13017868   -7.6049868    3672.6436          167 
   15700   0.13261802    -7.603037    3672.0923          140 
   15800   0.12986141   -7.6055549    3670.7087          230 
   15900   0.13066672   -7.6020196    3670.6622          354 
   16000    0.1293663    -7.604161    3670.7321          179 
   16100   0.12966691   -7.6064773    3670.7327          131 
   16200   0.13106674   -7.6016265    3672.5233          193 
   16300   0.13067391   -7.6059071    3672.5825          123 
   16400   0.12750149   -7.6067605    3672.8489          208 
   16500   0.12946035   -7.6046022    3674.2414          257 
   16600   0.13260467   -7.6052787    3674.2072          298 
   16700   0.12871115   -7.6062779    3673.2699          304 
   16800   0.12962272   -7.6102642    3671.7794          303 
   16900   0.12813871   -7.6109189    3671.8189          398 
   17000    0.1302644   -7.6079062    3672.8156          303 
   17100   0.13104471    -7.608035    3673.8284          208 
   17200    0.1280303   -7.6111784    3673.1654          241 
   17300    0.1325909   -7.6128746    3673.9367          346 
   17400   0.12947147   -7.6097663    3675.3951          439 
   17500   0.13050497   -7.6125013     3674.861          276 
   17600   0.12903876   -7.6167626    3675.6818          291 
   17700   0.13028532   -7.6128774    3677.6944          294 
   17800   0.12996286   -7.6131015    3676.9679          323 
   17900   0.12894466   -7.6135573    3675.3723          323 
   18000   0.13058653   -7.6117071    3675.4117          281 
   18100   0.12791739   -7.6117085    3675.0332          231 
   18200   0.12835818   -7.6117504    3674.8368          186 
   18300   0.12987153   -7.6105408    3674.9537          103 
   18400   0.12942634   -7.6122074    3674.8669          202 
   18500   0.12973546   -7.6124814    3674.5862          125 
   18600   0.12939477   -7.6139402    3673.8743          130 
   18700    0.1310352    -7.616136    3674.6273          216 
   18800   0.13077739   -7.6132893     3676.616          296 
   18900   0.12751755   -7.6155848    3675.6381          191 
   19000   0.12868017   -7.6121394    3675.0184          103 
   19100   0.12978417   -7.6106379    3673.8509          112 
   19200   0.12883707   -7.6138979     3671.675          175 
   19300   0.12849057    -7.608043    3673.3057          168 
   19400   0.13225418    -7.608683    3671.9316          165 
   19500   0.12955553   -7.6105931    3671.1506          141 
   19600   0.12990562   -7.6097257    3670.7023          131 
   19700   0.12996266   -7.6064244    3671.6562          184 
   19800   0.12726502   -7.6062903    3670.8028          199 
   19900     0.129623    -7.604255    3671.2824          209 
   20000   0.13068304   -7.6041079    3670.2962          215 
   20100   0.12820441   -7.6045546    3670.0775          193 
   20200   0.12924531    -7.604182     3669.668          195 
   20300   0.13401733   -7.6049727    3668.5633          198 
   20400   0.12965253   -7.6059985    3667.5993          129 
   20500   0.12918577   -7.6049052    3667.5568          200 
   20600   0.13066492   -7.6047675    3667.4323          250 
   20700   0.13331957   -7.6063112    3667.6932          198 
   20800   0.12746521   -7.6096983    3669.0046          176 
   20900   0.13050565   -7.6085743    3670.9228          331 
   21000   0.13052602   -7.6086764    3672.2872          295 
   21100   0.12817118   -7.6120621     3670.968          196 
   21200   0.12810823   -7.6086089    3672.7329          205 
   21300   0.13361532   -7.6118434    3671.9852          217 
   21400   0.13057086   -7.6120868    3672.0446          211 
   21500   0.12977154   -7.6114505    3672.7716          179 
   21600   0.13039369    -7.611414    3672.9358          213 
   21700   0.12993533   -7.6087016    3674.7353          278 
   21800   0.13231715   -7.6171546    3673.2739          323 
   21900   0.12988019   -7.6168812     3674.677          253 
   22000   0.13174599   -7.6149564    3675.6156          344 
   22100   0.12845852   -7.6150917    3677.0372          159 
   22200    0.1285628   -7.6207396    3675.3863          189 
   22300   0.12912426   -7.6195239    3676.3897          351 
   22400   0.12872074   -7.6140533    3676.9141          327 
   22500   0.12996357   -7.6153471    3675.4777          351 
   22600   0.12713556   -7.6168685    3673.4935          326 
   22700    0.1306571    -7.612308    3674.0716          371 
   22800   0.12879227   -7.6104817    3674.1174          339 
   22900   0.12758384   -7.6176295    3672.5859          331 
   23000   0.12867185      -7.6146    3673.2778          298 
   23100   0.12899317   -7.6127123    3673.4192          324 
   23200    0.1339416   -7.6120928    3674.3108          339 
   23300   0.13238795   -7.6129654    3673.4582          220 
   23400   0.13004678   -7.6158175    3672.4075          375 
   23500   0.12791808   -7.6141653    3672.1381          377 
   23600   0.13194681   -7.6139479    3671.9426          403 
   23700   0.12803347   -7.6140518    3670.6144          346 
   23800   0.12871316   -7.6132205    3669.9536          394 
   23900   0.13005283   -7.6136383    3670.2271          296 
   24000   0.13123057   -7.6108496    3671.0507          344 
   24100   0.12989651   -7.6111732    3670.9555          367 
   24200   0.12828806   -7.6142052    3670.8551          344 
   24300   0.13204755   -7.6125764    3670.7936          397 
   24400   0.13033795   -7.6129125    3670.9233          401 
   24500   0.12811092    -7.613613    3671.1005          317 
   24600   0.13028813   -7.6156993    3670.2836          315 
   24700   0.12904092   -7.6105559    3671.5752          386 
   24800   0.12945357   -7.6131622     3669.987          335 
   24900   0.12721339   -7.6127339    3668.7206          356 
   25000   0.13265747   -7.6101246    3669.1001          434 
   25100   0.12814634   -7.6094555    3668.6315          474 
   25200   0.12965834   -7.6102094    3667.8417          498 
   25300   0.13225751   -7.6123385    3667.4533          356 
   25400   0.13021101   -7.6105611    3668.2045          351 
   25500   0.13465284   -7.6112104    3668.0594          412 
   25600   0.13039919   -7.6100921    3668.6816          373 
   25700   0.12721924     -7.61273    3668.5215          421 
   25800   0.13034871   -7.6123634    3669.9463          319 
   25900   0.12898372   -7.6131574     3671.103          434 
   26000   0.13003133   -7.6150873    3671.4759          346 
   26100   0.12940159   -7.6151094    3671.8686          460 
   26200   0.12691649   -7.6112237    3672.6057          315 
   26300   0.13154329   -7.6142238    3671.7697          336 
   26400    0.1322358   -7.6194457    3671.1103          331 
   26500   0.12819718   -7.6197489    3672.5363          253 
   26600   0.13212541   -7.6187717    3673.8126          175 
   26700   0.13191906    -7.623105    3676.0362          386 
   26800   0.13187783   -7.6228191    3680.1953          362 
   26900     0.129595    -7.624095    3677.9963          352 
   27000   0.13087084   -7.6211259    3675.9109          370 
   27100   0.13357989   -7.6204375    3674.4477          251 
   27200   0.12822514   -7.6174419    3675.1811          274 
   27300   0.12829844   -7.6167645    3674.1165          425 
   27400   0.13071264   -7.6196542    3672.6829          442 
   27500   0.13104465   -7.6142614    3674.5168          439 
   27600   0.12982303   -7.6168589    3673.9313          448 
   27700   0.12994569   -7.6190893    3672.8799          411 
   27800   0.13130757   -7.6134394     3674.847          443 
   27900     0.128779   -7.6136491    3674.8641          335 
   28000   0.12971073   -7.6189326    3672.3023          389 
   28100    0.1291791   -7.6171008    3672.8933          385 
   28200   0.13119201   -7.6121945    3674.5159          465 
   28300   0.12889443   -7.6132604    3672.0638          373 
   28400   0.12917995   -7.6156171    3670.3928          388 
   28500   0.13128027   -7.6131881    3671.0681          370 
   28600   0.12949171   -7.6114329    3671.9771          456 
   28700   0.13119341   -7.6153691    3669.9092          401 
   28800   0.12787602   -7.6132109    3670.1631          463 
   28900   0.13039047   -7.6113005    3670.3857          328 
   29000   0.13022803   -7.6113188    3670.2945          487 
   29100   0.13024257   -7.6139605    3669.6768          398 
   29200   0.12964234   -7.6135928    3668.2968          419 
   29300   0.12966278   -7.6104442    3669.2415          472 
   29400   0.13142029   -7.6076028    3669.9297          310 
   29500   0.12785458   -7.6097253    3668.8817          540 
   29600   0.12923798   -7.6092305    3667.4707          456 
   29700   0.13214516    -7.608409    3667.7071          464 
   29800   0.12919594   -7.6106091    3666.8434          488 
   29900   0.12951107   -7.6107404    3667.4964          521 
   30000    0.1315702    -7.611177     3669.096          459 
   30100   0.12826017   -7.6144683    3669.9796          500 
   30200   0.12935038   -7.6159365    3670.5557          434 
   30300   0.13466261   -7.6166866    3670.3783          552 
   30400   0.12999311   -7.6172852    3670.7241          436 
   30500   0.12814476   -7.6157811    3671.4562          413 
   30600   0.13214668    -7.615596     3672.018          465 
   30700   0.12913971   -7.6192479    3671.2168          406 
   30800    0.1302969   -7.6210895    3670.6323          491 
   30900   0.13148832   -7.6191502    3671.6393          567 
   31000    0.1318667   -7.6211738    3671.5993          590 
   31100   0.12760224   -7.6242365    3672.5694          589 
   31200    0.1289072   -7.6215741    3673.3935          634 
   31300    0.1305747   -7.6189637    3675.0758          640 
   31400   0.13227099   -7.6235659    3673.5482          601 
   31500   0.13172833    -7.625591     3672.476          625 
   31600   0.12974068   -7.6272378    3671.3776          660 
   31700   0.13017514   -7.6252337    3672.0154          510 
   31800    0.1319886   -7.6227127    3672.6793          656 
   31900   0.12855581   -7.6246147    3671.9612          600 
   32000   0.13019833   -7.6242478    3670.4313          678 
   32100   0.13184557   -7.6238209    3670.6457          663 
   32200   0.12799019   -7.6235276    3669.0566          631 
   32300   0.13138475    -7.620868    3668.8702          522 
   32400   0.13096602   -7.6185656    3669.0243          619 
   32500   0.12839829   -7.6215683    3668.1677          615 
   32600   0.12790373   -7.6187111    3669.1413          655 
   32700   0.13177075   -7.6195093    3668.4074          653 
   32800   0.13133591    -7.620265    3667.5474          651 
   32900   0.13305379   -7.6154712    3669.2323          682 
   33000   0.12935165   -7.6168118    3669.0509          666 
   33100   0.12949334   -7.6206833    3666.3193          580 
   33200   0.13081436   -7.6190916    3664.9663          619 
   33300   0.13003428   -7.6142725    3664.8338          691 
   33400   0.12888671   -7.6125679    3662.6619          667 
   33500   0.12769327   -7.6126332    3663.5501          416 
   33600   0.13005018   -7.6148997    3665.5827          552 
   33700   0.13013105   -7.6173059    3667.6976          650 
   33800   0.12827022   -7.6204424    3667.2108          666 
   33900   0.12715672   -7.6177269    3668.9871          665 
   34000   0.13172062   -7.6208833     3668.455          680 
   34100   0.13101814   -7.6254127    3668.0973          677 
   34200   0.13000729     -7.62237    3670.1681          628 
   34300   0.13262882   -7.6247257    3669.4574          587 
   34400   0.12958504   -7.6232945    3670.1913          656 
   34500   0.13044377   -7.6218427    3670.9438          584 
   34600   0.13067009   -7.6234815     3669.859          585 
   34700   0.12729032   -7.6263053    3668.6235          628 
   34800    0.1314579   -7.6247404    3669.3256          542 
   34900   0.13022867   -7.6244486    3669.4524          622 
   35000   0.12887673   -7.6237558    3669.7175          440 
   35100   0.12943813   -7.6194661    3670.2791          619 
   35200   0.13057086   -7.6189582    3670.6684          674 
   35300   0.13032044   -7.6245019    3668.6001          655 
   35400   0.13107294   -7.6228588     3669.379          650 
   35500   0.13028422   -7.6201878    3669.9219          514 
   35600   0.12814287   -7.6217345     3668.282          647 
   35700   0.13070641   -7.6182176    3668.4287          676 
   35800   0.12892109   -7.6184566    3667.4843          651 
   35900   0.12731777   -7.6180606    3667.7325          681 
   36000   0.12812392   -7.6180002    3667.5621          649 
   36100   0.12909001   -7.6183815    3667.2321          452 
   36200   0.13294772   -7.6147514    3667.0207          661 
   36300   0.13076639   -7.6155307    3666.6123          679 
   36400   0.13025727   -7.6187376    3665.0438          561 
   36500   0.12896814   -7.6167218    3666.3407          652 
   36600   0.13222484    -7.616336    3667.3448          672 
   36700   0.13125817    -7.619857    3667.6583          681 
   36800   0.13028198    -7.622915    3667.9809          680 
   36900   0.12794006   -7.6201148    3669.4327          681 
   37000   0.12912448   -7.6192122    3669.9422          676 
   37100   0.13202303    -7.624191    3668.5008          597 
   37200   0.12712811    -7.622539    3668.9601          662 
   37300    0.1297251   -7.6213122    3669.7538          579 
   37400   0.13008701   -7.6228824    3669.7096          504 
   37500   0.12955645   -7.6222444    3671.1133          549 
   37600   0.13242976   -7.6240125    3671.3616          603 
   37700   0.12802166    -7.626426    3672.4797          662 
   37800   0.13089033    -7.628429    3673.5051          685 
   37900   0.13290038   -7.6242499    3675.4217          636 
   38000   0.13053066   -7.6281847     3673.269          566 
   38100   0.12766785   -7.6267029    3673.7106          680 
   38200   0.13246736   -7.6276917    3672.8563          661 
   38300   0.13043732   -7.6273398    3672.9985          667 
   38400   0.13009374   -7.6250065    3673.1225          633 
   38500   0.12931991   -7.6278822    3672.2425          693 
   38600   0.12964121   -7.6274222    3672.0243          699 
   38700   0.13073753   -7.6232335    3672.9981          623 
   38800   0.12836909   -7.6245968    3672.4726          700 
   38900   0.12564689   -7.6259795    3671.0044          490 
   39000   0.12891238   -7.6240092    3670.9872          589 
   39100   0.13106049   -7.6236536    3670.3987          682 
   39200   0.12767511   -7.6223355    3669.3426          667 
   39300   0.13035129   -7.6206716    3670.1194          636 
   39400   0.12919826   -7.6209389    3670.4922          602 
   39500   0.12772638   -7.6254277    3668.5631          719 
   39600   0.12839258   -7.6222252    3669.3509          679 
   39700   0.13350847   -7.6234526    3669.2595          590 
   39800   0.13099943   -7.6246102    3668.9021          684 
   39900   0.12878509   -7.6237248    3669.6796          684 
   40000   0.13281171   -7.6219442    3669.9641          679 
   40100   0.12995259   -7.6199743    3669.9045          501 
   40200   0.12937702   -7.6225236     3668.213          545 
   40300   0.12838748   -7.6215035    3668.2251          721 
   40400   0.13232777   -7.6191812    3667.9925          632 
   40500   0.13117907   -7.6232052    3666.0072          605 
   40600   0.13112428   -7.6219538    3665.6922          539 
   40700   0.13084215   -7.6169941    3666.3397          564 
   40800   0.13252679   -7.6198776    3664.7274          660 
   40900   0.13025399   -7.6185725     3665.448          659 
   41000   0.13163151   -7.6158465    3667.3505          676 
   41100   0.13094109   -7.6203925    3666.5211          490 
   41200   0.13324814   -7.6227834     3666.204          672 
   41300   0.13034059   -7.6255956    3666.0219          598 
   41400   0.13094492   -7.6243578    3667.7438          590 
   41500   0.13163437    -7.621268    3669.4925          696 
   41600   0.12936256   -7.6257485    3668.4566          591 
   41700    0.1308717    -7.625838    3669.1634          660 
   41800   0.13445349    -7.626157    3669.7978          700 
   41900    0.1299179   -7.6276407    3669.6644          718 
   42000   0.13026038   -7.6253582    3670.5076          677 
   42100   0.13159468   -7.6272217    3671.2819          556 
   42200   0.13274728   -7.6333883    3672.0335          527 
   42300   0.12919256   -7.6344514    3674.2459          589 
   42400     0.131549   -7.6354719    3673.8556          594 
   42500   0.13078188   -7.6273796    3675.0602          566 
   42600   0.13138534   -7.6314567    3672.5229          683 
   42700    0.1278595   -7.6315618    3672.1384          592 
   42800   0.13008853   -7.6276742    3672.2827          678 
   42900   0.12831218   -7.6256871    3671.9666          606 
   43000   0.13004236   -7.6280469    3669.9957          542 
   43100   0.13133161   -7.6278489    3669.9599          658 
   43200   0.13049799   -7.6271178     3668.618          568 
   43300   0.12844838   -7.6278768    3668.2663          704 
   43400   0.13122586   -7.6251185    3668.7185          601 
   43500    0.1285511   -7.6203269    3668.7197          596 
   43600   0.12686959   -7.6219979    3666.9719          686 
   43700   0.13131262   -7.6214963    3664.8652          594 
   43800   0.12980688   -7.6200079    3664.9958          670 
   43900   0.12615165    -7.619253    3664.8201          499 
   44000   0.13053071    -7.620404    3664.0564          666 
   44100   0.12935088   -7.6196679    3666.0165          697 
   44200     0.128153   -7.6236888    3665.5275          698 
   44300   0.13281558   -7.6222904    3666.2269          713 
   44400   0.12930017   -7.6214786    3667.5368          692 
   44500   0.12461725   -7.6241861    3667.9269          630 
   44600   0.12766602    -7.622949    3669.0827          715 
   44700   0.13038064   -7.6265945    3667.8873          686 
   44800   0.13129224   -7.6249498    3668.6125          690 
   44900   0.13191954   -7.6249871    3669.2397          703 
   45000   0.12966853   -7.6256051    3668.5604          524 
   45100   0.12923572   -7.6294903      3667.61          573 
   45200   0.12914012   -7.6295117    3668.1259          615 
   45300   0.13100373    -7.626046    3669.0451          675 
   45400   0.12936977   -7.6249626    3669.2213          681 
   45500   0.13051121   -7.6309958    3668.0998          681 
   45600   0.13204562    -7.628476    3670.2514          709 
   45700   0.13114836   -7.6267901    3670.1545          701 
   45800   0.12788841   -7.6292799    3670.1908          705 
   45900   0.13212024   -7.6308839    3669.6912          742 
   46000   0.12926297    -7.627577    3670.1348          675 
   46100   0.13040556   -7.6296957    3668.1392          671 
   46200   0.12845385   -7.6265505     3668.304          583 
   46300   0.13339886   -7.6249424    3667.2013          582 
   46400   0.12945711   -7.6252926    3667.0925          539 
   46500   0.12836644   -7.6270569    3665.7937          605 
   46600   0.12999329   -7.6221201    3667.2507          511 
   46700   0.13165892   -7.6252353     3666.656          692 
   46800   0.12585003   -7.6255579    3666.5031          677 
   46900   0.12844592   -7.6233818    3668.0023          633 
   47000   0.12968894   -7.6244059    3668.4789          671 
   47100   0.12853168   -7.6274455    3667.1076          604 
   47200   0.12944949   -7.6274632     3666.988          643 
   47300   0.13049138   -7.6256808    3668.6118          689 
   47400   0.13070599   -7.6254074    3669.2646          701 
   47500   0.12878129    -7.628757    3667.9995          644 
   47600   0.13116948   -7.6287208    3669.0012          728 
   47700   0.13127967   -7.6263786     3669.456          720 
   47800   0.12738611   -7.6267097    3669.8292          702 
   47900   0.13037426   -7.6303774    3668.7325          686 
   48000   0.13056039   -7.6264411    3670.5042          679 
   48100   0.12961406   -7.6269793    3668.9617          704 
   48200   0.12951355   -7.6312008    3668.4226          715 
   48300   0.12988917   -7.6278755    3670.0678          681 
   48400   0.12951541   -7.6272163    3671.0837          611 
   48500   0.12855505   -7.6320378    3670.2608          570 
   48600   0.13169539   -7.6333712    3670.7749          682 
   48700   0.12976747   -7.6279494    3673.1428          691 
   48800   0.12992377   -7.6319781    3671.1526          589 
   48900   0.12932031   -7.6320483     3670.962          567 
   49000   0.13188979   -7.6294649    3670.9174          620 
   49100   0.13359671   -7.6275252    3671.1747          695 
   49200   0.13157109   -7.6315005    3669.1925          638 
   49300   0.12801471   -7.6286378    3669.4826          401 
   49400   0.13061695   -7.6229691    3670.2691          648 
   49500   0.13134746    -7.626217    3667.9763          686 
   49600   0.12875736   -7.6259767    3667.9358          667 
   49700   0.13256822   -7.6269382    3668.2498          575 
   49800   0.13193066    -7.627231    3667.9978          679 
   49900   0.12659942   -7.6255039    3667.7462          611 
   50000   0.12944335   -7.6253327    3667.8635          676 
   50100   0.12966481   -7.6245498    3668.1112          689 
   50200   0.13268262   -7.6245818    3667.6364          671 
   50300   0.12956395   -7.6260407     3666.385          715 
   50400   0.13109064   -7.6250625    3666.0236          591 
   50500   0.12743676   -7.6221651    3666.4073          567 
   50600   0.13139063   -7.6222043    3664.9637          588 
   50700   0.13287543   -7.6194856     3664.456          591 
   50800   0.12866914   -7.6196181    3663.3644          678 
   50900   0.13033965   -7.6195021    3663.8847          675 
   51000    0.1329537   -7.6192176    3665.2188          674 
   51100   0.13026804   -7.6225417    3666.2089          509 
   51200   0.12788735   -7.6252563    3665.3748          636 
   51300    0.1272661   -7.6241489    3667.1849          602 
   51400   0.13109053   -7.6238013    3667.2611          622 
   51500   0.12921303   -7.6262216    3667.0006          696 
   51600   0.12706449   -7.6226266    3666.8425          522 
   51700   0.13064475   -7.6236844    3666.6555          627 
   51800   0.12997549   -7.6214396    3668.7286          665 
   51900   0.13073442   -7.6269076    3667.6135          676 
   52000   0.12928186    -7.626066    3668.3927          661 
   52100   0.13259331   -7.6275466    3668.8191          653 
   52200   0.13056888   -7.6274946    3671.4668          576 
   52300   0.12980467   -7.6334707    3670.9467          433 
   52400   0.13035074    -7.631975     3671.403          576 
   52500   0.12924809   -7.6281555    3671.0676          599 
   52600   0.13142304   -7.6302324    3670.2222          636 
   52700   0.12975354     -7.63146    3668.6191          583 
   52800   0.13029879   -7.6266812    3670.0603          486 
   52900   0.13193278   -7.6268199    3669.5669          715 
   53000   0.12873713   -7.6272335    3669.6908          705 
   53100   0.13206947    -7.632383    3669.1183          698 
   53200   0.12713456   -7.6296201    3669.4933          667 
   53300   0.13026928   -7.6292563    3670.6187          651 
   53400   0.12959772   -7.6284264    3670.0295          687 
   53500   0.12583961   -7.6270438    3670.7509          665 
   53600   0.13346557   -7.6287889    3669.7497          712 
   53700     0.131126    -7.626618    3669.2574          676 
   53800   0.13118527   -7.6296159    3667.9953          654 
   53900   0.13054432   -7.6247366    3668.9341          699 
   54000   0.13211262   -7.6234186    3668.8771          694 
   54100   0.12959405   -7.6273893    3667.2303          695 
   54200   0.12936098   -7.6260883    3667.6434          520 
   54300   0.13048147   -7.6247278    3668.8426          674 
   54400   0.12920222    -7.625064    3668.5905          650 
   54500   0.12782426   -7.6256588     3667.538          653 
   54600   0.12929763   -7.6248125    3668.2027          581 
   54700   0.13160815   -7.6248933    3667.6455          577 
   54800   0.12853838   -7.6236585    3668.1488          589 
   54900   0.12793769   -7.6264581    3667.8405          677 
   55000    0.1310998   -7.6254577    3668.9182          578 
   55100   0.13349608   -7.6285655    3668.5373          428 
   55200   0.12946354   -7.6307565    3668.5362          601 
   55300   0.12991699   -7.6274061    3670.3607          608 
   55400   0.13139157    -7.628257      3670.37          507 
   55500   0.12713444   -7.6313236    3670.4438          591 
   55600   0.13005378   -7.6326233    3670.0448          594 
   55700   0.12984663   -7.6307798    3671.6502          618 
   55800   0.13572029   -7.6315992    3671.1004          584 
   55900   0.12827252   -7.6301007    3671.7591          694 
   56000    0.1321933   -7.6335734    3670.3423          580 
   56100   0.13190788   -7.6347276    3671.6028          596 
   56200   0.13065296   -7.6339045    3671.7548          654 
   56300   0.13025267   -7.6309395    3673.8004          421 
   56400   0.12785843   -7.6325981    3672.8273          693 
   56500   0.13089183    -7.629158    3671.8075          686 
   56600   0.13068027   -7.6287703    3670.1824          598 
   56700   0.12713815   -7.6265979     3669.762          700 
   56800   0.12897597   -7.6264411    3669.0758          672 
   56900   0.13017555   -7.6265926    3668.8906          713 
   57000   0.13171447   -7.6238771    3668.7252          702 
   57100   0.13061528   -7.6276978    3667.0593          699 
   57200   0.12951507   -7.6269279    3666.9397          678 
   57300   0.12941315   -7.6231302    3667.6326          590 
   57400   0.13054093   -7.6197353    3667.4611          606 
   57500   0.13066904   -7.6263623    3665.6165          707 
   57600   0.13054214   -7.6243861    3665.1198          484 
   57700   0.13259633   -7.6221431    3665.3463          681 
   57800   0.12963064   -7.6214622    3664.9526          675 
   57900   0.12964662   -7.6219783    3665.0155          691 
   58000   0.13097492   -7.6202216    3666.6298          691 
   58100   0.12907889   -7.6218117    3666.8271          683 
   58200   0.13139381    -7.628361    3665.3636          660 
   58300   0.13133874   -7.6247533    3668.2629          663 
   58400   0.13031915   -7.6245548    3668.1505          579 
   58500   0.13154644   -7.6269691    3667.7063          660 
   58600   0.12878258   -7.6300275    3668.0759          664 
   58700   0.13235956   -7.6287836    3668.2282          685 
   58800   0.13216176   -7.6265834    3669.0917          705 
   58900   0.12972519   -7.6295846    3667.7713          681 
   59000   0.12991341   -7.6268385    3668.9044          700 
   59100   0.12955348   -7.6235663     3669.643          723 
   59200   0.13182677   -7.6292935    3667.8442          590 
   59300   0.12978735   -7.6272358    3669.1965          687 
   59400   0.13397034   -7.6258666    3669.9021          681 
   59500   0.13214284   -7.6300022    3669.6513          638 
   59600   0.12935393   -7.6307645    3670.9825          674 
   59700   0.13097825   -7.6323663    3670.6825          663 
   59800    0.1314497   -7.6307508    3671.6195          608 
   59900   0.13042401   -7.6299042     3672.426          542 
   60000   0.13042828   -7.6327432     3671.083          587 
   60100   0.13217382   -7.6316651    3671.5028          692 
   60200   0.13162359   -7.6298132    3670.7878          683 
   60300   0.12682791   -7.6308421    3669.4928          674 
   60400   0.12753384   -7.6277337    3669.9734          517 
   60500   0.13104454   -7.6278722    3669.1797          567 
   60600   0.13166453   -7.6295796    3667.3925          693 
   60700   0.13013567     -7.62754    3668.5743          516 
   60800     0.128995   -7.6266991    3669.6755          686 
   60900   0.13401105   -7.6264533    3669.5309          668 
   61000   0.13192573   -7.6278434    3668.6445          564 
   61100   0.12721711   -7.6257544    3669.1884          650 
   61200   0.13099623   -7.6276067    3668.7639          603 
   61300   0.13104344   -7.6270347    3668.1523          409 
   61400   0.12702588   -7.6284048    3666.8755          726 
   61500   0.13085363   -7.6274668    3666.9029          689 
   61600   0.13039627   -7.6238281    3667.3065          595 
   61700   0.12889321   -7.6223711    3666.8386          695 
   61800   0.12717728   -7.6245805    3666.3888          572 
   61900   0.12860834   -7.6202927    3667.7795          658 
   62000   0.13077999   -7.6244221    3666.4339          672 
   62100   0.12695187    -7.623966    3667.2438          688 
   62200   0.13222121   -7.6248194    3666.8711          585 
   62300   0.13324875   -7.6230725    3668.3641          701 
   62400   0.13186667   -7.6272004    3666.9239          498 
   62500   0.12763102   -7.6261746    3667.3048          701 
   62600   0.13263432     -7.62545    3667.5686          704 
   62700   0.13112064   -7.6262934    3666.7345          511 
   62800   0.13046388   -7.6275337    3666.4377          664 
   62900   0.13069081    -7.626175    3666.3799          663 
   63000   0.13182182   -7.6226347    3666.3627          691 
   63100   0.13178127   -7.6248644    3664.8186          606 
   63200   0.13033495   -7.6274823    3664.5002          541 
   63300   0.13118494   -7.6211748     3665.921          610 
   63400   0.13026422   -7.6235627    3665.4031          699 
   63500   0.12857245    -7.625492    3665.6055          679 
   63600   0.13299928   -7.6258788    3666.8514          682 
   63700   0.12915605   -7.6262109     3668.914          709 
   63800   0.13207491   -7.6299821     3668.317          666 
   63900   0.12730915   -7.6294103    3667.5826          581 
   64000   0.13222223   -7.6306994    3668.5281          603 
   64100   0.13332974   -7.6290104    3668.2963          708 
   64200    0.1285529   -7.6305119    3668.0059          680 
   64300   0.12887903    -7.629062    3668.7632          603 
   64400   0.13179105    -7.629518    3668.2651          665 
   64500    0.1305559    -7.630868    3668.6017          654 
   64600   0.13181221   -7.6278036    3670.1093          724 
   64700   0.13131703   -7.6347337     3669.676          742 
   64800   0.12823905   -7.6317587    3671.4592          585 
   64900   0.12864072   -7.6320473     3672.259          506 
   65000   0.13366473   -7.6341449     3671.843          663 
   65100   0.12808926   -7.6322037    3671.7812          701 
   65200   0.13045116   -7.6342961    3669.9975          738 
   65300   0.13249437   -7.6321598    3670.5008          733 
   65400     0.131632   -7.6304933    3670.4822          703 
   65500   0.12817586   -7.6333457    3669.6068          618 
   65600    0.1303147   -7.6284093    3669.2382          665 
   65700   0.13160558   -7.6288505    3668.7462          674 
   65800   0.13045187      -7.6307    3667.4234          739 
   65900   0.13178926   -7.6272419    3669.8597          699 
   66000   0.12917508   -7.6271738     3669.075          676 
   66100   0.13138551   -7.6326118    3667.5476          681 
   66200   0.13075538   -7.6311421    3667.8936          709 
   66300   0.13253698    -7.627708    3669.3768          704 
   66400   0.13123975   -7.6293937    3669.1723          688 
   66500   0.12784093   -7.6289662    3669.4083          606 
   66600   0.13113313   -7.6290845    3669.2096          668 
   66700   0.12745046   -7.6285375    3669.0722          598 
   66800    0.1309206   -7.6301947    3667.9753          725 
   66900   0.13011633   -7.6257011    3668.3948          718 
   67000   0.13057589   -7.6238958    3668.2362          622 
   67100   0.12996493   -7.6263983     3665.588          739 
   67200   0.12994887   -7.6243727    3666.5579          726 
   67300   0.13002363   -7.6202427    3666.9218          699 
   67400   0.12885301   -7.6251531    3665.2042          714 
   67500   0.12967718   -7.6231977    3665.5734          604 
   67600   0.13023726   -7.6234402    3666.1122          696 
   67700   0.12870981   -7.6267745    3665.3823          597 
   67800   0.13116166   -7.6269288    3665.6015          712 
   67900   0.13031541   -7.6231699    3666.7361          720 
   68000   0.12756736   -7.6258542    3665.9932          676 
   68100   0.13130758   -7.6279091    3666.3996          708 
   68200   0.13243295   -7.6246905    3667.0141          707 
   68300    0.1324091   -7.6263076    3666.7328          723 
   68400   0.12897366   -7.6271831    3666.7666          609 
   68500    0.1323567    -7.626656    3666.6088          692 
   68600   0.13090219   -7.6259041    3667.2552          741 
   68700    0.1290641   -7.6296186    3666.6053          682 
   68800   0.12434544   -7.6295005    3668.4429          705 
   68900   0.13065171   -7.6308341    3669.5017          724 
   69000   0.12760883   -7.6297644    3670.9047          752 
   69100   0.13080579   -7.6278979    3671.0135          732 
   69200   0.13011701   -7.6342083     3669.083          623 
   69300   0.12730804   -7.6313762    3669.6196          745 
   69400   0.13146702   -7.6318289    3670.0236          735 
   69500   0.12908172   -7.6311348    3670.2309          714 
   69600    0.1272933   -7.6322029    3669.5583          599 
   69700   0.13236046    -7.631611    3669.9198          724 
   69800   0.12769951   -7.6293727    3670.1839          707 
   69900    0.1311469   -7.6298071    3671.2123          696 
   70000   0.13016632   -7.6316278    3671.1298          722 
   70100   0.13045623   -7.6345753    3669.7502          757 
   70200   0.13127095   -7.6306109    3670.7312          763 
   70300   0.13050479   -7.6299697    3670.9786          756 
   70400   0.12955515   -7.6335384    3669.0183          716 
   70500   0.12920871   -7.6301988    3670.5252          699 
   70600   0.12956975   -7.6286405     3670.219          626 
   70700   0.12842875   -7.6294258    3668.3512          589 
   70800   0.12718926   -7.6266208    3668.3275          698 
   70900   0.12908116   -7.6243741    3667.9666          713 
   71000   0.12869375   -7.6280224    3666.5798          723 
   71100   0.12878243   -7.6295603    3665.9395          722 
   71200    0.1303896   -7.6245274    3667.3419          628 
   71300   0.13099799   -7.6286273     3665.959          701 
   71400   0.12963597   -7.6291491    3666.0369          619 
   71500   0.13070115   -7.6236028    3667.3691          737 
   71600   0.12947348   -7.6261945    3665.4548          619 
   71700    0.1303907   -7.6267617    3665.1439          637 
   71800   0.12969138   -7.6211566    3666.7302          700 
   71900   0.13155749   -7.6203516    3666.1144          646 
   72000   0.12894054   -7.6223134    3663.8264          648 
   72100   0.12947122   -7.6222978    3663.4922          526 
   72200   0.12924258   -7.6200184    3665.4648          479 
   72300   0.13132884    -7.623001    3666.9424          597 
   72400   0.13129254    -7.627487    3667.2614          613 
   72500   0.12724738   -7.6277352    3667.4385          648 
   72600   0.13041603   -7.6267739    3668.6393          692 
   72700   0.13038492   -7.6268076    3668.5405          762 
   72800   0.12790581   -7.6281955    3668.4616          725 
   72900   0.13329105    -7.628291    3669.0573          653 
   73000   0.12843481   -7.6277853    3669.4948          711 
   73100   0.12720375   -7.6279744    3670.5327          586 
   73200   0.12920736   -7.6272252    3672.0531          698 
   73300   0.13003252   -7.6345091    3670.7452          660 
   73400   0.12820733   -7.6345706    3674.2206          721 
   73500   0.12874039   -7.6335014    3674.9279          694 
   73600   0.12891975   -7.6374794     3672.168          693 
   73700   0.12857433   -7.6334121    3670.5903          711 
   73800   0.12884838   -7.6318026    3670.5504          718 
   73900   0.13113618   -7.6289816    3671.1849          584 
   74000   0.13191263   -7.6297774    3669.6681          610 
   74100   0.13059634   -7.6314954    3668.9704          590 
   74200   0.12715071    -7.627056    3668.9847          628 
   74300   0.12930267   -7.6269695    3668.0482          713 
   74400   0.12889908   -7.6207721    3670.8997          695 
   74500   0.13127236   -7.6245815    3668.0413          736 
   74600   0.13044443   -7.6290284    3666.0414          685 
   74700   0.13141476   -7.6245565    3665.7713          720 
   74800   0.13106024   -7.6248423    3665.2277          723 
   74900   0.12919399   -7.6233452    3665.4399          722 
   75000   0.13195534   -7.6235181    3665.3677          671 
   75100   0.12899449   -7.6222702    3666.3223          708 
   75200   0.12855272   -7.6244652     3665.306          721 
   75300   0.13015603   -7.6258779    3665.4617          600 
   75400    0.1324915   -7.6235068    3666.7961          673 
   75500   0.12883637   -7.6235476    3666.0423          674 
   75600    0.1293097   -7.6263789    3664.7051          736 
   75700   0.13013578   -7.6208236    3666.3358          696 
   75800   0.13034229   -7.6224711    3665.1412          633 
   75900   0.12836308    -7.622928    3665.5092          682 
   76000   0.13186447   -7.6209657    3666.3087          702 
   76100   0.12941854   -7.6233048    3665.2808          729 
   76200   0.13187722   -7.6270375    3664.8602          595 
   76300   0.13239799   -7.6230489    3667.4561          597 
   76400   0.13213354   -7.6263942    3666.7508          659 
   76500   0.12914059    -7.626211    3667.6597          696 
   76600   0.13120603   -7.6286054    3667.5488          576 
   76700   0.12816904   -7.6289126    3668.4782          725 
   76800   0.12947036   -7.6273763    3669.8393          554 
   76900   0.13082148   -7.6287732    3670.2509          719 
   77000   0.12918948   -7.6321496     3670.289          712 
   77100   0.13395531   -7.6327328    3670.3887          677 
   77200   0.12928923   -7.6302538    3670.8385          708 
   77300   0.12780697    -7.630551    3669.7614          717 
   77400   0.13175716   -7.6296584    3670.0816          726 
   77500   0.13125966   -7.6320214    3669.0628          679 
   77600   0.13018317   -7.6308578    3669.6926          720 
   77700   0.13318139   -7.6296728    3669.8989          664 
   77800   0.13115607   -7.6310196    3668.8309          718 
   77900   0.13135168   -7.6327113    3668.2058          642 
   78000   0.13070954   -7.6268701    3669.4814          698 
   78100    0.1300048   -7.6232992    3670.3492          728 
   78200   0.13114037   -7.6299597    3667.8579          683 
   78300    0.1285424   -7.6265497    3667.3694          712 
   78400   0.13048611   -7.6256251    3666.5204          603 
   78500    0.1323606   -7.6272973    3666.2831          707 
   78600   0.12917593   -7.6279217    3665.2162          714 
   78700   0.13169892   -7.6278212    3665.9376          703 
   78800   0.12911244   -7.6231844    3667.0577          695 
   78900   0.13215338   -7.6241275    3666.9364          705 
   79000   0.12965548   -7.6261303    3666.3643          713 
   79100   0.13093531   -7.6279317    3665.0521          652 
   79200    0.1337677   -7.6231843    3665.2469          721 
   79300    0.1294157   -7.6228992    3664.7532          683 
   79400   0.12940868   -7.6230285    3665.0153          614 
   79500   0.13236085   -7.6240657    3664.7899          635 
   79600   0.13069646   -7.6251388    3664.8738          668 
   79700   0.12784239   -7.6267489    3666.1337          513 
   79800   0.12854464   -7.6242996    3668.3804          710 
   79900   0.13048691    -7.625328    3667.5073          681 
   80000   0.12895023   -7.6311383    3666.6564          646 
   80100   0.12959927   -7.6257467    3668.4489          674 
   80200   0.12847092   -7.6259063    3668.9292          530 
   80300   0.12647362   -7.6281757    3668.6169          617 
   80400   0.12819716   -7.6273998    3669.1605          614 
   80500   0.13060261   -7.6275946    3669.2196          667 
   80600   0.12734261   -7.6307911    3668.4982          704 
   80700   0.12943611   -7.6314767    3669.3585          711 
   80800   0.12864396   -7.6290551    3671.2716          694 
   80900   0.13055631   -7.6322818    3670.8135          707 
   81000   0.12749204   -7.6342523    3670.9696          743 
   81100   0.12905715   -7.6309623    3671.6424          709 
   81200   0.12955431   -7.6295493      3671.08          705 
   81300   0.12667008   -7.6296506    3669.5425          680 
   81400   0.13157411   -7.6285884    3668.6899          630 
   81500   0.13214922   -7.6271152    3668.8616          709 
   81600   0.13014713   -7.6307898    3667.2574          601 
   81700   0.12916071   -7.6300175    3668.4977          655 
   81800   0.13116859   -7.6288691     3667.617          628 
   81900   0.12933756   -7.6267088    3667.8087          602 
   82000   0.13229327   -7.6281852    3667.7207          682 
   82100   0.12638774   -7.6287698    3667.5572          678 
   82200    0.1294731   -7.6286835    3667.3661          672 
   82300   0.13001029   -7.6274523    3668.0346          706 
   82400   0.13079377   -7.6279869    3667.2313          727 
   82500    0.1334584   -7.6255149    3667.0724          722 
   82600   0.12900368      -7.6274    3666.4149          715 
   82700   0.12740462   -7.6243452    3667.1362          602 
   82800   0.13192313    -7.626432     3666.466          690 
   82900   0.13049263    -7.625907    3666.8789          676 
   83000   0.12793133   -7.6273274    3665.7116          702 
   83100   0.12927483   -7.6239747    3666.8031          713 
   83200   0.12992768    -7.624618    3667.1852          761 
   83300   0.12643683    -7.626734    3667.0687          716 
   83400   0.13130124   -7.6287152    3667.2049          696 
   83500   0.12941943   -7.6290234    3668.3347          689 
   83600   0.12981335    -7.630454    3669.5141          715 
   83700   0.13289412   -7.6280455    3669.5171          748 
   83800   0.13033648   -7.6301704    3668.7137          743 
   83900   0.13050316   -7.6286739    3669.8459          693 
   84000   0.12824179   -7.6322542    3668.5452          750 
   84100   0.12802649   -7.6303301    3669.2103          734 
   84200   0.13011582   -7.6302563    3670.0775          501 
   84300    0.1318208   -7.6308693    3669.4796          697 
   84400    0.1283416   -7.6326641    3668.7758          729 
   84500    0.1323864   -7.6300412    3668.5356          714 
   84600   0.12792549   -7.6283353    3669.4433          654 
   84700    0.1339481   -7.6276747    3668.5456          620 
   84800   0.12956548   -7.6262495    3669.3127          648 
   84900   0.12989659   -7.6291465    3667.2486          590 
   85000   0.13257422   -7.6263471    3667.3512          685 
   85100   0.12973206   -7.6253496    3666.7587          699 
   85200   0.12952843   -7.6276425    3665.7918          675 
   85300   0.13131959   -7.6264904    3666.4023          626 
   85400   0.12907228   -7.6251767    3666.9088          630 
   85500   0.13253947   -7.6289435    3666.7556          736 
   85600   0.12788858   -7.6299797    3666.5481          732 
   85700   0.13246162    -7.628314    3666.9415          751 
   85800   0.12991851   -7.6274162    3667.2741          618 
   85900   0.12588377   -7.6289833    3666.4109          709 
   86000   0.12993488   -7.6272837    3667.3363          641 
   86100   0.13030255   -7.6257561     3667.629          548 
   86200   0.13070412   -7.6280398    3666.1691          700 
   86300   0.13042422   -7.6290882    3666.5692          597 
   86400   0.12937474   -7.6256052     3667.808          737 
   86500   0.12710778   -7.6265648    3667.3731          776 
   86600   0.13056407   -7.6278574    3667.7875          712 
   86700   0.13101588    -7.628672    3668.2551          716 
   86800   0.12625925   -7.6294661    3668.6487          610 
   86900   0.12948965   -7.6286827    3669.1073          653 
   87000   0.12965556   -7.6291707    3669.4334          703 
   87100   0.13040171   -7.6329144    3668.5337          610 
   87200   0.12739617   -7.6303489    3669.7439          722 
   87300   0.12912912   -7.6296439    3670.8337          706 
   87400   0.12834847   -7.6299601    3671.6471          627 
   87500   0.12832123   -7.6321717    3670.7333          684 
   87600   0.12824928   -7.6307967    3671.3386          736 
   87700   0.13129152   -7.6283246    3670.8848          710 
   87800   0.12757279   -7.6301302    3670.0033          704 
   87900   0.13119115   -7.6315294    3668.2297          629 
   88000    0.1297455   -7.6268411    3670.2509          707 
   88100   0.12836102   -7.6269058    3669.7026          721 
   88200   0.12761784   -7.6312795    3669.0163          750 
   88300   0.13192881   -7.6277937    3669.1778          709 
   88400   0.13045663   -7.6273302    3668.7875          626 
   88500   0.12757185   -7.6288706    3667.7634          600 
   88600   0.13261388   -7.6285853    3667.5604          708 
   88700   0.12911597    -7.624905    3666.7808          677 
   88800   0.12708071    -7.628156    3665.3936          630 
   88900   0.13062056   -7.6244528    3666.1629          660 
   89000   0.13275657   -7.6255581    3665.8113          724 
   89100   0.12877309    -7.628419    3665.3297          737 
   89200   0.13035272   -7.6259059    3665.7311          521 
   89300   0.13216903   -7.6268608    3664.8164          728 
   89400   0.13266261   -7.6232854    3666.2128          581 
   89500   0.13289253   -7.6226655     3665.534          658 
   89600     0.129542   -7.6249943    3664.4115          531 
   89700   0.13050221   -7.6230867    3664.1283          524 
   89800   0.13021869   -7.6234273    3665.4048          784 
   89900   0.12896003    -7.626168    3665.3168          723 
   90000   0.13349153   -7.6244759    3665.8115          747 
   90100   0.13392215   -7.6279966    3665.6048          737 
   90200   0.12629723   -7.6272139    3667.1219          534 
   90300   0.13009711    -7.625615    3667.6761          734 
   90400   0.13346314   -7.6287525     3667.518          764 
   90500    0.1292284   -7.6274278    3668.9292          715 
   90600   0.13342386   -7.6322181    3666.6582          715 
   90700   0.13140676   -7.6303257    3667.7812          699 
   90800   0.13529842   -7.6292152    3669.1291          730 
   90900   0.12871474    -7.629354    3669.3355          716 
   91000   0.12965186   -7.6313853    3669.0681          729 
   91100   0.13257645   -7.6303051    3671.2797          757 
   91200   0.13004231   -7.6324378    3672.5174          704 
   91300   0.13065725   -7.6362497    3672.9365          725 
   91400   0.12956482   -7.6372641    3672.5809          705 
   91500   0.13152644   -7.6333619    3673.4673          763 
   91600   0.12741255   -7.6321585    3672.0166          665 
   91700   0.12723403   -7.6301286    3671.0863          765 
   91800   0.13065256   -7.6296109    3670.4323          760 
   91900   0.12856327   -7.6330103    3668.4747          717 
   92000   0.13015399    -7.631664    3668.9724          655 
   92100    0.1319701   -7.6298439    3669.2318          636 
   92200   0.13094033   -7.6314876     3668.114          701 
   92300   0.12750781   -7.6320031     3667.552          685 
   92400   0.13078884   -7.6280262    3668.3851          703 
   92500   0.13029807   -7.6280972    3667.8881          737 
   92600   0.12540173   -7.6319967    3666.4172          756 
   92700   0.12770093   -7.6281815    3666.9332          704 
   92800    0.1305474   -7.6261107    3666.9968          696 
   92900   0.13299325   -7.6253062    3666.6448          708 
   93000    0.1270085   -7.6245942    3666.3415          744 
   93100    0.1276707   -7.6220195    3666.1154          766 
   93200   0.13178318   -7.6207636    3665.2248          765 
   93300   0.12944215   -7.6224177    3665.7054          674 
   93400    0.1312725    -7.625109    3665.9335          671 
   93500    0.1279066   -7.6285699    3665.9295          688 
   93600   0.13076742   -7.6261171    3666.8387          702 
   93700   0.12843188    -7.624148    3668.4395          738 
   93800   0.12963058    -7.631294    3667.0754          769 
   93900    0.1300053    -7.631499    3666.8859          766 
   94000   0.12700962   -7.6266588    3668.9983          687 
   94100   0.13369617   -7.6292362    3668.7416          612 
   94200   0.13149752   -7.6317076    3668.4364          641 
   94300   0.12656864   -7.6302666    3670.8465          590 
   94400   0.13116395   -7.6286099    3671.6164          694 
   94500   0.13020874   -7.6325178    3670.6858          741 
   94600   0.12685427   -7.6316938    3672.1734          674 
   94700   0.13052241   -7.6311668    3672.4841          678 
   94800   0.12950984   -7.6347202    3670.5458          594 
   94900   0.12702924   -7.6325821     3671.128          693 
   95000    0.1300591   -7.6303751    3671.5394          760 
   95100   0.12912704   -7.6317042    3670.2028          667 
   95200   0.12889742    -7.630186     3669.003          696 
   95300   0.13126058   -7.6283712    3669.0793          651 
   95400   0.13103841   -7.6285155    3668.1596          626 
   95500   0.12884454   -7.6273245    3668.4964          761 
   95600   0.13198308   -7.6262601    3668.8075          760 
   95700   0.12916327   -7.6290701    3667.5402          707 
   95800   0.13110187   -7.6295401     3667.227          670 
   95900   0.13030787   -7.6241752    3668.2834          662 
   96000   0.12848563   -7.6231125    3667.4884          702 
   96100   0.12818434   -7.6235087    3664.6205          635 
   96200    0.1321589   -7.6225402    3664.7505          718 
   96300   0.13084582   -7.6235169    3664.2573          703 
   96400   0.12784509   -7.6225136    3665.2829          707 
   96500   0.13118753   -7.6251926    3665.3062          640 
   96600   0.13083073   -7.6255418     3665.312          726 
   96700   0.13081907   -7.6263028    3666.6254          716 
   96800   0.13125853   -7.6279519    3665.6395          711 
   96900   0.12887205   -7.6268474    3666.2962          632 
   97000   0.13207596   -7.6246016    3666.6137          713 
   97100   0.13313731   -7.6282418     3666.722          693 
   97200   0.13092657   -7.6282962    3666.6814          725 
   97300   0.13149941   -7.6268179    3667.9881          750 
   97400   0.12935597   -7.6300543    3666.8913          733 
   97500   0.12886548    -7.628906    3667.1581          708 
   97600   0.12792162   -7.6255159     3669.575          641 
   97700    0.1279378   -7.6277167    3669.9487          529 
   97800   0.12684528    -7.632455     3669.389          725 
   97900   0.12998352   -7.6296314    3671.1666          745 
   98000   0.13020676   -7.6328886    3670.8278          737 
   98100   0.12922514   -7.6337499    3670.4953          629 
   98200   0.13228803   -7.6311507     3670.348          726 
   98300   0.12919557   -7.6275754    3671.7587          748 
   98400   0.12990787   -7.6341535    3669.5036          624 
   98500   0.13247033   -7.6340029    3670.1227          641 
   98600   0.12851869   -7.6298644    3671.3598          760 
   98700   0.13185441   -7.6277139    3672.3237          644 
   98800   0.12909459   -7.6304069    3671.4031          581 
   98900     0.127656   -7.6302221    3669.7712          633 
   99000   0.12570054   -7.6303038    3669.1682          653 
   99100   0.13171571   -7.6294148    3668.4626          729 
   99200   0.12962172   -7.6272235    3668.3193          698 
   99300   0.13038399   -7.6254577    3668.3644          629 
   99400   0.12774552   -7.6255677    3666.4487          614 
   99500   0.13181373   -7.6281263    3665.4037          732 
   99600   0.13211692   -7.6251297    3667.0177          741 
   99700   0.12966985   -7.6249146    3666.5846          732 
   99800   0.13106465   -7.6278945    3665.8034          723 
   99900   0.13423029   -7.6255171    3666.4287          719 
  100000   0.13082445   -7.6251547    3667.0326          525 
  100100   0.13133758   -7.6274957    3666.0869          631 
  100200   0.12844452   -7.6288709    3665.1891          725 
  100300   0.13221004   -7.6289003    3664.4622          749 
  100400   0.12969319   -7.6225259    3665.8287          726 
  100500   0.13079754   -7.6205406    3664.1163          751 
  100600   0.12926902   -7.6229765     3661.737          738 
  100700    0.1310382   -7.6202558     3662.056          736 
  100800   0.13158449   -7.6219051    3664.5762          738 
  100900   0.12979959   -7.6258854    3666.2597          741 
  101000   0.13175663   -7.6272762    3666.3419          742 
  101100   0.12817512   -7.6303042    3666.0354          677 
  101200   0.12894882   -7.6285859    3667.6426          701 
  101300   0.12794719   -7.6265866    3668.7935          744 
  101400   0.13066591   -7.6249018    3669.8639          745 
  101500   0.12983673   -7.6306249    3668.4486          736 
  101600      0.13024   -7.6304104    3669.1477          527 
  101700   0.12805961   -7.6269027    3671.4879          632 
  101800   0.12793576   -7.6315583    3671.0736          634 
  101900   0.13121308   -7.6362974    3672.1292          654 
  102000    0.1324361   -7.6354002     3674.588          558 
  102100   0.12966037   -7.6340934    3673.2967          599 
  102200   0.12862731   -7.6328669     3671.474          728 
  102300   0.13082738   -7.6319528    3670.9739          646 
  102400   0.13201072   -7.6274465    3671.4938          661 
  102500   0.13202408    -7.632803    3669.7266          606 
  102600   0.12886433   -7.6320876    3669.2388          601 
  102700   0.12743867   -7.6340587    3668.8964          730 
  102800   0.12945165   -7.6317298    3669.7751          709 
  102900   0.12934348   -7.6278069    3671.3651          746 
  103000   0.12845081   -7.6310299    3670.8061          627 
  103100   0.12904064   -7.6325283    3670.6768          703 
  103200   0.13436249   -7.6330263    3671.2477          709 
  103300   0.12865348   -7.6302854    3670.8098          729 
  103400   0.12774252   -7.6307166    3669.3847          632 
  103500   0.12644235   -7.6321043    3667.5928          631 
  103600   0.12875073   -7.6262915    3668.9103          529 
  103700   0.13010031   -7.6269347    3668.6007          636 
  103800   0.12918669   -7.6323992    3666.5872          417 
  103900   0.13278021    -7.631328    3666.2788          661 
  104000   0.13059323    -7.625199    3667.7781          714 
Loop time of 177.347 on 24 procs for 100000 steps with 4000 atoms

Performance: 97436.137 tau/day, 563.867 timesteps/s
99.6% CPU use with 24 MPI tasks x no OpenMP threads

MPI task timing breakdown:
Section |  min time  |  avg time  |  max time  |%varavg| %total
---------------------------------------------------------------
Pair    | 22.88      | 23.594     | 24.407     |   8.5 | 13.30
Neigh   | 0.76053    | 0.7809     | 0.81181    |   1.5 |  0.44
Comm    | 7.3011     | 8.1733     | 9.136      |  16.0 |  4.61
Output  | 6.8121     | 6.8134     | 6.8258     |   0.1 |  3.84
Modify  | 133        | 134.73     | 136.02     |   7.8 | 75.97
Other   |            | 3.252      |            |       |  1.83

Nlocal:        166.667 ave         174 max         159 min
Histogram: 1 0 1 2 8 3 5 1 2 1
Nghost:        2272.04 ave        2286 max        2257 min
Histogram: 2 2 3 2 1 4 1 4 3 2
Neighs:        21075.9 ave       22277 max       20111 min
Histogram: 1 0 4 7 4 4 2 0 1 1
FullNghs:      42152.6 ave       44085 max       40088 min
Histogram: 1 0 0 4 8 4 3 2 1 1

Total # of neighbors = 1011663
Ave neighs/atom = 252.91575
Neighbor list builds = 1762
Dangerous builds = 0

#clear
#
#next RN
#
#jump SELF
Total wall time: 0:02:58
