
units lj                  # Use reduced LJ style units
atom_style atomic         # Uncharged point particles
atom_modify map hash      # Needed for indexing of clusters etc
                          # Used to be able to find where atoms are in relation to each other.

lattice fcc 1.0 spacing 1 1 1
Lattice spacing in x,y,z = 1.5874011 1.5874011 1.5874011
region box block 0 10 0 10 0 10 units lattice
create_box 2 box
Created orthogonal box = (0.0000000 0.0000000 0.0000000) to (15.874011 15.874011 15.874011)
  3 by 4 by 4 MPI processor grid
create_atoms 1 box
Created 4000 atoms
  using lattice units in orthogonal box = (0.0000000 0.0000000 0.0000000) to (15.874011 15.874011 15.874011)
  create_atoms CPU = 0.002 seconds
set type 1 type/fraction 2 0.52 78393
Setting atom values ...
  2077 settings made for type/fraction
mass 1 1.0
mass 2 1.0
pair_style lj/cut  3.5
pair_modify tail  yes
pair_coeff 1  1  1.0  1.0   # Intearaction between 1 and 1 set with epsilon = 1 and sigma = 1
pair_coeff 1  2  1.5  0.8
pair_coeff 2  2  0.5  0.88

write_data data.0
System init for write_data ...
Neighbor list info ...
  update every 1 steps, delay 10 steps, check yes
  max neighbors/atom: 2000, page size: 100000
  master list distance cutoff = 3.8
  ghost atom cutoff = 3.8
  binsize = 1.9, bins = 9 9 9
  1 neighbor lists, perpetual/occasional/extra = 1 0 0
  (1) pair lj/cut, perpetual
      attributes: half, newton on
      pair build: half/bin/atomonly/newton
      stencil: half/bin/3d
      bin: standard
WARNING: Not all mixed pair coeffs generated from mixing. Use write_data with 'pair ij' option to store all pair coeffs. (../write_data.cpp:312)


#############################
#   M E L T   S Y S T E M   #
#############################

velocity all create 2.4 6583654 mom yes dist gaussian # Assign velocities
                                                    # Temperature 2.4, random number seed, zero linear momentum
                                                                                # Gaussian distribution

timestep 0.002   # simulation timestep
thermo 1000       # output thermodynamic data every 1000 steps bf 100

# Define a fix  in this case with index 1 applied to all
# particles in the simulation. This fix is for simulations
# in the anisotropic NPT ensemble. Note that we use the MTK
# correction.
fix 1 all npt temp 2.4 2.4 0.1 iso 5.68 5.68 0.5 mtk yes tchain 5 pchain 5 # Use NPT ensemble
                                                                         # Set temperature and pressure and damping
                                                                         # Numbers of thermostats in chain and in barostat
run 10000          # run for 10000 steps
Per MPI rank memory allocation (min/avg/max) = 3.642 | 3.644 | 3.648 Mbytes
Step Temp E_pair E_mol TotEng Press Volume 
       0          2.4   -5.1913276            0   -1.5922276   -4.1950394         4000 
    1000    2.4078024    -4.887377            0   -1.2765763    5.6017832    3657.3481 
    2000    2.3865006   -4.7912591            0   -1.2124031     6.062776    3665.3967 
    3000    2.3940659    -4.805958            0    -1.215757    5.2950718    3713.1331 
    4000    2.4033397   -4.7948006            0   -1.1906923    5.6499075    3702.7918 
    5000    2.3698536   -4.7769317            0     -1.22304    5.6617755    3702.7989 
    6000    2.4109784   -4.8980697            0   -1.2825062    5.3370806    3665.4316 
    7000    2.3775908   -4.7982542            0   -1.2327596     5.544282    3695.2867 
    8000    2.4289769   -4.8572798            0   -1.2147253    5.9204543    3654.8636 
    9000    2.4026053   -4.8688434            0   -1.2658364    5.4839671    3680.1217 
   10000    2.3804717   -4.8634912            0   -1.2936763    6.2839147    3612.2631 
Loop time of 2.62028 on 48 procs for 10000 steps with 4000 atoms

Performance: 659470.499 tau/day, 3816.380 timesteps/s
99.6% CPU use with 48 MPI tasks x no OpenMP threads

MPI task timing breakdown:
Section |  min time  |  avg time  |  max time  |%varavg| %total
---------------------------------------------------------------
Pair    | 1.1663     | 1.2458     | 1.314      |   3.2 | 47.55
Neigh   | 0.21266    | 0.22269    | 0.23545    |   0.9 |  8.50
Comm    | 0.81853    | 0.88619    | 0.991      |   4.4 | 33.82
Output  | 0.00024176 | 0.00024603 | 0.00031115 |   0.0 |  0.01
Modify  | 0.21362    | 0.25016    | 0.28983    |   4.2 |  9.55
Other   |            | 0.01518    |            |       |  0.58

Nlocal:        83.3333 ave          93 max          73 min
Histogram: 2 2 5 5 7 8 6 5 4 4
Nghost:        1756.40 ave        1799 max        1717 min
Histogram: 1 1 10 6 8 8 6 6 0 2
Neighs:        10557.2 ave       12239 max        9003 min
Histogram: 2 6 2 4 14 5 8 3 2 2

Total # of neighbors = 506748
Ave neighs/atom = 126.68700
Neighbor list builds = 909
Dangerous builds = 224

# Equilibrate just above the melting temperature to avoid step fn in T

fix 1 all npt temp 1.25 1.25 0.1 iso 5.68 5.68 0.5 mtk yes tchain 5 pchain 5
run 2000
Per MPI rank memory allocation (min/avg/max) = 3.644 | 3.646 | 3.649 Mbytes
Step Temp E_pair E_mol TotEng Press Volume 
   10000    2.3804717   -4.8634912            0   -1.2936763    6.2839147    3612.2631 
   11000    1.2608488   -6.9494798            0   -5.0586794    5.6850685     2854.126 
   12000    1.2454096   -7.0338961            0   -5.1662487    5.2250546    2846.8939 
Loop time of 0.632184 on 48 procs for 2000 steps with 4000 atoms

Performance: 546676.142 tau/day, 3163.635 timesteps/s
99.7% CPU use with 48 MPI tasks x no OpenMP threads

MPI task timing breakdown:
Section |  min time  |  avg time  |  max time  |%varavg| %total
---------------------------------------------------------------
Pair    | 0.28553    | 0.3122     | 0.34138    |   2.3 | 49.38
Neigh   | 0.040447   | 0.042856   | 0.04577    |   0.6 |  6.78
Comm    | 0.19689    | 0.22927    | 0.25996    |   3.0 | 36.27
Output  | 4.9329e-05 | 5.0822e-05 | 6.5383e-05 |   0.0 |  0.01
Modify  | 0.039914   | 0.0431     | 0.04635    |   0.9 |  6.82
Other   |            | 0.004712   |            |       |  0.75

Nlocal:        83.3333 ave          93 max          76 min
Histogram: 1 4 10 6 9 9 5 3 0 1
Nghost:        2078.94 ave        2099 max        2059 min
Histogram: 1 1 9 6 6 7 8 6 3 1
Neighs:        13434.0 ave       15167 max       12266 min
Histogram: 4 4 9 7 9 8 2 2 2 1

Total # of neighbors = 644833
Ave neighs/atom = 161.20825
Neighbor list builds = 143
Dangerous builds = 7

#############################
# L I N E A R  Q U E N C H  #
#############################

# Define solid atoms. This closely follows ten Wolde  Ruiz-Montero and Frenkel  Faraday Discuss  1996  104  93-110
# Compute components of the per-atom q6 vector
compute q6 all orientorder/atom degrees 1 6 components 6 nnn NULL cutoff 1.3 # compute the Q6 parameter.
                                                                             # Use all neighbours within 1.3 unit cell.

# get number of connections
compute coord_number all coord/atom orientorder q6 0.5

# An atom is solid if it has 8 or more connections (of a possible 14)
variable is_solid atom c_coord_number>=8
group solid dynamic all var is_solid    # Must be dynamic to update
dynamic group solid defined

# do clustering
compute cluster solid cluster/atom 1.3 # Create a cluster where all atoms within are solid and max 1.3 units from another member

# define chunks one chunk per cluster
compute clus_chunks solid chunk/atom c_cluster nchunk every compress yes  # Says which atoms are in which chunk

# count the size of each chunk
compute size_chunks solid property/chunk clus_chunks count


# Find the maximum entry in the vector of chunk sizes
variable max_n equal max(c_size_chunks)


# Thermo style which includes this variable
# thermo_style custom step temp pe vol v_max_n

thermo ${N}  # Print the thermo information every 100 steps
thermo 1000  

# Reset the npt fix at a lower temperature (below freezing)
fix 1  all npt temp  ${temp} ${temp}  0.1  iso  5.68  5.68  0.5  mtk yes tchain  5  pchain  5
fix 1  all npt temp  0.45 ${temp}  0.1  iso  5.68  5.68  0.5  mtk yes tchain  5  pchain  5
fix 1  all npt temp  0.45 0.45  0.1  iso  5.68  5.68  0.5  mtk yes tchain  5  pchain  5

dump dmp2 all dcd ${N} traj.dcd
dump dmp2 all dcd 1000 traj.dcd


compute msd all msd com yes
variable twopoint equal c_msd[4]/6/(step*dt+1.0e-6)
fix 9 all vector 10 c_msd[4]
variable fit equal slope(f_9)/6/(10*dt)
thermo_style custom step temp pe c_msd[4] v_twopoint v_fit v_max_n

fix 1 all npt temp 1.25 ${temp} 0.1 iso 5.68 5.68 0.5 mtk yes tchain 5 pchain 5
fix 1 all npt temp 1.25 0.45 0.1 iso 5.68 5.68 0.5 mtk yes tchain 5 pchain 5
run 500000 # 5000000  # Run for this many steps
Neighbor list info ...
  update every 1 steps, delay 10 steps, check yes
  max neighbors/atom: 2000, page size: 100000
  master list distance cutoff = 3.8
  ghost atom cutoff = 3.8
  binsize = 1.9, bins = 8 8 8
  4 neighbor lists, perpetual/occasional/extra = 1 3 0
  (1) pair lj/cut, perpetual
      attributes: half, newton on
      pair build: half/bin/atomonly/newton
      stencil: half/bin/3d
      bin: standard
  (2) compute orientorder/atom, occasional
      attributes: full, newton on
      pair build: full/bin/atomonly
      stencil: full/bin/3d
      bin: standard
  (3) compute coord/atom, occasional
      attributes: full, newton on
      pair build: full/bin/atomonly
      stencil: full/bin/3d
      bin: standard
  (4) compute cluster/atom, occasional
      attributes: full, newton on
      pair build: full/bin/atomonly
      stencil: full/bin/3d
      bin: standard
Per MPI rank memory allocation (min/avg/max) = 9.841 | 9.846 | 9.852 Mbytes
Step Temp PotEng c_msd[4] v_twopoint v_fit v_max_n 
   12000    1.2454096   -7.0338961 2.8535071e-30 1.9816021e-32 8.3333333e+20            1 
   13000    1.2441418   -7.0621771   0.47357301 0.0030357243  0.038411736            1 
   14000     1.231934   -7.0201131   0.87243011 0.0051930362  0.035481002            3 
   15000    1.2330204    -7.069178    1.3108301 0.0072823889  0.035055884            2 
   16000    1.2396024   -7.1020564    1.7023133  0.008866215  0.034923568            2 
   17000    1.2319509   -7.0821748    2.1054217  0.010320694  0.034425785            3 
   18000    1.2387759   -7.0707582    2.5933605  0.012006298  0.034792792            2 
   19000    1.2273922   -7.0898928    2.9265737  0.012835849  0.034868437            3 
   20000     1.238632   -7.1362674    3.4326748  0.014302811  0.035016751            3 
   21000    1.2276971   -7.1313382    3.8210581  0.015162929  0.035262546            1 
   22000    1.2237752   -7.0960449    4.2044278  0.015925863  0.035103605            1 
   23000    1.2280286   -7.0585804    4.5593638  0.016519434  0.034813683            2 
   24000     1.221793   -7.0815056    4.8507718  0.016842957  0.034285651            2 
   25000     1.247025   -7.1005446    5.2152525  0.017384175  0.033705649            3 
   26000    1.2111882   -7.1226916    5.6697081  0.018172141  0.033391052            3 
   27000     1.211424   -7.0614703    6.0603834  0.018704887  0.033265256            1 
   28000    1.2497102   -7.0853179    6.4656326  0.019242954  0.033189191            2 
   29000     1.238555   -7.1485664     6.811393  0.019572968  0.033100287            5 
   30000    1.2189628   -7.1105871    7.1077957  0.019743877  0.032870406            3 
   31000    1.1962003   -7.1225693    7.3664823  0.019802372  0.032552281            1 
   32000    1.2229085    -7.157471    7.7046374   0.02006416  0.032230911            2 
   33000    1.2359373   -7.1641565    8.1204176  0.020506105   0.03200216            1 
   34000    1.2096202   -7.1158655    8.5313284  0.020910118  0.031863894            2 
   35000     1.221006   -7.1344714    8.8160954  0.020990703  0.031701686            2 
   36000    1.1924083   -7.1732217     9.152102  0.021185421  0.031539266            2 
   37000    1.2168698   -7.1323753    9.5779661  0.021571996  0.031398137            1 
   38000    1.2063982   -7.1801982    9.9085516   0.02172928  0.031292438            1 
   39000    1.2057782   -7.2360555    10.148219  0.021684228  0.031157065            5 
   40000      1.20326   -7.1957754    10.495299  0.021865205  0.031005937            3 
   41000    1.1919606   -7.2417087    10.848006  0.022048792  0.030877345            2 
   42000     1.214505   -7.2050732    11.237629  0.022296883  0.030761414            1 
   43000    1.1831731   -7.1488257    11.495808  0.022278697  0.030643457            2 
   44000    1.2134554   -7.2144114    11.721095  0.022199042  0.030482735            3 
   45000     1.196845    -7.194084    12.141104  0.022483526  0.030334318            3 
   46000    1.1974171   -7.1977098    12.477174  0.022603576  0.030225603            2 
   47000    1.1868472   -7.1739243    12.926309  0.022918987  0.030138086            3 
   48000    1.1732712   -7.2087892    13.201664  0.022919556  0.030048975            3 
   49000    1.1916463   -7.2320597    13.502198  0.022962921  0.029971653            2 
   50000     1.201963   -7.2556659    13.825671  0.023042785  0.029907678            2 
   51000    1.1987951   -7.2112393    14.186636  0.023180777  0.029831976            3 
   52000    1.1927395   -7.2288383    14.505043  0.023245262  0.029764514            2 
   53000    1.1825861   -7.1797774    14.887926  0.023408689  0.029700373            3 
   54000    1.1655309   -7.2061615    15.135295  0.023356936  0.029627128            2 
   55000    1.2101727     -7.28423    15.395989  0.023327256  0.029556073            2 
   56000    1.1670142   -7.1844955    15.799481  0.023511133  0.029472375            3 
   57000    1.1612214    -7.247251    16.009045  0.023405036  0.029373642            2 
   58000    1.1889533   -7.2353647    16.260069  0.023362167  0.029274405            4 
   59000    1.1692496   -7.2377423     16.74643   0.02365315  0.029180015            1 
   60000    1.2031378   -7.2625072    16.998948   0.02360965  0.029098374            1 
   61000    1.1602979   -7.2479219     17.30762   0.02364429  0.029035707            2 
   62000    1.1754362     -7.28182    17.556716  0.023597737  0.028956616            1 
   63000    1.1563577   -7.2327869    17.859905  0.023624213  0.028869863            2 
   64000    1.1676144   -7.2788171    18.096696  0.023563406  0.028778541            5 
   65000    1.1752523   -7.2437341    18.307416  0.023471047  0.028674545            4 
   66000    1.1559997   -7.2733202    18.609974  0.023497441  0.028573654            2 
   67000    1.1596246   -7.2925125    18.862901   0.02346132  0.028465199            3 
   68000     1.147493   -7.2972299    19.140751  0.023456802  0.028360696            3 
   69000    1.1652771   -7.3114314    19.452701    0.0234936  0.028259999            4 
   70000    1.1606766   -7.3143354    19.701566  0.023454245  0.028159699            2 
   71000    1.0943278   -7.2969455    19.966524  0.023434887   0.02806374            3 
   72000     1.148161    -7.313167    20.355205  0.023559264  0.027973121            2 
   73000    1.1505598   -7.3374065    20.645477  0.023567896  0.027884324            3 
   74000    1.1394521    -7.260673    20.849116  0.023478734   0.02779793            3 
   75000    1.1381888   -7.2692513    21.133157  0.023481285  0.027701201            3 
   76000    1.1284142   -7.3685307    21.376686  0.023439348  0.027607407            5 
   77000    1.1590569   -7.2986209    21.719689  0.023506157  0.027520042            4 
   78000    1.1422666   -7.3305937    21.981162  0.023484148  0.027439718            7 
   79000    1.1540692   -7.3399277    22.296334   0.02351934  0.027359939            2 
   80000    1.1377333   -7.3404954    22.781268  0.023730487  0.027294225            2 
   81000    1.1405257   -7.3150347    23.119135  0.023785118  0.027245773            2 
   82000    1.1499368   -7.3411281    23.339123  0.023718621   0.02718712            2 
   83000    1.1316145   -7.3295343    23.614045  0.023708881   0.02713184            2 
   84000    1.1423271   -7.3384726     23.90343   0.02371372  0.027075532            6 
   85000    1.1357424   -7.3288335    24.114142  0.023641315  0.027013705            3 
   86000    1.1470471   -7.3848175    24.399358  0.023642789   0.02694976            2 
   87000    1.1417875   -7.3906621    24.433744  0.023403969  0.026881771            2 
   88000    1.1184526   -7.4051497    24.730453   0.02341899   0.02680861            3 
   89000    1.1425929   -7.3711286    25.186187  0.023582572  0.026740847            4 
   90000    1.1326121   -7.3932478    25.330086  0.023453783  0.026677744            5 
   91000    1.1344638   -7.3965012    25.634026  0.023474383   0.02661357            2 
   92000    1.1028975   -7.3325234    25.981331  0.023533814  0.026550189            2 
   93000     1.114746   -7.3725454    26.125816  0.023410229  0.026490608            4 
   94000    1.0850916   -7.3815132    26.269208  0.023288305    0.0264213            4 
   95000    1.1312075   -7.3931604    26.590227  0.023324761  0.026350105            2 
   96000    1.1313536   -7.4047557    26.941897  0.023387064  0.026282953            4 
   97000    1.0831095    -7.417215    27.173441  0.023344881   0.02621799            1 
   98000    1.1082493   -7.3605428    27.528945  0.023408967  0.026158121            2 
   99000    1.1268969   -7.4251678     27.65089  0.023275159  0.026096168            6 
  100000     1.092902   -7.3949372    27.939998  0.023283331  0.026034777            1 
  101000    1.1101985   -7.3801321     28.03366  0.023130082   0.02596711            3 
  102000    1.1064433   -7.4230919    28.140497  0.022990602  0.025892237            2 
  103000    1.1034894    -7.425101     28.29963  0.022896141  0.025810747            3 
  104000    1.1073931   -7.4645862    28.745659  0.023033381  0.025733997            5 
  105000    1.1031864    -7.431721    29.002961  0.023018223  0.025659994            2 
  106000    1.0810918   -7.4617594    29.051335    0.0228391  0.025586117            2 
  107000    1.1023075   -7.4479833    29.440635  0.022928843  0.025514034            2 
  108000    1.1042629   -7.4442158    29.599596  0.022839195   0.02544168            3 
  109000    1.1223496   -7.4704653    29.636173  0.022657625  0.025366196            2 
  110000    1.0687138   -7.4903484    29.656522  0.022467062  0.025281328            1 
  111000    1.0859934   -7.5143638    30.081749  0.022583895  0.025199705            1 
  112000     1.101018   -7.4777995     30.39278  0.022613676  0.025123241            3 
  113000    1.0614717   -7.4855902     30.59715   0.02256427  0.025048055            1 
  114000      1.07001   -7.4958211    30.792405  0.022509068  0.024972736            1 
  115000    1.0845412   -7.4919395    31.045925  0.022497047  0.024900847           10 
  116000    1.1086599   -7.5058131    31.337324  0.022512445  0.024830336            1 
  117000    1.0739888   -7.4832482    31.539688  0.022464165  0.024760506            3 
  118000    1.0347501   -7.5242164    31.598141  0.022315071  0.024686007            3 
  119000    1.0745244   -7.5391444    31.553599  0.022096358  0.024604584            5 
  120000    1.0477078   -7.5401989     31.68235  0.022001632  0.024517163            2 
  121000    1.0650053   -7.5299584    32.025911  0.022056413  0.024432596            3 
  122000    1.0758734   -7.5144214    32.368451  0.022109597  0.024353577            4 
  123000    1.0864975   -7.5514904    32.532332  0.022040875  0.024275783            4 
  124000     1.079464   -7.5281167    32.648303  0.021941064   0.02419589            3 
  125000    1.0425806   -7.5282886    32.966141  0.021977427  0.024119435            2 
  126000    1.0637457    -7.520262    33.088723  0.021884076  0.024044923            1 
  127000    1.0522581   -7.5323754    33.315066  0.021860279  0.023968069            2 
  128000    1.0809929   -7.5379112    33.636186  0.021898559   0.02389541            5 
  129000    1.0466231   -7.5603902    33.737727  0.021794397  0.023823324            3 
  130000    1.0561829   -7.5627895    34.098596  0.021858074  0.023752299            2 
  131000     1.045911   -7.5802599     34.06022  0.021666807  0.023682729            2 
  132000    1.0695411   -7.5711003    34.304037  0.021656589  0.023607682            2 
  133000    1.0647501   -7.5682105    34.374688  0.021538025  0.023531599            3 
  134000    1.0726732   -7.5783408    34.549504   0.02148601  0.023454451            4 
  135000    1.0490569   -7.5571889    34.638336  0.021381689  0.023378412            4 
  136000    1.0541877   -7.5540757    34.888617  0.021377829   0.02330484            2 
  137000    1.0425691   -7.5914832    35.012346  0.021297047  0.023230939            2 
  138000    1.0450786   -7.6065522    35.234118  0.021276641  0.023155618            4 
  139000    1.0471252   -7.5886103    35.561434  0.021319804   0.02308391            2 
  140000    1.0394702   -7.5769889    35.813451   0.02131753  0.023015354            1 
  141000    1.0438896   -7.6632723    36.037802  0.021298937  0.022948482            1 
  142000    1.0467742   -7.6084533    36.283358   0.02129305  0.022883943            5 
  143000    1.0234354   -7.6168847    36.448316  0.021240277  0.022817977            2 
  144000    1.0471405   -7.6533725    36.574058  0.021165543   0.02275093            4 
  145000    1.0396816   -7.6269028    36.756535  0.021124445  0.022682375            4 
  146000    1.0490847   -7.6251426    36.715888  0.020956557  0.022612069            3 
  147000    1.0243669    -7.626514    36.917395  0.020928228   0.02254208            3 
  148000     1.026018   -7.6466024    37.190776  0.020940752  0.022473999            8 
  149000    1.0241928   -7.5999723    37.464004  0.020953022  0.022408784            2 
  150000    1.0249544    -7.664543    37.499779   0.02083321  0.022341829            6 
  151000    1.0027261   -7.6263053     37.60687  0.020754343  0.022273415            5 
  152000    1.0265651   -7.6284025    37.922452  0.020790818  0.022206276            3 
  153000    1.0170582   -7.6404533    37.972299   0.02068208   0.02213894            2 
  154000    1.0197206   -7.6345692    38.217414  0.020680419  0.022072343            2 
  155000    1.0240276   -7.6494775    38.233419  0.020555602    0.0220048            3 
  156000    0.9996665   -7.6571941    38.316966  0.020468465  0.021935505            3 
  157000    1.0186632   -7.6942246    38.405179  0.020384915  0.021865981            4 
  158000    1.0358948   -7.7084812    38.601472  0.020359426  0.021797082            2 
  159000     1.002548   -7.6920415    38.821482  0.020346689  0.021730973            6 
  160000    1.0033014   -7.6785143    38.968609  0.020296151  0.021665217            4 
  161000    1.0144248   -7.6584398    39.162642  0.020270519  0.021598722            3 
  162000    1.0098834   -7.7147223    39.228877  0.020179463  0.021531507            7 
  163000   0.99655734    -7.694843     39.39391  0.020140036   0.02146469            4 
  164000    1.0160629   -7.7099185    39.557193    0.0201002  0.021397248            2 
  165000    1.0123253   -7.7424828    39.640587  0.020020498  0.021329193            8 
  166000     1.007086    -7.717278    40.002733  0.020081693  0.021264123            2 
  167000    1.0222624   -7.7069727    40.253645  0.020086649  0.021203307            3 
  168000   0.96629609   -7.7372799    40.430882  0.020055001  0.021144571            8 
  169000   0.98766392   -7.6815449    40.626358  0.020032721  0.021084145            2 
  170000   0.98002981   -7.7111019    40.756832  0.019978839  0.021024466            4 
  171000   0.99777038    -7.733798     40.72653  0.019847237  0.020961748            5 
  172000   0.98014847   -7.7463631    40.838233  0.019785966   0.02089977            7 
  173000    0.9947006   -7.7648086    41.124651  0.019809562  0.020839231            3 
  174000   0.99299903   -7.7362868    41.221094  0.019741903  0.020780764            4 
  175000     1.003462   -7.7730311    41.408753  0.019718454  0.020721373            5 
  176000   0.97838742   -7.7470753    41.511724  0.019655172  0.020661717            3 
  177000   0.97955253   -7.7634863    41.593632  0.019582689  0.020600712            4 
  178000   0.99265461   -7.8095604    41.640076  0.019494417  0.020537254            5 
  179000   0.98358471   -7.7708938    41.940684  0.019525458  0.020475039            3 
  180000   0.98372413   -7.8250225    41.826876  0.019364295  0.020412257            2 
  181000   0.98913798   -7.7935437    41.996392  0.019335355  0.020349369            2 
  182000   0.98249441   -7.8000397    42.172207  0.019309619  0.020287519            3 
  183000   0.97379747   -7.7766843    42.175299   0.01920551  0.020224701            5 
  184000    0.9763715   -7.8048205    42.452241  0.019226559  0.020163146           21 
  185000   0.95566091   -7.8143498    42.560089  0.019171211  0.020101315            6 
  186000   0.97234781   -7.8093989    42.561517   0.01906878  0.020040586            4 
  187000   0.96003759   -7.8286564    42.602793  0.018985202  0.019979453            5 
  188000   0.98326209   -7.7861351    42.815691  0.018978586  0.019918325            5 
  189000   0.94782877   -7.8356346    43.037032  0.018975764  0.019858405            5 
  190000   0.97665553    -7.831042    43.001235  0.018860191  0.019797723            5 
  191000   0.97942985    -7.807062    43.211758  0.018853298  0.019736666            3 
  192000   0.98536694   -7.8460261    43.183156  0.018742689  0.019675037            3 
  193000    0.9456903   -7.8251619    43.560183  0.018808369  0.019614799            7 
  194000   0.95232474   -7.7937509    43.872185   0.01884544  0.019556943            3 
  195000   0.96286236   -7.8681415    43.713821   0.01868112  0.019498504            3 
  196000   0.96471063   -7.7991767    44.085844  0.018743981  0.019440299            8 
  197000   0.94277933   -7.8423006    44.051427  0.018634275  0.019383363            3 
  198000   0.95192824   -7.8434995    44.258903  0.018627484  0.019325998            6 
  199000    0.9431263   -7.8859622     44.22956  0.018521591  0.019268412            3 
  200000   0.94524726   -7.8802458    44.457645  0.018524019  0.019210904            5 
  201000   0.92658537   -7.8602773    44.467778  0.018436061  0.019152959           11 
  202000    0.9425592   -7.8640227     44.41444  0.018322789  0.019094016            3 
  203000   0.94400611   -7.8949342    44.508321  0.018271067  0.019035692            9 
  204000   0.93521178    -7.904905    44.597327  0.018217862  0.018977419            8 
  205000   0.94165024    -7.899267    44.721854  0.018179615  0.018917866            4 
  206000   0.94674741   -7.9446151    44.721734  0.018091316  0.018857779            7 
  207000   0.95260843   -7.8813261    44.892598  0.018072704  0.018798033            8 
  208000   0.93628458   -7.8839939     45.03339  0.018042224  0.018738852            3 
  209000   0.91713522    -7.909274    45.150769  0.018002699  0.018680817            5 
  210000   0.93329918   -7.9174888    45.191532  0.017933148  0.018622322            4 
  211000   0.93492644   -7.9607846    45.112682  0.017817015  0.018562935            8 
  212000   0.94063927    -7.942776    45.224211  0.017776813  0.018503426            4 
  213000   0.93682215   -7.9228009    45.353961  0.017744116  0.018442539            2 
  214000   0.94015007   -7.9647893    45.343846  0.017657261  0.018381779           11 
  215000    0.9375299   -7.9548695    45.439535  0.017612223  0.018320382            3 
  216000   0.92195976   -7.9355044    45.542482  0.017570402  0.018260154            4 
  217000   0.92048194     -7.96767    45.333231  0.017409075   0.01819955            7 
  218000   0.90479212   -8.0081831    45.639334  0.017446228  0.018138882            5 
  219000   0.91502825   -7.9876791    45.695632  0.017387988  0.018078235            4 
  220000   0.92498836   -7.9676077    45.773026  0.017338267  0.018017579            2 
  221000   0.91832011   -7.9664336    45.977889  0.017337062  0.017957703            9 
  222000   0.90930431   -7.9727298    46.172533  0.017332032  0.017898446            5 
  223000   0.90484805    -7.954836    46.336489  0.017315579  0.017840709           11 
  224000   0.91784672   -7.9699061    46.216767  0.017193738   0.01778234            3 
  225000   0.89071323   -7.9654653    46.259048  0.017132981  0.017724225            6 
  226000   0.91235301   -8.0070317    46.362137  0.017095183  0.017665862            8 
  227000   0.92837534   -7.9945679    46.291789  0.016994049  0.017606742            5 
  228000   0.89150994   -7.9677747     46.42993  0.016970004  0.017547037           12 
  229000   0.91112179   -8.0038001     46.63239  0.016969574  0.017488254            7 
  230000   0.89541557   -7.9703733    46.743584  0.016936081  0.017430369            7 
  231000   0.91014057   -7.9982225    46.710257  0.016850742  0.017372401            4 
  232000   0.89096974   -8.0038339     46.76438   0.01679755  0.017314114            7 
  233000   0.89843088   -8.0402604    46.771111  0.016727865  0.017256418            8 
  234000   0.89531343   -8.0462929    46.828951  0.016676977   0.01719852            9 
  235000   0.89773486   -8.0421947    46.868347  0.016619981  0.017140162            2 
  236000   0.86216226   -8.0735571    47.023111  0.016604206  0.017081627           13 
  237000    0.8926874   -8.0507479    46.839739  0.016469669  0.017023132            3 
  238000   0.88122464   -8.0567078    46.975754  0.016448093  0.016964579            7 
  239000   0.87605329   -8.0529789     47.16661  0.016445819  0.016905865            9 
  240000    0.8918424   -8.0680789     47.14815  0.016370885  0.016847943            6 
  241000   0.89065061   -8.0548617    47.441611   0.01640443  0.016791417            7 
  242000   0.87418743   -8.0718263    47.406025  0.016324389  0.016735196           13 
  243000   0.86476958   -8.0347503    47.668993  0.016347391  0.016679488            4 
  244000   0.88551683   -8.1048883    47.358454  0.016174335  0.016623198            3 
  245000   0.87359378   -8.0820519    47.618936  0.016196917  0.016567196            8 
  246000   0.87940126   -8.1151324    47.481166  0.016084406  0.016511144            4 
  247000   0.87000587     -8.11937    47.563509  0.016047068  0.016454361            7 
  248000   0.86592083   -8.1097219    47.578622   0.01598744  0.016397164            4 
  249000   0.86690614   -8.0861111     47.61835  0.015936529  0.016340309            2 
  250000   0.88193541    -8.095062    47.675814  0.015891938  0.016283511            3 
  251000   0.85457344    -8.129657    47.690987  0.015833661   0.01622668            5 
  252000   0.85579104    -8.163754    47.571756  0.015731401  0.016169861            5 
  253000   0.88402306   -8.1513512    47.707999  0.015714097  0.016112799            4 
  254000   0.86308927   -8.1396566    47.795607  0.015680973   0.01605621            8 
  255000   0.85895387   -8.1405354    47.908094   0.01565624  0.015999667            8 
  256000   0.84442324   -8.1210635    47.770894  0.015550421   0.01594334            6 
  257000   0.87152134    -8.080858    47.950973  0.015548305  0.015886981            4 
  258000   0.83558316    -8.140677    48.041617  0.015517318  0.015831199            4 
  259000   0.85907666     -8.15245    47.939707  0.015424616   0.01577532            8 
  260000   0.83877858   -8.1193178    48.039518  0.015397281   0.01571907            8 
  261000   0.85194175   -8.1731236    48.094227  0.015355756  0.015662737            8 
  262000   0.84861558   -8.1800557      48.0175  0.015272742  0.015607073            6 
  263000   0.84701997   -8.1550515    48.290877  0.015301292  0.015551819            8 
  264000   0.84943244   -8.1734465    48.134633  0.015194013  0.015496566            8 
  265000   0.82859712   -8.1835854    48.292686  0.015186379  0.015441804            8 
  266000   0.82372691   -8.1781521    48.303848  0.015132784  0.015386877            7 
  267000   0.83019561   -8.1969124    48.239587  0.015056051  0.015332126            8 
  268000   0.84810128   -8.1904339    48.428486  0.015058609  0.015277454            5 
  269000   0.84227285   -8.2029125    48.380998  0.014987918  0.015223555           11 
  270000   0.83657933   -8.1792374    48.290718  0.014904543  0.015168694           14 
  271000   0.84555575    -8.196648    48.432001  0.014892989  0.015114147           16 
  272000   0.81402656   -8.2212768    48.560191  0.014877509  0.015060069            8 
  273000   0.82139674   -8.2326777    48.526824  0.014812828  0.015006502            9 
  274000   0.84177693   -8.2433785    48.610534  0.014784226  0.014953225            4 
  275000   0.82432505    -8.215968    48.693035  0.014755465   0.01490002            9 
  276000   0.80847515   -8.2533942    48.714267  0.014708414  0.014847005           13 
  277000   0.83550549   -8.2426321    48.691269  0.014648396  0.014793878           16 
  278000   0.84190623   -8.2408308    48.650729  0.014583552  0.014740945           17 
  279000   0.82348079   -8.2517671    48.654626  0.014532445  0.014687891           20 
  280000   0.81990544   -8.2571491    48.843329  0.014536705  0.014635685           14 
  281000   0.81729222   -8.2784619    48.701306  0.014442855  0.014583465            7 
  282000   0.81182283    -8.253864     48.79431  0.014419122  0.014530672           11 
  283000   0.81613954   -8.2586636    48.879449  0.014393242    0.0144782           14 
  284000   0.82662893   -8.2737454    48.792267   0.01431698   0.01442616           16 
  285000   0.83983191   -8.2778315    48.837313  0.014279916  0.014373912           17 
  286000   0.81479267   -8.3015001    48.881757  0.014242936  0.014321799           15 
  287000   0.80550624   -8.3186845    48.932128  0.014207935  0.014270059           27 
  288000   0.82427843   -8.2730685    49.036289  0.014188741  0.014218406           11 
  289000   0.80115605   -8.2885413    48.894233  0.014098683  0.014166789           34 
  290000   0.80706439   -8.2896225    49.003808  0.014081554  0.014115629           23 
  291000   0.78409679   -8.3080342    49.108948  0.014063273  0.014064366           37 
  292000   0.80123558   -8.3184545    49.001964  0.013984579  0.014013455           17 
  293000   0.80949314    -8.292475    49.203214  0.013994088  0.013962773           20 
  294000   0.78493626    -8.312194    49.120662   0.01392309  0.013912069           24 
  295000   0.80159551   -8.2953402    49.197371  0.013897562  0.013861767           10 
  296000    0.8026446   -8.3207747    49.164248  0.013841286  0.013811589           12 
  297000   0.79754106   -8.3226133    49.202726  0.013805479  0.013761424           11 
  298000   0.78625074   -8.3264519    49.036074  0.013712549  0.013711295           12 
  299000   0.76880968   -8.3564074    49.147987  0.013697878  0.013661389            8 
  300000   0.78425427   -8.3516421    49.157543  0.013654873   0.01361153           11 
  301000   0.79388117   -8.3563707    49.161101  0.013610493  0.013561649            9 
  302000   0.80589973   -8.3806869    49.171484   0.01356829  0.013511921           12 
  303000   0.78633122   -8.3847901    49.266006  0.013549506  0.013462466           18 
  304000   0.76714219   -8.3788503    49.240029  0.013497815  0.013412891           15 
  305000    0.7974124   -8.4064546    49.116185  0.013419723  0.013363382           12 
  306000   0.78277974    -8.395261    49.127987  0.013379081  0.013313854           22 
  307000   0.78024803   -8.3916894    49.144606  0.013340012  0.013264346           20 
  308000   0.77886114   -8.4087044    49.025289  0.013264418  0.013214994           55 
  309000   0.76375858   -8.3905637    49.231968   0.01327723  0.013165696           54 
  310000   0.77040715   -8.4144918     49.26546  0.013243403  0.013116755           46 
  311000   0.79019797    -8.410699    49.256656  0.013198461  0.013067738           48 
  312000   0.78173318   -8.4308586    49.185653  0.013137194  0.013019037           38 
  313000   0.77648835   -8.4387139    49.107087  0.013074304  0.012970202           38 
  314000   0.76731759   -8.4462495    49.068021  0.013022299  0.012921411           23 
  315000   0.75276687   -8.4338988    49.169823   0.01300789   0.01287276           26 
  316000   0.75777297   -8.4609698    49.145948  0.012960429  0.012824294           56 
  317000   0.76382832   -8.4720777    49.170692  0.012926049  0.012775821           56 
  318000   0.77111231   -8.4432795    49.162539  0.012883265  0.012727474           54 
  319000   0.75352166   -8.4433794    49.289906  0.012876151  0.012679299           54 
  320000    0.7625445   -8.4487983    49.121097  0.012791952  0.012631425           25 
  321000   0.75580845   -8.4662932    49.147826  0.012759041   0.01258369           45 
  322000   0.77793553   -8.4765546    49.194664  0.012731538  0.012536032           53 
  323000   0.75915936   -8.4576141    49.277003  0.012713365   0.01248847           35 
  324000   0.75802378   -8.4779063    49.294534  0.012678635  0.012441114           44 
  325000   0.76184735    -8.503349    49.097111  0.012589003  0.012393878           75 
  326000   0.75041952   -8.4859596    49.155444  0.012565298  0.012346716           55 
  327000   0.73908554   -8.4705207    49.209434   0.01254063   0.01229991           67 
  328000   0.74620226   -8.4799205     49.15008  0.012487317  0.012253279           66 
  329000   0.74671995   -8.4786874    49.235376  0.012470966  0.012206749           76 
  330000   0.74183468   -8.5126935    49.214223  0.012427834   0.01216043           80 
  331000   0.74594031    -8.505214     49.18407  0.012382696  0.012114095           84 
  332000   0.75562475   -8.5012732    49.191472  0.012347257  0.012067927           61 
  333000    0.7341445   -8.5025089    49.087361  0.012284124  0.012021974           66 
  334000   0.73307714   -8.5192789    48.987171  0.012222348  0.011975674           93 
  335000   0.73023577   -8.5303376    49.061214  0.012204282  0.011929531           61 
  336000    0.7192457   -8.5408826    49.042322  0.012163274  0.011883603           72 
  337000   0.73566137    -8.525149    49.001618  0.012117116  0.011837809           71 
  338000    0.7201012   -8.5252945    49.042234  0.012091281  0.011792163           74 
  339000    0.7308242   -8.5451068    49.125049  0.012075971   0.01174666          105 
  340000   0.71730061   -8.5369382    49.085633  0.012030792  0.011701407           95 
  341000   0.73446945   -8.5298029    49.093234  0.011997369  0.011656174           79 
  342000   0.73687465   -8.5719298    49.081539  0.011959439  0.011611056           75 
  343000   0.72854438   -8.5701525    49.049328  0.011916746  0.011566284           99 
  344000   0.70634249   -8.5566811    49.086926  0.011891213  0.011521609          107 
  345000   0.71279647   -8.5306869    49.110663  0.011862479  0.011477022          102 
  346000   0.72889318   -8.5608791    49.080735  0.011820986  0.011432659          106 
  347000   0.69911507    -8.591526    49.041811  0.011777572  0.011388497          109 
  348000   0.70669208   -8.5652123    49.085959    0.0117543  0.011344522          114 
  349000   0.71086605   -8.5883285    49.011122  0.011702751  0.011300564          110 
  350000   0.71640972   -8.5999546    48.960662    0.0116573  0.011256732          134 
  351000   0.70760486   -8.6190439    48.950871  0.011621764  0.011213096          120 
  352000   0.70223337   -8.5987262    48.974405  0.011594319  0.011169583          119 
  353000   0.70716233   -8.6015029    49.059268  0.011581508   0.01112626          130 
  354000   0.72177956   -8.5867801    49.032812  0.011542564  0.011083184           89 
  355000   0.69832271   -8.6153998    49.018648  0.011506725   0.01104023          110 
  356000   0.71183469   -8.6170883    48.949405  0.011458194  0.010997509           99 
  357000   0.68847033   -8.6472113    48.936216   0.01142302  0.010954863          123 
  358000   0.68190697   -8.6262113    48.931122  0.011389926  0.010912523          120 
  359000   0.69875465   -8.6595319      48.8134  0.011330873   0.01087016          108 
  360000   0.69157074   -8.6109299     49.08796  0.011362954   0.01082811          136 
  361000   0.69630492   -8.6354847    48.951108  0.011299886  0.010786257          113 
  362000   0.69040518   -8.6574535    49.013117  0.011282946  0.010744577          122 
  363000   0.69197288     -8.63919    48.918239  0.011230083  0.010703007          126 
  364000   0.67687309   -8.6391764    49.004571  0.011218995   0.01066168          117 
  365000   0.69053231   -8.6644127    48.875886  0.011158878   0.01062056          122 
  366000    0.6896995    -8.651888      48.9407  0.011143147  0.010579529          128 
  367000   0.69201599   -8.6586259    48.955656   0.01111618  0.010538752          119 
  368000   0.67908705   -8.6402945    48.918987  0.011077669  0.010498051          111 
  369000    0.6813653   -8.6705178    48.890173  0.011041141  0.010457646          105 
  370000   0.66837428    -8.663948    48.933282  0.011021009  0.010417414          142 
  371000   0.66854608   -8.6613332    48.956701  0.010996564  0.010377465          134 
  372000   0.68291245   -8.6956502    48.931321  0.010961317  0.010337656          152 
  373000   0.68641428   -8.6880624    48.992459   0.01094559  0.010298028          131 
  374000   0.67369676   -8.6772501    49.095425  0.010939266  0.010258534          158 
  375000   0.66252987   -8.6938046    48.959317  0.010879848  0.010219153          156 
  376000   0.66273527   -8.7140269    48.938826  0.010846371  0.010179933          120 
  377000   0.66160678   -8.7175437    48.888571  0.010806492  0.010140729          133 
  378000   0.65482844   -8.7048378    48.875155  0.010774946  0.010101712          156 
  379000   0.66978333   -8.7069178    48.862072  0.010743639  0.010062767          158 
  380000   0.67010774   -8.7226512    48.877304  0.010718707  0.010024015          144 
  381000    0.6538995   -8.7190171    48.969263  0.010710687  0.009985474          143 
  382000   0.65543482   -8.7283952     48.81632  0.010649284  0.009947068          178 
  383000   0.65311536    -8.738609    48.755276  0.010608198 0.0099088336          162 
  384000    0.6680527   -8.7134593    48.888919  0.010609574 0.0098707029          163 
  385000   0.63873601   -8.7439647    48.865914  0.010577038 0.0098328698          163 
  386000   0.65808083   -8.7353512    48.861403  0.010548662 0.0097952365          210 
  387000   0.63774584   -8.7577346     48.72896  0.010492885 0.0097576448          211 
  388000   0.64851062   -8.7356904     48.89828  0.010502208  0.009720257          211 
  389000   0.64568095   -8.7421277    48.861582  0.010467348 0.0096831965          199 
  390000   0.63424711   -8.7344585    48.827852  0.010433302  0.009646155          164 
  391000   0.64995957   -8.7571101    48.913521  0.010424877 0.0096093097          210 
  392000    0.6355588   -8.7514688    48.882438  0.010391675 0.0095725667          138 
  393000   0.64894449   -8.7598826    48.821719  0.010352358 0.0095360225          143 
  394000   0.64278676     -8.75931    48.822129  0.010326169 0.0094995961          145 
  395000   0.62943057   -8.7754668    48.796686   0.01029466 0.0094632986          168 
  396000   0.63528852   -8.7697801    48.749593  0.010258753 0.0094272503          231 
  397000   0.63257095   -8.7594058    48.743322  0.010231596 0.0093912772          152 
  398000    0.6200256   -8.7644145    48.703863  0.010197626 0.0093555094          200 
  399000   0.62828613   -8.7969184    48.815363  0.010195356 0.0093197751          224 
  400000   0.62699789   -8.7913853    48.780026  0.010162505 0.0092842852          162 
  401000   0.63842375    -8.790471    48.827866  0.010147104  0.009248896          205 
  402000   0.63002942   -8.7929818    48.591049  0.010072771 0.0092136385          192 
  403000    0.6187523    -8.789104    48.696674  0.010069618 0.0091785256          137 
  404000   0.62826654   -8.7910156    48.753312  0.010056376 0.0091435852          152 
  405000    0.6197566   -8.8062687    48.731726  0.010027104 0.0091087998          190 
  406000   0.61594376   -8.8242094    48.586132 0.0099725229 0.0090740733          190 
  407000   0.62509174   -8.8064208     48.61267 0.0099534541 0.0090395102          163 
  408000   0.61806895   -8.8251153    48.694403 0.0099457523 0.0090051272          163 
  409000   0.61512743   -8.8184066    48.623077 0.0099069024 0.0089709182          168 
  410000   0.61726173   -8.8343037    48.653671 0.0098889576 0.0089368211          165 
  411000   0.62579898   -8.8283493    48.592444 0.0098524825 0.0089028705          187 
  412000   0.61163129   -8.8150572    48.619855  0.009834113 0.0088691045          221 
  413000   0.61810124   -8.8374023    48.611207 0.0098085566 0.0088355528          193 
  414000   0.59708346   -8.8273786    48.713426   0.00980544 0.0088021127          204 
  415000   0.59936338   -8.8323819    48.682175 0.0097755371 0.0087689838          195 
  416000   0.58965043   -8.8330894    48.740794 0.0097637808 0.0087359893          188 
  417000   0.61002713   -8.8468747    48.608962 0.0097140213 0.0087030157          161 
  418000   0.60323618   -8.8540435    48.585587 0.0096861218 0.0086702056          198 
  419000   0.59265333   -8.8394936    48.663696 0.0096785394  0.008637575          171 
  420000   0.60207417   -8.8451414    48.604579 0.0096437656 0.0086050478          165 
  421000   0.59651018   -8.8493457    48.688768 0.0096375234 0.0085727021          227 
  422000   0.58420668   -8.8447724    48.605838 0.0095983093  0.008540417          200 
  423000   0.58666873   -8.8518675    48.589253 0.0095723508 0.0085083986          165 
  424000    0.5809502   -8.8819858    48.583656 0.0095486746 0.0084764685          158 
  425000     0.576825   -8.8846768    48.466925 0.0095033185 0.0084446747          186 
  426000   0.60131572   -8.8536077    48.592883 0.0095056499 0.0084130415          214 
  427000   0.59160518   -8.8562169    48.554438 0.0094758857 0.0083816052          241 
  428000   0.57612161    -8.875864     48.46928 0.0094371651 0.0083502724          225 
  429000   0.57953836   -8.8607665     48.52695 0.0094263694 0.0083191242          229 
  430000   0.57657522   -8.8816767    48.452559 0.0093900309 0.0082880846          221 
  431000   0.58180313   -8.8814213    48.540237 0.0093851967 0.0082571412          192 
  432000   0.57702705   -8.8789559    48.674305 0.0093893334 0.0082264346          171 
  433000   0.56821976   -8.8943203    48.533419 0.0093405349 0.0081958498          172 
  434000   0.57430233    -8.871813     48.55747  0.009323631 0.0081653875          184 
  435000   0.57884004   -8.8981094    48.603534 0.0093110218 0.0081350291          202 
  436000   0.56012829   -8.8970645     48.52021 0.0092737404 0.0081048693          209 
  437000   0.57471734   -8.8951023    48.466503 0.0092422775 0.0080747501          239 
  438000   0.56900277   -8.8981238    48.499609  0.009227475 0.0080447823          217 
  439000   0.56028338   -8.9085762    48.441021 0.0091953343 0.0080149645          212 
  440000   0.56302102    -8.895244    48.511368 0.0091877591 0.0079853037          248 
  441000    0.5648586   -8.8944273    48.467469 0.0091586299 0.0079557721          196 
  442000   0.55376046   -8.9028881    48.427152 0.0091303078 0.0079263095          215 
  443000   0.56324881   -8.8989535    48.447391 0.0091135047 0.0078970293          235 
  444000   0.55899919   -8.9222106    48.444987 0.0090925276 0.0078679662          187 
  445000   0.56180852   -8.9163404     48.46344 0.0090755505 0.0078389969          236 
  446000    0.5610521   -8.9317809     48.53316 0.0090682288 0.0078101783          196 
  447000    0.5442007   -8.9012137    48.488336 0.0090395854 0.0077814766          195 
  448000   0.57027239   -8.9182747    48.430259 0.0090086047 0.0077529159          206 
  449000   0.54847714   -8.9242512     48.41853 0.0089863642 0.0077245472          213 
  450000   0.54650999   -8.9476822    48.394874 0.0089620136 0.0076962902          180 
  451000   0.55676588   -8.9543651    48.405029 0.0089440186 0.0076680501          183 
  452000   0.55799654   -8.9400582    48.441309 0.0089309198 0.0076399382          231 
  453000   0.54566768   -8.9458961    48.469431  0.008916378 0.0076119957          211 
  454000   0.54536472   -8.9545255    48.366346 0.0088778168 0.0075841251          204 
  455000   0.53532882   -8.9415235    48.407568 0.0088658549 0.0075564513          245 
  456000   0.53661093   -8.9473529    48.330083  0.008832252 0.0075288536          179 
  457000   0.53869138   -8.9724047    48.344165 0.0088154932 0.0075014096          258 
  458000   0.53369204   -8.9528588    48.369595 0.0088008725 0.0074741432          170 
  459000   0.51917673   -8.9773015    48.303774 0.0087697484 0.0074469513          205 
  460000   0.54306166   -8.9724186    48.351682 0.0087593627  0.007419886          231 
  461000   0.53048274   -8.9566076    48.270157 0.0087256249 0.0073929955          203 
  462000   0.53058875    -8.958456    48.389075 0.0087281881 0.0073661673          223 
  463000   0.53387071   -8.9648385    48.299494 0.0086932135 0.0073395126          195 
  464000    0.5262927   -8.9728705    48.314813 0.0086772294 0.0073129573          213 
  465000   0.52771864    -8.975669     48.40006 0.0086738459 0.0072865586          199 
  466000   0.53040168   -8.9762258     48.45703 0.0086654202 0.0072602919          237 
  467000   0.51866927   -8.9841052    48.346067 0.0086270641 0.0072341506          204 
  468000   0.51679759   -8.9779369    48.354418 0.0086101172 0.0072081466          247 
  469000   0.52852467   -8.9834704    48.308768 0.0085836474 0.0071823117          235 
  470000   0.51611974    -8.993875    48.255581  0.008555954 0.0071565059          247 
  471000   0.52741475   -8.9975743    48.344207 0.0085534691 0.0071308446          185 
  472000   0.52393092   -8.9810636    48.281852 0.0085243383 0.0071053181          233 
  473000   0.50891618   -8.9989639    48.302935 0.0085100308 0.0070799272          213 
  474000   0.51285232   -8.9995957     48.31505 0.0084942071 0.0070546262          224 
  475000   0.50947947   -8.9935436    48.309508 0.0084753523 0.0070294509          175 
  476000    0.5178712   -9.0098726    48.275683 0.0084516252 0.0070044067          212 
  477000   0.51425268    -9.003595    48.274904 0.0084337708 0.0069794452          208 
  478000   0.50077667   -9.0026149    48.331305 0.0084259598 0.0069546778          203 
  479000   0.50448137    -9.008375    48.201622 0.0083858076 0.0069299678          219 
  480000   0.50627006   -9.0160944    48.262689 0.0083789391 0.0069053715          200 
  481000   0.48934024   -9.0221709    48.251056 0.0083595038 0.0068808464          208 
  482000   0.50257749   -9.0201986    48.292592 0.0083493416  0.006856472          234 
  483000   0.49783944   -9.0261497    48.224141 0.0083202451 0.0068322102          242 
  484000    0.4939095   -9.0267824    48.244316 0.0083065283 0.0068080875          228 
  485000   0.49815478   -9.0317273     48.23908 0.0082885017  0.006784066          211 
  486000   0.49376556   -9.0329212    48.234859 0.0082707235 0.0067601329          237 
  487000   0.49441408    -9.045013     48.16282 0.0082414134 0.0067363133          205 
  488000   0.49453973   -9.0438455    48.281992 0.0082448756 0.0067126138          182 
  489000    0.4902331   -9.0314689    48.213331 0.0082163141 0.0066889988          267 
  490000    0.4887308   -9.0377138    48.232791 0.0082028556 0.0066654548          211 
  491000   0.48115594   -9.0357895    48.179057 0.0081770294 0.0066420703          230 
  492000   0.49110562   -9.0467798    48.096952 0.0081465028 0.0066187705          175 
  493000   0.48049174   -9.0653761    48.206874 0.0081485587  0.006595601          220 
  494000   0.47518822   -9.0475211    48.200668 0.0081310169 0.0065725194          248 
  495000   0.47772461   -9.0537233    48.169628 0.0081093649 0.0065495129          204 
  496000   0.46846924   -9.0657084    48.170707 0.0080931968 0.0065266395          197 
  497000   0.47431442   -9.0668263    48.217159 0.0080847014 0.0065038434          183 
  498000   0.48590935   -9.0642251    48.151372 0.0080574585 0.0064811398          202 
  499000   0.46229631   -9.0667856    48.131126 0.0080379302  0.006458566          240 
  500000    0.4651754   -9.0578533     48.19426 0.0080323766 0.0064360964          268 
  501000   0.46850217    -9.077015    48.142488 0.0080077325 0.0064137286          229 
  502000   0.47870484   -9.0626256    48.148071 0.0079927076 0.0063914597          254 
  503000   0.47246779   -9.0654099    48.121571 0.0079724273 0.0063692855          239 
  504000   0.46332357   -9.0520737    48.109038 0.0079545366 0.0063472586          199 
  505000   0.45756611   -9.0713681    48.146583 0.0079449808   0.00632529          207 
  506000   0.45783191   -9.0759433    48.122053 0.0079252393 0.0063034129          223 
  507000   0.45697041    -9.080172    48.168934 0.0079173132 0.0062816761          192 
  508000   0.45655649   -9.0683374    48.068989 0.0078853329 0.0062600254          172 
  509000   0.44771622   -9.0750778    48.042406 0.0078654888  0.006238425          189 
  510000   0.45497787   -9.0881981     48.10451  0.007860214 0.0062169477          242 
  511000   0.44866555   -9.0807821    48.134667   0.00784975 0.0061955512          182 
  512000   0.45284181   -9.0914236    48.043921 0.0078196486 0.0061742629          240 
Loop time of 1292.31 on 48 procs for 500000 steps with 4000 atoms

Performance: 66857.148 tau/day, 386.905 timesteps/s
99.4% CPU use with 48 MPI tasks x no OpenMP threads

MPI task timing breakdown:
Section |  min time  |  avg time  |  max time  |%varavg| %total
---------------------------------------------------------------
Pair    | 86.999     | 96.119     | 102.32     |  36.1 |  7.44
Neigh   | 8.5861     | 9.0267     | 9.4169     |   7.7 |  0.70
Comm    | 81.817     | 88.677     | 98.125     |  40.3 |  6.86
Output  | 1.026      | 1.0272     | 1.0626     |   0.5 |  0.08
Modify  | 1081       | 1085.2     | 1089.6     |   6.2 | 83.98
Other   |            | 12.24      |            |       |  0.95

Nlocal:        83.3333 ave          92 max          76 min
Histogram: 2 6 4 8 5 8 10 1 3 1
Nghost:        2337.29 ave        2354 max        2318 min
Histogram: 1 3 4 7 4 11 7 3 6 2
Neighs:        15959.4 ave       17899 max       14116 min
Histogram: 3 4 2 8 8 7 9 2 3 2
FullNghs:      31919.9 ave       35112 max       29149 min
Histogram: 2 6 4 5 10 6 8 3 2 2

Total # of neighbors = 1532156
Ave neighs/atom = 383.03900
Neighbor list builds = 26636
Dangerous builds = 0

#clear
#
#next RN
#
#jump SELF
Total wall time: 0:21:35
