
units lj                  # Use reduced LJ style units
atom_style atomic         # Uncharged point particles
atom_modify map hash      # Needed for indexing of clusters etc
                          # Used to be able to find where atoms are in relation to each other.

# Define a lattice with which to populate the simulation cell. With units
# set to 'lj' the second argument to the lattice command is the reduced
# density rho* and the spacings are multiples of that required to acheive
# that density. Also define a simulation cell called 'box' in lattice units
# and fill it with atoms. Here we're creating a box which is ten lattice
# constants in each direction.
lattice fcc 1.0 spacing 1 1 1                 # All equal sizes - gives the right reduced density.
Lattice spacing in x,y,z = 1.5874011 1.5874011 1.5874011

region box block 0 10 0 10 0 10 units lattice # Defines a region, "box", in lattice units
create_box 1 box                              # Creates a simulation box as specified above,
Created orthogonal box = (0.0000000 0.0000000 0.0000000) to (15.874011 15.874011 15.874011)
  2 by 4 by 4 MPI processor grid
                                              # with one type of atom
create_atoms 1 box                            # Creates particles on lattice points
Created 4000 atoms
  using lattice units in orthogonal box = (0.0000000 0.0000000 0.0000000) to (15.874011 15.874011 15.874011)
  create_atoms CPU = 0.001 seconds


# Set the mass of the first (and only) atom type.
mass 1 1.0

# Lennard-Jones interactions between particles, 3.5 sigma cut-off. Apply
# long range tail corrections to energy and pressure and set all coefficients
# to unity since we work in reduced units here. Note that this doesn't shift
# the potential such that it goes to zero at the cutoff. That would require
# pair_modify('shift', 'yes').
pair_style lj/cut  3.5      # non-GPU version
pair_modify tail  yes
pair_coeff 1  1  1.0  1.0   # Intearaction between 1 and 1 set with epsilon = 1 and sigma = 1

write_data data.*
System init for write_data ...
Neighbor list info ...
  update every 1 steps, delay 10 steps, check yes
  max neighbors/atom: 2000, page size: 100000
  master list distance cutoff = 3.8
  ghost atom cutoff = 3.8
  binsize = 1.9, bins = 9 9 9
  1 neighbor lists, perpetual/occasional/extra = 1 0 0
  (1) pair lj/cut, perpetual
      attributes: half, newton on
      pair build: half/bin/atomonly/newton
      stencil: half/bin/3d
      bin: standard

#############################
#   M E L T   S Y S T E M   #
#############################

velocity all create 2.4 2750902 mom yes dist gaussian # Assign velocities
                                                    # Temperature 2.4, random number seed, zero linear momentum
						                                                        # Gaussian distribution

timestep 0.002   # simulation timestep
thermo 100       # output thermodynamic data every 100 steps

# Define a fix  in this case with index 1 applied to all
# particles in the simulation. This fix is for simulations
# in the anisotropic NPT ensemble. Note that we use the MTK
# correction.
fix 1 all npt temp 2.4 2.4 0.1 iso 5.68 5.68 0.5 mtk yes tchain 5 pchain 5 # Use NPT ensemble
                                                                         # Set temperature and pressure and damping
                                                                         # Numbers of thermostats in chain and in barostat
run 1000         # run for 10000 steps
Per MPI rank memory allocation (min/avg/max) = 3.660 | 3.660 | 3.660 Mbytes
Step Temp E_pair E_mol TotEng Press Volume 
       0          2.4   -8.3859253            0   -4.7868253   -2.2405722         4000 
     100    1.2608475   -6.5235855            0   -4.6327871    5.4038563    4091.0951 
     200    1.4674745   -6.2960149            0   -4.0953535    6.0843453    4138.9956 
     300    1.5811347   -6.0195196            0   -3.6484105    5.8230308      4272.98 
     400    1.6903552   -5.7119813            0   -3.1770823    5.9377022    4398.4635 
     500    1.7989246   -5.4338299            0   -2.7361176    5.7946904    4546.9323 
     600    1.9022797   -5.1497661            0   -2.2970598    5.8333119    4691.4311 
     700    2.0414959   -4.9561197            0   -1.8946415    5.6184351    4842.6632 
     800    2.1308362   -4.7068196            0   -1.5113644    5.7371792    4975.4569 
     900    2.2803533   -4.5781415            0   -1.1584666    5.7093427    5072.7544 
    1000    2.3672823   -4.4702836            0  -0.92024792    5.6050301    5163.6463 
Loop time of 0.260845 on 32 procs for 1000 steps with 4000 atoms

Performance: 662461.672 tau/day, 3833.690 timesteps/s
99.3% CPU use with 32 MPI tasks x no OpenMP threads

MPI task timing breakdown:
Section |  min time  |  avg time  |  max time  |%varavg| %total
---------------------------------------------------------------
Pair    | 0.13293    | 0.13938    | 0.14781    |   1.0 | 53.43
Neigh   | 0.026054   | 0.027345   | 0.028514   |   0.4 | 10.48
Comm    | 0.064033   | 0.071157   | 0.077738   |   1.5 | 27.28
Output  | 0.00019599 | 0.00020281 | 0.00027669 |   0.0 |  0.08
Modify  | 0.017331   | 0.02089    | 0.024401   |   1.5 |  8.01
Other   |            | 0.001871   |            |       |  0.72

Nlocal:        125.000 ave         135 max         113 min
Histogram: 1 0 2 4 3 13 2 2 3 2
Nghost:        1662.72 ave        1680 max        1643 min
Histogram: 2 1 2 2 6 6 7 2 3 1
Neighs:        11066.0 ave       11928 max       10173 min
Histogram: 2 2 2 5 6 5 4 0 1 5

Total # of neighbors = 354112
Ave neighs/atom = 88.528000
Neighbor list builds = 89
Dangerous builds = 32

# Equilibrate just above the melting temperature to avoid step fn in T

fix 1 all npt temp 1.25 1.25 0.1 iso 5.68 5.68 0.5 mtk yes tchain 5 pchain 5
run 1000
Per MPI rank memory allocation (min/avg/max) = 3.661 | 3.661 | 3.661 Mbytes
Step Temp E_pair E_mol TotEng Press Volume 
    1000    2.3672823   -4.4702836            0  -0.92024792    5.6050301    5163.6463 
    1100    1.9569734    -4.706111            0   -1.7713848    5.4657034    5011.4174 
    1200    1.7262382   -4.9667701            0   -2.3780602    5.5966981    4817.3008 
    1300     1.587552    -5.220701            0   -2.8399684    5.6758355    4663.7229 
    1400    1.4738799   -5.4342144            0   -3.2239472    5.4755949    4569.2977 
    1500    1.3534378   -5.5295528            0   -3.4999037    5.6215529    4496.5144 
    1600    1.2908728   -5.6315259            0   -3.6957007    5.7257345     4433.469 
    1700    1.2788408   -5.7494795            0   -3.8316978    5.6735232     4386.563 
    1800     1.254965   -5.8228809            0   -3.9409041    5.4759615    4370.1173 
    1900     1.226926   -5.8280252            0   -3.9880963    5.6657418    4349.5824 
    2000    1.2829323   -5.8566878            0   -3.9327705    5.6371083    4341.9677 
Loop time of 0.250941 on 32 procs for 1000 steps with 4000 atoms

Performance: 688608.457 tau/day, 3985.003 timesteps/s
99.7% CPU use with 32 MPI tasks x no OpenMP threads

MPI task timing breakdown:
Section |  min time  |  avg time  |  max time  |%varavg| %total
---------------------------------------------------------------
Pair    | 0.13175    | 0.13812    | 0.1457     |   0.7 | 55.04
Neigh   | 0.022306   | 0.023133   | 0.023905   |   0.3 |  9.22
Comm    | 0.058339   | 0.067295   | 0.074619   |   1.2 | 26.82
Output  | 0.00019295 | 0.00019722 | 0.00025704 |   0.0 |  0.08
Modify  | 0.01739    | 0.019952   | 0.023016   |   1.0 |  7.95
Other   |            | 0.002247   |            |       |  0.90

Nlocal:        125.000 ave         131 max         119 min
Histogram: 2 3 5 2 4 4 3 2 3 4
Nghost:        1848.94 ave        1863 max        1828 min
Histogram: 1 0 1 1 3 11 7 3 2 3
Neighs:        13168.5 ave       13949 max       12671 min
Histogram: 5 6 5 1 3 2 3 4 1 2

Total # of neighbors = 421393
Ave neighs/atom = 105.34825
Neighbor list builds = 75
Dangerous builds = 6


# Small amount of linear quench

fix 1 all npt temp 1.25 ${temp} 0.1 iso 5.68 5.68 0.5 mtk yes tchain 5 pchain 5
fix 1 all npt temp 1.25 1.48 0.1 iso 5.68 5.68 0.5 mtk yes tchain 5 pchain 5
run 2000
Per MPI rank memory allocation (min/avg/max) = 3.661 | 3.662 | 3.662 Mbytes
Step Temp E_pair E_mol TotEng Press Volume 
    2000    1.2829323   -5.8566878            0   -3.9327705    5.6371083    4341.9677 
    2100    1.2394837   -5.8488609            0   -3.9901001     5.692812    4339.1445 
    2200    1.2643548   -5.8632505            0   -3.9671924    5.5425163    4347.7183 
    2300    1.2922836   -5.8367864            0   -3.8988455    5.7322413    4343.7208 
    2400    1.2865008   -5.8067532            0   -3.8774844     5.797963    4349.5669 
    2500    1.3128057     -5.75339            0   -3.7846738    6.0337734    4353.1529 
    2600    1.3119415   -5.7655517            0   -3.7981314    5.5795946    4386.4214 
    2700    1.3280432   -5.7685293            0   -3.7769625     5.316939    4412.0103 
    2800      1.32717   -5.7130666            0   -3.7228093    5.4891141    4417.7762 
    2900    1.3598913   -5.7114518            0   -3.6721249    5.5078827    4422.4216 
    3000    1.3883993   -5.6994709            0   -3.6173925    5.6402319     4418.132 
    3100    1.3780635   -5.6869941            0   -3.6204156    5.7318946    4410.8668 
    3200    1.3742268   -5.6883888            0   -3.6275639    5.7061717    4416.6077 
    3300    1.3718882   -5.6262333            0   -3.5689155    5.6057257    4453.6927 
    3400    1.4062545   -5.6169579            0   -3.5081035    5.4961749    4468.2651 
    3500    1.4211208   -5.5950154            0   -3.4638671     5.556353    4476.1961 
    3600    1.4410143   -5.5493092            0   -3.3883281    5.8334061    4470.9667 
    3700    1.4403162   -5.5192531            0    -3.359319    5.7788724    4492.5418 
    3800    1.4567167   -5.5308522            0   -3.3463235    5.5414763    4510.7718 
    3900    1.4743403   -5.5031278            0   -3.2921702    5.5900288    4517.0907 
    4000    1.4677529   -5.4884038            0   -3.2873248    5.6029922    4524.7646 
Loop time of 0.510521 on 32 procs for 2000 steps with 4000 atoms

Performance: 676955.856 tau/day, 3917.569 timesteps/s
99.7% CPU use with 32 MPI tasks x no OpenMP threads

MPI task timing breakdown:
Section |  min time  |  avg time  |  max time  |%varavg| %total
---------------------------------------------------------------
Pair    | 0.27344    | 0.28422    | 0.29304    |   0.9 | 55.67
Neigh   | 0.042532   | 0.043945   | 0.045268   |   0.3 |  8.61
Comm    | 0.12563    | 0.13766    | 0.15095    |   1.6 | 26.96
Output  | 0.00038277 | 0.00039057 | 0.00051183 |   0.0 |  0.08
Modify  | 0.036068   | 0.03946    | 0.0433     |   1.1 |  7.73
Other   |            | 0.004848   |            |       |  0.95

Nlocal:        125.000 ave         133 max         117 min
Histogram: 1 4 0 5 5 6 7 0 2 2
Nghost:        1810.75 ave        1827 max        1789 min
Histogram: 1 2 2 4 4 2 5 3 8 1
Neighs:        12617.1 ave       13789 max       11861 min
Histogram: 3 4 6 3 9 2 0 2 2 1

Total # of neighbors = 403746
Ave neighs/atom = 100.93650
Neighbor list builds = 139
Dangerous builds = 0

#############################
# F R E E Z E  S Y S T E M  #
#############################

# Define solid atoms. This closely follows ten Wolde  Ruiz-Montero and Frenkel  Faraday Discuss  1996  104  93-110
# Compute components of the per-atom q6 vector
compute q6 all orientorder/atom degrees 1 6 components 6 nnn NULL cutoff 1.3 # compute the Q6 parameter.
                                                                             # Use all neighbours within 1.3 unit cell.

# get number of connections
compute coord_number all coord/atom orientorder q6 0.5

# An atom is solid if it has 8 or more connections (of a possible 14)
variable is_solid atom c_coord_number>=8
group solid dynamic all var is_solid    # Must be dynamic to update
dynamic group solid defined

# do clustering
compute cluster solid cluster/atom 1.3 # Create a cluster where all atoms within are solid and max 1.3 units from another member

# define chunks one chunk per cluster
compute clus_chunks solid chunk/atom c_cluster nchunk every compress yes  # Says which atoms are in which chunk

# count the size of each chunk
compute size_chunks solid property/chunk clus_chunks count


# Find the maximum entry in the vector of chunk sizes
variable max_n equal max(c_size_chunks)


# Thermo style which includes this variable
thermo_style custom step temp pe vol v_max_n

thermo ${N}  # Print the thermo information every 100 steps
thermo 100  

# Reset the npt fix at a lower temperature (below freezing)
fix 1  all npt temp  ${temp} ${temp}  0.1  iso  5.68  5.68  0.5  mtk yes tchain  5  pchain  5
fix 1  all npt temp  1.48 ${temp}  0.1  iso  5.68  5.68  0.5  mtk yes tchain  5  pchain  5
fix 1  all npt temp  1.48 1.48  0.1  iso  5.68  5.68  0.5  mtk yes tchain  5  pchain  5

dump dmp2 all dcd ${N} traj_${rand}.dcd
dump dmp2 all dcd 100 traj_${rand}.dcd
dump dmp2 all dcd 100 traj_462431.dcd


# fix rnuntil all halt ${N} v_max_n >= 3980 error soft message no   # Stop when solidified


run 100000 # 5000000  # Run for this many steps
Neighbor list info ...
  update every 1 steps, delay 10 steps, check yes
  max neighbors/atom: 2000, page size: 100000
  master list distance cutoff = 3.8
  ghost atom cutoff = 3.8
  binsize = 1.9, bins = 9 9 9
  4 neighbor lists, perpetual/occasional/extra = 1 3 0
  (1) pair lj/cut, perpetual
      attributes: half, newton on
      pair build: half/bin/atomonly/newton
      stencil: half/bin/3d
      bin: standard
  (2) compute orientorder/atom, occasional
      attributes: full, newton on
      pair build: full/bin/atomonly
      stencil: full/bin/3d
      bin: standard
  (3) compute coord/atom, occasional
      attributes: full, newton on
      pair build: full/bin/atomonly
      stencil: full/bin/3d
      bin: standard
  (4) compute cluster/atom, occasional
      attributes: full, newton on
      pair build: full/bin/atomonly
      stencil: full/bin/3d
      bin: standard
Per MPI rank memory allocation (min/avg/max) = 9.413 | 9.419 | 9.424 Mbytes
Step Temp PotEng Volume v_max_n 
    4000    1.4677529   -5.4884038    4524.7646            2 
    4100    1.4749849   -5.4874902    4519.3453            3 
    4200    1.5122038   -5.4832222    4509.3875            6 
    4300    1.4470119   -5.4907797    4544.5632            6 
    4400    1.4777156   -5.4797384    4534.8367            2 
    4500     1.510319   -5.4447678    4519.2825            2 
    4600    1.5112733   -5.4813587    4516.5669            3 
    4700     1.479203   -5.5100294    4519.6304            3 
    4800    1.4748366   -5.4933517    4524.8578            1 
    4900    1.4612307   -5.4593339    4520.8715            3 
    5000    1.5031225     -5.44397    4523.5212            2 
    5100    1.5029121   -5.4614509    4523.1904            1 
    5200     1.466994   -5.4724346    4535.0607            1 
    5300     1.488427   -5.4393571    4543.5415            3 
    5400    1.4698533   -5.4684379    4527.0937            2 
    5500    1.4810155   -5.4915573    4518.9418            1 
    5600    1.4602786   -5.4836707     4502.397            3 
    5700    1.4801906   -5.5178717    4503.5939            3 
    5800    1.4663431    -5.455778    4530.6058            2 
    5900    1.4820272   -5.4577011    4528.7566            2 
    6000    1.4636651   -5.4921673    4498.8994            2 
    6100    1.4836579    -5.516918    4528.6359            3 
    6200    1.4802765   -5.5198586    4540.0649            6 
    6300    1.5098194   -5.4929141    4512.4481            4 
    6400     1.466297   -5.4645457    4502.1145            1 
    6500    1.4782556   -5.4701166    4519.3212            2 
    6600    1.4697814   -5.4653685     4535.266            2 
    6700    1.4953053   -5.4394844    4543.0538            2 
    6800    1.4609335   -5.4351104    4517.1391            3 
    6900    1.4872432   -5.4888714    4521.2312            2 
    7000     1.461356   -5.4752149    4539.2816            1 
    7100    1.4796634   -5.4179551    4532.1186            2 
    7200    1.4858331    -5.470425    4498.2204            3 
    7300    1.4936249    -5.500993    4503.4238            2 
    7400    1.4398425   -5.5033228    4502.4662            6 
    7500    1.4850857   -5.5139456    4510.3337            1 
    7600    1.4662983   -5.4970989     4530.445            1 
    7700    1.4945627   -5.4826757    4519.0094            2 
    7800    1.4666907   -5.5011219    4502.5333            3 
    7900    1.4976517    -5.469736    4513.6149            2 
    8000    1.4457768   -5.4864501    4532.5721            1 
    8100    1.4918953   -5.4889112    4518.5989            2 
    8200    1.4520005    -5.495566    4489.3404            1 
    8300    1.4715147   -5.4932817    4512.4777            2 
    8400    1.4685203    -5.460625    4511.0464            1 
    8500    1.4862147   -5.4913665    4513.2081            3 
    8600    1.4417977   -5.4885254    4534.0645            2 
    8700    1.5087837   -5.4884197    4509.0351            1 
    8800    1.4848841   -5.4784805    4497.6607            1 
    8900    1.4596961   -5.5166644    4512.3897            1 
    9000    1.4810102   -5.5150494    4530.3637            5 
    9100    1.4857786   -5.4797883     4519.794            2 
    9200    1.4783316   -5.4573862     4506.167            1 
    9300    1.4746089   -5.5307414    4504.8565            2 
    9400     1.472062   -5.4863471    4517.0695            1 
    9500    1.4761756   -5.4421581    4527.0974            3 
    9600    1.4554936   -5.4470468    4528.0971            2 
    9700    1.4810308   -5.5128773    4509.6853            2 
    9800    1.4898154   -5.4579033    4516.1506            3 
    9900    1.4981985    -5.474131    4529.9094            1 
   10000    1.4620603   -5.5029891    4526.9354            2 
   10100    1.4947526    -5.513018    4522.2042            2 
   10200    1.5060464   -5.5175327    4503.4162            1 
   10300    1.4623321   -5.5028521     4508.881            4 
   10400    1.4864714   -5.4959195    4539.0515            4 
   10500    1.4603924   -5.5003368    4514.3988            3 
   10600    1.5013523   -5.5022903    4499.3511            1 
   10700    1.4846401   -5.4686855     4519.336            4 
   10800    1.4927337   -5.4644372    4560.7315            2 
   10900    1.4773844   -5.5044769    4526.6446            3 
   11000      1.48322    -5.488245      4508.33            3 
   11100    1.4726118   -5.4862404     4504.577            3 
   11200    1.4860222   -5.4609518    4521.3743            1 
   11300    1.4330126   -5.4369492    4527.2081            1 
   11400      1.48514   -5.5012408    4515.8354            3 
   11500    1.4975596   -5.4695754    4516.0576            1 
   11600    1.4499461   -5.4848772    4523.3841            2 
   11700    1.4975249   -5.4789077    4515.4351            2 
   11800    1.4488049   -5.4374464    4524.3765            1 
   11900    1.4722625   -5.4432715    4534.1096            1 
   12000    1.4661874   -5.4848068    4492.8839            2 
   12100    1.4734507   -5.4582582    4516.3507            2 
   12200    1.4923694   -5.5028108    4518.2311            2 
   12300     1.448766    -5.464346    4514.5495            2 
   12400     1.496913   -5.4702514    4532.2074            3 
   12500    1.4903642   -5.5054599     4515.067            2 
   12600    1.4206322   -5.4900498    4524.3456            2 
   12700    1.4925114   -5.5044764    4523.3225            2 
   12800    1.4956432   -5.4588634    4500.4513            1 
   12900    1.4848088   -5.5112328    4491.6552            3 
   13000    1.4557986   -5.5143886    4517.3969            1 
   13100    1.4696984   -5.4711073    4546.2509            3 
   13200    1.4967478   -5.4554897    4533.6585            3 
   13300    1.4708614   -5.4672643    4513.6158            1 
   13400    1.4869803   -5.5091206      4534.39            2 
   13500    1.4647531   -5.4959396    4539.9647            5 
   13600    1.5018955   -5.4544382    4539.6598            5 
   13700    1.4726561   -5.4427991    4522.3868            1 
   13800    1.4951945    -5.509428    4505.7935            2 
   13900    1.4644244   -5.5088673    4517.1259            1 
   14000    1.4750419   -5.4952802    4513.4087            3 
   14100    1.5158855   -5.4906031     4541.214            1 
   14200    1.4489847   -5.4647561    4536.1152            1 
   14300    1.4942733   -5.4600398    4525.0528            2 
   14400    1.4663971   -5.4850215    4503.8366            2 
   14500    1.4866958   -5.5151341     4511.461            1 
   14600     1.507726   -5.4790077    4541.2426            2 
   14700    1.4805047   -5.5115524    4509.9425            2 
   14800    1.4679162   -5.5043098    4512.5133            1 
   14900     1.492653   -5.4834612    4534.3247            1 
   15000    1.4880448   -5.4792085    4529.7718            2 
   15100    1.4674753   -5.4878134    4516.0928            3 
   15200    1.4919524   -5.4488253    4531.5734            1 
   15300    1.5052012   -5.4488698    4525.5342            2 
   15400    1.4720919   -5.4940465    4531.2873            2 
   15500    1.4576411   -5.5047593    4529.4639            1 
   15600    1.5124452    -5.464517    4503.9976            2 
   15700    1.4787094   -5.4701372    4518.5394            2 
   15800    1.5239455   -5.4485692    4550.7231            1 
   15900     1.487027   -5.4618571    4524.7509            2 
   16000    1.4878608   -5.4688212    4514.4389            2 
   16100    1.4496047   -5.4746876    4531.3228            1 
   16200    1.4888596   -5.4859464    4520.2797            3 
   16300    1.4930464   -5.5098017     4521.996            1 
   16400    1.4634586   -5.4963008    4516.9755            2 
   16500    1.4747201   -5.4900982    4509.5857            2 
   16600    1.4907177   -5.4474435    4538.7515            3 
   16700    1.4713062   -5.4576517    4539.8039            1 
   16800    1.4584223   -5.4923931    4524.4693            1 
   16900    1.5117376   -5.4867692    4523.2303            1 
   17000    1.4704826   -5.4881465    4531.3988            3 
   17100    1.4856804   -5.4466139    4541.9391            1 
   17200    1.5038824    -5.425218    4535.4385            2 
   17300    1.4709369   -5.4367976     4534.921            1 
   17400    1.4759212   -5.4880446    4514.2754            2 
   17500    1.4697396    -5.436997    4529.0374            2 
   17600    1.5096205   -5.5032205    4515.8618            4 
   17700    1.4679712   -5.4831716    4517.8672            1 
   17800    1.5106102    -5.468043    4514.1877            3 
   17900    1.4785222   -5.4763949    4521.3875            2 
   18000    1.4550673   -5.4644733    4565.3668            2 
   18100    1.5224229   -5.4928363    4528.6736            2 
   18200     1.464937    -5.440232    4524.6137            2 
   18300    1.4950498   -5.4341315    4545.7423            2 
   18400    1.5005187   -5.4865726    4545.6166            1 
   18500     1.490305   -5.5157053    4532.1964            3 
   18600     1.499816   -5.5227799    4510.3842            1 
   18700    1.4701217   -5.4838718     4528.402            3 
   18800    1.4974796   -5.4657052    4525.6389            2 
   18900    1.4763668   -5.4622583    4526.0939            2 
   19000    1.4606169   -5.4761762    4509.4195            1 
   19100    1.5142085   -5.5313613    4512.6705            2 
   19200    1.4664811   -5.4732876    4532.3514            1 
   19300    1.4455074   -5.5205418    4512.9908            2 
   19400     1.477074   -5.4908237    4515.7857            1 
   19500    1.4963462   -5.4960791    4503.5955            1 
   19600    1.4798882   -5.5157925    4501.8661            2 
   19700    1.4442043   -5.4987143    4530.2944            3 
   19800    1.4971571   -5.4982337     4519.203            2 
   19900     1.485131   -5.4630654    4513.7426            1 
   20000     1.484726   -5.4604257    4563.8994            2 
   20100    1.4605232   -5.4769498    4526.0633            4 
   20200    1.4941974    -5.462795    4498.5519            2 
   20300    1.4942583   -5.4994132     4498.805            1 
   20400    1.4315053   -5.5032655     4543.761            2 
   20500    1.4704116   -5.4730315    4536.6103            1 
   20600    1.5265615   -5.4915162    4529.3073            2 
   20700    1.4708557   -5.4873913    4524.7033            1 
   20800     1.466314   -5.4877041    4532.1744            2 
   20900    1.5107508   -5.4784652    4512.2129            3 
   21000    1.4779039   -5.4978911    4494.8752            2 
   21100     1.479044    -5.480287    4516.4567            1 
   21200    1.4866724   -5.5121098    4521.7991            5 
   21300    1.4729559   -5.4813268    4520.4263            1 
   21400    1.4926478   -5.4501931    4541.9247            2 
   21500    1.4831498   -5.4547766    4526.6773            2 
   21600    1.4759976   -5.4956023    4507.6641            5 
   21700    1.4658142   -5.4908813    4511.8819            2 
   21800    1.4658257   -5.4852594    4520.6934            2 
   21900    1.5023222   -5.4983625    4507.4302            2 
   22000    1.4727213   -5.5182733    4502.8295            2 
   22100    1.4837658   -5.5115227     4507.348            2 
   22200    1.4761397   -5.5083536    4506.9751            2 
   22300    1.4776951    -5.440223    4518.8769            1 
   22400    1.4746802   -5.4491137    4525.5887            1 
   22500     1.449437   -5.4900112    4526.2179            2 
   22600    1.5170136   -5.5084332    4503.9023            2 
   22700    1.4674309   -5.4585703    4521.3365            2 
   22800    1.4616579   -5.4686027    4542.3379            1 
   22900     1.485668   -5.5460686    4502.0131            2 
   23000    1.4645906   -5.5186443    4481.8671            1 
   23100    1.4647736   -5.4828156    4519.8137            1 
   23200    1.4920278   -5.5153327    4529.5721            1 
   23300    1.4611048   -5.4882422    4510.2501            1 
   23400    1.5139605   -5.5065246    4519.6943            1 
   23500    1.4910395   -5.5362183     4515.286            2 
   23600    1.4612583   -5.4969065    4530.1858            3 
   23700    1.4918832    -5.467906    4535.1671            4 
   23800    1.4708144   -5.4603524    4503.2488            2 
   23900    1.4782351    -5.490643    4506.3127            2 
   24000    1.4661338   -5.4947655    4518.5404            3 
   24100    1.4581109   -5.4823275    4513.7161            2 
   24200    1.5075659   -5.4748089    4513.0746            2 
   24300    1.4489431   -5.4727126    4503.1678            3 
   24400    1.4569881    -5.528166    4517.7119            6 
   24500    1.4790026   -5.4765389     4524.512            4 
   24600    1.4660605   -5.5018186     4506.417            3 
   24700    1.5002527   -5.5165499    4492.6623            2 
   24800    1.4760073   -5.4729888    4527.4851            1 
   24900    1.4555399   -5.4801277    4519.3736            2 
   25000    1.4661263   -5.4969707    4515.7747            1 
   25100    1.4898164   -5.4817797    4527.3057            2 
   25200    1.4726323   -5.4662794    4513.9479            2 
   25300    1.5174796    -5.470147     4510.903            4 
   25400    1.4716629   -5.5038609    4532.0644            2 
   25500    1.4736023   -5.5172484    4529.3112            3 
   25600    1.4907922   -5.4744485    4504.2294            2 
   25700    1.5364762   -5.4740643    4511.4529            1 
   25800    1.4600467   -5.4663748    4535.0557            2 
   25900     1.458759   -5.4755186    4555.1657            5 
   26000    1.5091915   -5.4540396    4533.6934            1 
   26100    1.4805701   -5.4508359    4525.4006            2 
   26200    1.4810303   -5.4493771     4545.981            1 
   26300    1.4678666   -5.4456378    4538.3112            2 
   26400    1.5147783   -5.5026915    4507.9702            1 
   26500    1.4406934   -5.4714876    4519.3537            1 
   26600    1.4613904    -5.452704      4527.96            2 
   26700    1.5203993   -5.4601447    4521.0269            3 
   26800    1.4796217   -5.4639731    4525.1061            3 
   26900    1.4691125    -5.504329     4523.555            3 
   27000     1.467235    -5.472773    4522.1832            2 
   27100    1.5060211   -5.4750213    4508.7996            2 
   27200    1.4848917   -5.4827142    4512.4215            2 
   27300    1.4562503   -5.4966575    4515.2757            1 
   27400    1.4814769    -5.467471    4514.3487            1 
   27500    1.4788051   -5.4567951    4521.3814            2 
   27600    1.4864249   -5.5130335    4505.8826            2 
   27700    1.4778877   -5.5434268    4511.3933            2 
   27800    1.4692491   -5.4994691    4519.0902            4 
   27900    1.5152075   -5.5139173    4523.8311            1 
   28000    1.4471173    -5.486366    4530.5283            2 
   28100     1.497824   -5.4611873    4521.2526            1 
   28200    1.4821344   -5.4210175    4513.1166            2 
   28300     1.478012   -5.4964229    4519.6288            2 
   28400    1.4724303    -5.529518    4504.4081            2 
   28500    1.4508708   -5.5115011    4516.8999            3 
   28600    1.4627303   -5.4883755     4512.329            4 
   28700     1.527513     -5.47192    4496.1871            1 
   28800    1.4861042   -5.4617762    4508.1237            2 
   28900    1.4297214   -5.4752595    4520.9324            3 
   29000    1.4696983   -5.5425259    4512.6923            5 
   29100    1.4987535   -5.5053149    4515.0051            2 
   29200    1.4854387    -5.492856    4496.7214            1 
   29300    1.4834602   -5.5250547    4500.5919            2 
   29400    1.4905402   -5.4914224    4541.7941            3 
   29500    1.4958834   -5.4852823    4541.2767            2 
   29600    1.4893921   -5.5125878    4508.1702            5 
   29700    1.5180181   -5.4944325    4499.4021            2 
   29800    1.4693331   -5.5067523    4522.1335            1 
   29900    1.5203799   -5.5002644    4541.2042            1 
   30000    1.4684502   -5.4459786    4550.1053            7 
   30100    1.4973985   -5.4848884    4523.0921            1 
   30200    1.4851323   -5.5106218    4502.0081            2 
   30300    1.4752104   -5.5006041    4500.4633            3 
   30400    1.4695676    -5.512926    4506.2392            3 
   30500    1.4637674   -5.4577325    4523.7784            3 
   30600    1.4844866   -5.4768926    4518.1129            2 
   30700    1.4519566   -5.4599378    4527.5778            1 
   30800    1.4867764   -5.4339727    4525.4536            2 
   30900    1.4697573    -5.444207    4519.3981            2 
   31000    1.4377857   -5.4776439    4511.1397            4 
   31100      1.48763   -5.5066306    4523.9452            1 
   31200    1.4868425   -5.4746146    4537.4048            1 
   31300    1.5016293   -5.5148184    4508.3054            1 
   31400    1.4821022   -5.5003629    4507.6893            2 
   31500    1.4973103   -5.4999616    4521.6492            2 
   31600    1.4646302   -5.4829042    4551.4717           12 
   31700    1.5112596   -5.4838142    4528.0852            2 
   31800    1.4631441   -5.4495209    4511.0495            3 
   31900    1.5167843   -5.4630136     4514.221            1 
   32000    1.4599718   -5.4795835    4523.2784            2 
   32100    1.4781492   -5.5203002    4520.0887            2 
   32200    1.5083148   -5.4772514    4516.0558            2 
   32300    1.5032561   -5.4926428    4525.4203            2 
   32400    1.4434142   -5.5038854    4526.9383            2 
   32500    1.4973346   -5.5254376    4528.1024            2 
   32600    1.4878584   -5.4624279    4538.3272            2 
   32700    1.5033184   -5.4693708    4527.4182            1 
   32800    1.4772495   -5.4911611    4532.4979            1 
   32900    1.4835715   -5.5224209    4522.7061            1 
   33000    1.4795458   -5.4967754    4525.6756            4 
   33100    1.4595809   -5.4354174    4525.4281            3 
   33200    1.5080111   -5.4209477    4503.3199            2 
   33300    1.4862218   -5.4413964    4513.6594            2 
   33400    1.4880241   -5.5010545    4538.0078            2 
   33500      1.46203   -5.4788255    4536.5028            5 
   33600    1.4656814   -5.4168277    4522.3658            2 
   33700    1.5211827   -5.4257495    4525.8352            1 
   33800    1.4773687   -5.4528444    4528.7554            1 
   33900    1.4931326   -5.4616633    4539.7373            3 
   34000    1.5069266   -5.4661871    4555.0586            1 
   34100    1.4671372   -5.4834601    4527.3765            3 
   34200    1.4903276   -5.4433666    4513.5896            1 
   34300     1.539145   -5.4434866    4546.2715            1 
   34400    1.4639829    -5.448984    4526.5994            4 
   34500    1.4925345   -5.4844339    4521.6856            4 
   34600    1.5042671   -5.4627816    4532.5137            3 
   34700    1.4748751   -5.4934127    4513.8453            1 
   34800    1.4926689   -5.5207018    4508.2699            1 
   34900      1.47053   -5.5391006    4491.9707            1 
   35000    1.4491573   -5.5435612    4500.0044            5 
   35100    1.5072334   -5.5603493     4510.832            1 
   35200    1.4535699   -5.5148081    4518.4877            2 
   35300    1.5020972   -5.4894876    4509.2828            2 
   35400    1.4724292   -5.4676795    4512.8149            4 
   35500    1.4742757   -5.4605583    4543.2806            2 
   35600     1.487729   -5.4852033    4518.4263            2 
   35700    1.4823781   -5.4741979    4521.9212            1 
   35800    1.4870843   -5.4609952    4528.6967            3 
   35900    1.4974217   -5.5176075    4509.2125            3 
   36000    1.4775487   -5.5253914    4525.9342            2 
   36100    1.4865006   -5.4967057    4541.2618            1 
   36200    1.5212061   -5.4849831    4517.4724            1 
   36300     1.464443   -5.4784412    4510.4552            2 
   36400    1.4915457   -5.4472524    4518.3472            3 
   36500    1.4886115   -5.4897773    4532.7201            2 
   36600    1.4542786   -5.4879928    4513.1318            1 
   36700    1.5080199    -5.480985    4484.7421            3 
   36800    1.4987578   -5.4573647    4509.2984            4 
   36900    1.4701555   -5.5061755    4554.2298            1 
   37000    1.4793761   -5.4895564    4536.7962            1 
   37100    1.5169665   -5.4903245    4520.7727            2 
   37200    1.4789828   -5.4919556    4519.8172            2 
   37300     1.460342   -5.4897353    4515.7982            3 
   37400    1.4916501   -5.4690434    4526.2835            3 
   37500    1.4872314   -5.4847833     4523.372            1 
   37600    1.4894837   -5.4308164    4550.6939            2 
   37700    1.4669996   -5.4523723    4534.5337            4 
   37800    1.4760384   -5.4866865    4511.4337            3 
   37900    1.4699857   -5.5186856    4482.1319            5 
   38000     1.473052   -5.5294338    4503.9765            2 
   38100    1.4729592   -5.5000997    4545.6159            2 
   38200    1.5016681   -5.5246107    4533.9361            3 
   38300    1.4922998   -5.4729267    4513.3883            2 
   38400    1.5095525   -5.4688867    4529.1285            1 
   38500    1.4679345    -5.478355    4524.4868            5 
   38600    1.5067849   -5.4708287    4522.0608            3 
   38700    1.4789303   -5.4994932    4524.8376            2 
   38800    1.4983738   -5.4892795    4534.4022            3 
   38900    1.4678541    -5.453368     4534.375            2 
   39000    1.4978135   -5.4809385    4499.2082            2 
   39100    1.4451054   -5.4724894     4495.272            2 
   39200     1.499244   -5.5099085    4522.4065            3 
   39300    1.4773541   -5.4968908    4533.7652            2 
   39400    1.5263389   -5.5013959     4539.252            1 
   39500    1.4784808   -5.4910375    4522.7584            5 
   39600    1.4824745   -5.4897372    4512.5434            1 
   39700    1.4694749   -5.4721322    4514.9714            3 
   39800    1.4654543   -5.4699525     4553.506            2 
   39900    1.4948597   -5.4366466    4561.5156            4 
   40000    1.5087831   -5.4572264    4528.4435            1 
   40100    1.4791761   -5.4755924    4512.7366            1 
   40200    1.5045631   -5.4729473    4504.1159            3 
   40300    1.4660797    -5.503024     4514.267            1 
   40400    1.4329776   -5.5083099    4521.0583            3 
   40500    1.4907328   -5.4902505    4507.8855            1 
   40600    1.4832611   -5.4568442    4514.5418            1 
   40700     1.467829   -5.4190059    4537.7671            3 
   40800     1.478326    -5.416966    4548.9407            1 
   40900    1.4658229   -5.4558445     4527.342            2 
   41000    1.4672624   -5.4724131    4520.2262            2 
   41100    1.5128314    -5.468258    4526.0189            3 
   41200    1.4685544   -5.4284195     4519.181            2 
   41300    1.4424892    -5.450175    4522.5324            2 
   41400    1.5021598   -5.4667435    4538.6196            3 
   41500    1.4816326   -5.4968866     4525.077            1 
   41600    1.4566972   -5.4776257    4524.8903            3 
   41700    1.5025774   -5.4704792    4519.7581            4 
   41800    1.4866124   -5.4830266     4517.093            3 
   41900    1.4800104   -5.4668769    4539.4839            2 
   42000    1.4802641   -5.4698349    4533.4041            1 
   42100    1.4608668   -5.4493697    4516.9452            2 
   42200    1.5021748   -5.5301891      4509.35            2 
   42300    1.4276315   -5.4809856    4509.4095            3 
   42400    1.4733971   -5.4728769    4522.4185            1 
   42500    1.4957155   -5.4606887     4518.161            4 
   42600    1.4613512    -5.489801    4516.5432            5 
   42700    1.4779551   -5.4820661    4531.1224            3 
   42800    1.4637823   -5.4950818    4531.0522            2 
   42900     1.490269   -5.5045153    4516.9322            2 
   43000    1.4818191   -5.4306698     4525.788            2 
   43100    1.5033396   -5.4803717    4532.5919            6 
   43200    1.4759778   -5.5195623    4517.8336            3 
   43300    1.4805205   -5.5085561    4505.1686            4 
   43400    1.5075633   -5.4947868    4497.5584            4 
   43500    1.4737389   -5.4676261    4495.9932            3 
   43600    1.4705009   -5.5089813    4538.3711            2 
   43700    1.4707282   -5.5307574    4516.2337            3 
   43800    1.5213826   -5.5209076    4497.9632            1 
   43900    1.4624188   -5.4841849    4522.3021            2 
   44000    1.4875035   -5.5135546    4523.9458            3 
   44100     1.488789   -5.5387099    4495.6526            7 
   44200    1.4896617   -5.4911767    4498.3838            3 
   44300    1.4425514   -5.4443527    4520.6974            5 
   44400    1.5080652   -5.4503114    4525.8534            4 
   44500    1.4843362    -5.477807    4524.8837            1 
   44600    1.4563765   -5.4991958    4516.0705            3 
   44700    1.4847666   -5.5028877    4516.6668            1 
   44800    1.5021323   -5.5249825    4515.8841            2 
   44900    1.5089335    -5.504111    4511.8295            2 
   45000    1.4571436   -5.5145297    4530.7464            3 
   45100    1.4721993   -5.4779417    4547.8147            3 
   45200    1.5027755   -5.4689884    4531.1132            1 
   45300    1.4679873   -5.4578469    4529.8769            2 
   45400    1.5059896   -5.4499686    4531.5937            1 
   45500    1.4854931   -5.4579627     4516.477            2 
   45600    1.4674492   -5.4900689    4497.8601            2 
   45700    1.4781956   -5.5023131    4519.8381            2 
   45800    1.4585679    -5.497455    4538.0411            2 
   45900    1.5050312   -5.4770304     4521.833            1 
   46000    1.4762795   -5.4727984    4490.8797            2 
   46100    1.4688119   -5.5411116    4508.2442            6 
   46200     1.471258   -5.5033015    4539.2034            1 
   46300    1.4952493    -5.470336    4535.3698            2 
   46400    1.5233691   -5.4527303    4543.9454            1 
   46500    1.4649954   -5.4298695    4531.3129            3 
   46600    1.4913125   -5.5013364    4523.1244            3 
   46700    1.4579145    -5.489481    4496.0546            4 
   46800    1.4829963   -5.5016744    4519.6457            2 
   46900    1.4466909   -5.4578728    4540.5312            1 
   47000    1.5180816   -5.4721094    4519.7214            4 
   47100    1.4879096   -5.4607296    4533.5464            3 
   47200    1.4746221   -5.4949255     4539.674            1 
   47300    1.4559853   -5.5121866    4509.8695            2 
   47400    1.4402377   -5.5011664    4492.7183            4 
   47500    1.5045798   -5.5215393    4508.8647            4 
   47600    1.4615587   -5.4722215    4517.2661            2 
   47700    1.4824158   -5.4480558    4537.2239            3 
   47800    1.4896467   -5.4751753    4529.6828            2 
   47900    1.4738095     -5.51053    4530.0281            1 
   48000    1.5075448    -5.464615    4509.4538            2 
   48100     1.499683   -5.5007154    4505.4187            2 
   48200     1.450083   -5.4682286    4516.8621            2 
   48300    1.4925246   -5.4652055    4513.2341            2 
   48400    1.4654508   -5.4369357    4529.7853            4 
   48500    1.4631808   -5.4905695    4505.5578            3 
   48600    1.4603602    -5.487542     4494.161            2 
   48700    1.4879339   -5.4714418    4497.8374            3 
   48800    1.4928819   -5.4565063    4505.9801            2 
   48900    1.4643122   -5.5049993    4511.3822            2 
   49000    1.4737306   -5.4778663    4533.3687            2 
   49100     1.497042   -5.4618872    4538.9287            6 
   49200    1.4712634   -5.4937751    4517.0584            2 
   49300    1.4733761   -5.4740933    4518.2519            2 
   49400    1.5088988   -5.4974518    4514.7218            3 
   49500    1.4747069   -5.4935623    4504.6421            5 
   49600    1.4832495   -5.4915038    4546.1175       -1e+20 
   49700    1.4762298   -5.4938095    4514.8772            3 
   49800    1.4778425   -5.5024996    4515.3691            3 
   49900    1.5041812   -5.4907648    4529.5279            4 
   50000    1.4687069   -5.4907757     4526.575            3 
   50100    1.4771599   -5.5317165    4517.6495            1 
   50200    1.4820672   -5.4631061     4537.564            2 
   50300    1.4798454    -5.464766    4529.7089            1 
   50400    1.4759741   -5.4808884    4510.3792            1 
   50500    1.4469468   -5.4416464    4508.0293            1 
   50600    1.5039531   -5.4825403    4522.3827            1 
   50700    1.4762745   -5.5228949    4508.4743            3 
   50800    1.4563732   -5.4696974    4518.8871            1 
   50900    1.4902311   -5.4964546    4515.2559            5 
   51000     1.494237   -5.5078588    4508.3574            2 
   51100    1.5212554   -5.5024344    4538.4791            3 
   51200    1.4588319    -5.461111    4526.1401            2 
   51300    1.4889016   -5.5146209    4529.0743            1 
   51400      1.49636   -5.5139504    4516.0897            3 
   51500    1.4850311   -5.5102266    4486.4433            2 
   51600    1.4862744   -5.4458956    4518.2797            3 
   51700    1.4887055   -5.4561897    4519.1862            2 
   51800    1.4922834   -5.5579682    4514.1486            2 
   51900    1.4371036   -5.5500463     4525.798            4 
   52000    1.4652718   -5.5005006    4503.0938            5 
   52100    1.5172702   -5.5267396    4495.1148            2 
   52200    1.4752353   -5.5265988    4498.8911            2 
   52300    1.4776372   -5.5552498    4496.2043            3 
   52400    1.4662609   -5.4890434    4530.3388            2 
   52500    1.4937582   -5.4737587    4536.2627            1 
   52600    1.4875602   -5.4980404    4518.5155            4 
   52700    1.4841014   -5.4785122    4501.7796            1 
   52800    1.4425561   -5.4930718    4519.6156            4 
   52900    1.5063253   -5.5176276    4534.9248            2 
   53000    1.5291374   -5.5121628    4524.3249            2 
   53100    1.4683965   -5.4971403    4501.2522            3 
   53200    1.4998769   -5.5294104    4510.6902            3 
   53300    1.4528603    -5.532289    4530.0802            1 
   53400    1.4902973   -5.5164356    4538.8923            2 
   53500    1.4825678   -5.4806956    4522.5701            1 
   53600    1.4580908   -5.4870212    4485.2371            1 
   53700    1.4742085   -5.4785046    4514.6423            1 
   53800    1.4968796   -5.4917889    4524.8931            1 
   53900    1.4715753   -5.5144765     4528.756            4 
   54000    1.4579476   -5.4927451    4517.1979            2 
   54100    1.5016643   -5.4755215    4535.8048            2 
   54200    1.4692383   -5.4894611    4527.5922            2 
   54300    1.4963916   -5.4834791    4529.0158            4 
   54400    1.4944702   -5.4885914    4532.1914            3 
   54500     1.476919   -5.5079381    4506.8863            1 
   54600    1.4980426   -5.4548132    4515.6332            2 
   54700    1.4655375   -5.4790851    4532.9233            1 
   54800    1.4768459   -5.4627805     4524.589            1 
   54900    1.4846881   -5.4813817    4500.5446            1 
   55000    1.4598247   -5.4734517     4505.038            3 
   55100     1.489152   -5.4986081     4517.579            2 
   55200    1.4663657   -5.5081772    4520.1286            2 
   55300     1.454047   -5.5345632    4490.3996            3 
   55400    1.4818006   -5.5116186    4514.4268            2 
   55500    1.4646121   -5.4530938    4528.0615            4 
   55600    1.5079099   -5.4357802     4549.163            3 
   55700    1.4914528   -5.4581919    4514.6884            4 
   55800    1.4680856   -5.4625666    4517.8709            2 
   55900    1.4844333    -5.421882    4540.4843            1 
   56000    1.5002475   -5.4558285    4549.8851            2 
   56100    1.4628236    -5.470609    4521.8599            1 
   56200    1.4946068   -5.4902855    4514.7787            2 
   56300     1.501207   -5.4436289     4508.969            1 
   56400    1.4764772   -5.4943809    4534.8737            1 
   56500    1.4367504   -5.5040321     4501.815            1 
   56600    1.4709089   -5.4800234    4516.4776            2 
   56700    1.5067751   -5.4879953    4520.3866            1 
   56800    1.4682047   -5.5149292    4506.7207            5 
   56900    1.4630437    -5.501074    4517.6834            1 
   57000       1.5036   -5.5046329    4512.3308            2 
   57100    1.4846979   -5.4604962    4512.2606            4 
   57200    1.4701704    -5.471844    4542.1199            2 
   57300    1.4682561   -5.4911661    4518.5441            1 
   57400    1.4915993   -5.4962037    4499.1248            2 
   57500    1.4741141   -5.5040666    4516.5183            2 
   57600    1.5025701   -5.4831787    4552.0005            1 
   57700    1.5023326   -5.4896244    4527.1016            1 
   57800    1.4850062   -5.4722265    4512.7253            2 
   57900    1.4604863   -5.4805979    4506.5255            1 
   58000     1.466749   -5.4934958    4511.5418            2 
   58100    1.4883159   -5.4859863    4539.3851            2 
   58200    1.4585849    -5.489351    4526.4952            2 
   58300    1.4884484   -5.4711903    4477.6819            2 
   58400    1.4704913   -5.4740494    4495.0837            2 
   58500    1.4762566   -5.5146703    4535.4929            1 
   58600    1.4475789   -5.5251095    4532.0384            2 
   58700    1.4838662   -5.4795509    4519.4119            2 
   58800    1.4971554    -5.449175    4516.5742            4 
   58900    1.4751315   -5.4777993    4544.5201            2 
   59000    1.4517833   -5.4587323    4508.3075            2 
   59100    1.5136686   -5.4640846    4507.2523            1 
   59200    1.4897089   -5.4832749    4510.7807            2 
   59300    1.4695729    -5.512372    4509.9072            2 
   59400    1.4642754   -5.4759758    4518.7108            3 
   59500    1.4894791   -5.4674983    4508.7778            1 
   59600    1.4659306   -5.4961833    4515.7158            2 
   59700    1.5047658   -5.5080246    4525.8288            4 
   59800    1.4538565   -5.4703285    4522.0659            8 
   59900    1.4680956   -5.4516767     4525.894            1 
   60000    1.5014985   -5.4346258    4526.1488            4 
   60100     1.465719   -5.4718677    4538.8274            1 
   60200    1.4474494   -5.4793277    4535.5612            2 
   60300    1.4979493   -5.4869398    4490.9301            2 
   60400    1.4740689   -5.4618201    4522.3048            2 
   60500    1.4841127   -5.4861844     4548.957            3 
   60600    1.4446205   -5.5030796    4526.7215            3 
   60700    1.5084703   -5.5087257    4495.2502            3 
   60800    1.4965517   -5.4981573    4508.8107            1 
   60900    1.4592287   -5.4410617    4553.1147            2 
   61000    1.4770684   -5.4832261    4525.1239            4 
   61100    1.5035017   -5.5021178    4503.2525            2 
   61200    1.4535139   -5.4969187    4522.1279            1 
   61300    1.4763528   -5.5200571    4530.1612            2 
   61400    1.4724133   -5.5349727    4479.4445            1 
   61500    1.4508126   -5.4960292    4489.0035            3 
   61600    1.4667641   -5.4930299    4515.5255            4 
   61700    1.4947503   -5.5112241    4511.1993            2 
   61800    1.4704698   -5.4970173    4493.0789            3 
   61900    1.4740365    -5.456276    4511.8482            3 
   62000      1.46908   -5.4879055    4530.4057            1 
   62100    1.5045024    -5.467288    4540.2204            2 
   62200    1.4757376   -5.4665839    4525.6272            3 
   62300    1.4652449   -5.5000741    4499.3734            1 
   62400    1.5060856   -5.4832837    4484.3543            3 
   62500    1.4678692   -5.5191623    4528.6274            5 
   62600    1.4554322   -5.4854016    4549.5881            3 
   62700    1.5143459   -5.4754321    4542.9515            1 
   62800    1.5093158   -5.4917938    4514.4375            2 
   62900    1.4737521   -5.4817979    4525.4599            4 
   63000     1.442098     -5.47403    4534.3684            1 
   63100    1.5075985   -5.4787783     4521.802            1 
   63200    1.4845822   -5.4874219    4522.3278            4 
   63300     1.458882    -5.533004    4500.7647            3 
   63400    1.4709601   -5.5175171    4516.4457            2 
   63500     1.482563   -5.4841459    4506.2506            1 
   63600    1.5349631   -5.4843714    4521.9062            2 
   63700    1.4552171   -5.4504906    4535.2093            3 
   63800    1.4277239    -5.467848    4537.7818            5 
   63900    1.5161249   -5.4910813    4510.3107            2 
   64000    1.5014602   -5.4711211    4507.7869            3 
   64100    1.4556016   -5.5021458    4524.6838            1 
   64200    1.4821134   -5.5006553    4540.9856            2 
   64300    1.4673045   -5.4834478    4514.6334            3 
   64400    1.4920897   -5.4441768    4498.8254            2 
   64500    1.5034665    -5.428035    4537.4995            2 
   64600    1.4927251   -5.4603352    4549.0918            3 
   64700    1.4891376   -5.5021411    4550.6765            2 
   64800    1.4847135   -5.4635504    4525.6974            3 
   64900    1.4904803   -5.5195049    4501.8785            1 
   65000    1.4947469   -5.5187571    4516.3552            2 
   65100    1.4566254   -5.4389992    4555.8694            2 
   65200    1.4657907   -5.4010434    4526.5262            2 
   65300    1.5023293   -5.4609451    4511.7217            3 
   65400    1.4694169   -5.4965003     4516.494            2 
   65500    1.4810541   -5.4924675     4515.739            1 
   65600    1.4716609   -5.4309364    4516.6322            1 
   65700    1.4628951   -5.4505891    4543.8685            2 
   65800    1.5273607   -5.4531601    4537.4262            2 
   65900    1.4920955   -5.4742337      4507.73            1 
   66000    1.4503606    -5.481333    4516.6019            1 
   66100    1.4721151   -5.4996007    4513.7398            1 
   66200    1.4758683   -5.5039938    4491.6005            1 
   66300    1.4797627   -5.4746818     4526.418            3 
   66400    1.4964824   -5.5095813    4537.3644            1 
   66500    1.4726829    -5.524249    4535.4527            1 
   66600     1.493824   -5.4727631     4527.405            2 
   66700     1.487838   -5.4617273    4519.3823            2 
   66800    1.4330278   -5.4642885    4516.2461            5 
   66900     1.477162   -5.4814876    4528.3608            2 
   67000    1.4987817   -5.5183419     4512.849            3 
   67100    1.4992915   -5.5112434    4505.6654            1 
   67200    1.5138809   -5.4846878     4541.122            3 
   67300    1.4961739   -5.5187601    4525.2285            1 
   67400    1.4509404   -5.4548908    4516.8794            3 
   67500    1.5198252    -5.461958    4514.4934            1 
   67600    1.4784341   -5.4753532    4513.6333            2 
   67700    1.4750815   -5.5521778    4516.4686            2 
   67800    1.4689241   -5.5236619    4513.1892            2 
   67900    1.4888234   -5.4693087    4524.6351            2 
   68000     1.462113   -5.4770346    4509.7516            2 
   68100    1.4768698   -5.4673877    4510.7363            2 
   68200    1.4687224    -5.478632    4514.6131            1 
   68300    1.4772622   -5.4884458     4511.321            2 
   68400    1.4798882   -5.4689018    4528.8791            2 
   68500    1.4554921   -5.5053821    4511.1893            3 
   68600     1.499888   -5.5382545    4512.8139            2 
   68700    1.4674017   -5.5242099    4504.6639            6 
   68800    1.4828071   -5.5605452    4505.1559            3 
   68900    1.4814737   -5.5180082    4509.5198            2 
   69000    1.5039686    -5.460982    4532.5893            4 
   69100    1.4900509    -5.442177    4495.5493            2 
   69200     1.471761   -5.4640457    4516.3221            2 
   69300    1.4772171    -5.453519    4537.3313            4 
   69400    1.4795827   -5.4733438    4540.1589            2 
   69500    1.4736232   -5.5250545    4515.9075            3 
   69600    1.4961073   -5.4990165    4512.9991            2 
   69700    1.4835549   -5.4711441    4522.4099            2 
   69800    1.4566892   -5.4652396    4531.1252            3 
   69900    1.5035566   -5.5017261     4527.666            2 
   70000     1.489621   -5.5060439    4483.7497            3 
   70100    1.4885934   -5.4837052    4494.6128            2 
   70200    1.4669653   -5.4794944    4539.6348            3 
   70300    1.4657291    -5.488741    4533.4129            2 
   70400    1.4750733   -5.5094667    4490.5384            2 
   70500    1.4800275    -5.493867    4500.1278            2 
   70600    1.4494179   -5.4455952    4542.3803            1 
   70700    1.5054548   -5.4822863    4518.8153            5 
   70800    1.4846328   -5.5018335    4491.9068            2 
   70900    1.4612151    -5.495159     4516.122            1 
   71000    1.4863037   -5.5112603    4517.9714            2 
   71100    1.4632568   -5.5005435    4510.8775            4 
   71200    1.4900496   -5.5161434    4495.1287            2 
   71300    1.5277527   -5.4959514    4509.4762            1 
   71400    1.4646003   -5.4783818    4549.7819            2 
   71500    1.4728857   -5.4968242    4539.9065            1 
   71600    1.4978963   -5.4858846    4521.2202            2 
   71700    1.4839049   -5.5157498    4500.6367            2 
   71800    1.4777342   -5.5073006    4520.0702            1 
   71900    1.4833115   -5.5181753    4534.4182            5 
   72000    1.4848383   -5.4887084    4493.9292            3 
   72100    1.4906923   -5.5011864    4508.4529            4 
   72200    1.4666045   -5.4993696     4527.666            1 
   72300    1.4822096   -5.4756132    4521.7852            1 
   72400    1.4987783   -5.4372057    4543.1945            1 
   72500     1.486696   -5.4699023    4537.9678            1 
   72600      1.49037   -5.4689151    4514.9173            1 
   72700    1.4567536   -5.4816307    4524.5185            3 
   72800    1.4747906   -5.4595768    4538.8787            1 
   72900      1.51067   -5.4433051     4538.306            4 
   73000    1.4604483   -5.4423057    4522.6411            2 
   73100    1.5016764   -5.4855301    4524.8467            2 
   73200    1.4526133   -5.5135019    4529.2514            2 
   73300    1.4775428   -5.4932171    4531.0601            2 
   73400    1.5062983   -5.4323988      4532.27            3 
   73500     1.485951   -5.4434176    4511.7048            3 
   73600    1.4575414   -5.4731544     4520.449            3 
   73700    1.4942488   -5.5055149     4541.501            1 
   73800    1.4642722   -5.4879337    4527.0491            1 
   73900    1.5252737    -5.534095    4502.8724            3 
   74000    1.4644414   -5.4942103    4509.1389            2 
   74100    1.4344245   -5.4753529    4521.5219            1 
   74200    1.4984074   -5.4849897    4526.0436            2 
   74300    1.4685397   -5.4818619    4516.8649            2 
   74400    1.5260047   -5.5332562    4518.2877            3 
   74500    1.4353653   -5.4660054    4520.0877            3 
   74600    1.5321004   -5.4941343    4514.5035            3 
   74700     1.478369   -5.4710078     4537.713            2 
   74800    1.4615068   -5.5251592    4560.8097            3 
   74900    1.4735988   -5.4945511    4515.9639            1 
   75000    1.4869525   -5.4345673    4523.7534            1 
   75100    1.4804432   -5.4439053    4539.8969            1 
   75200    1.4569053   -5.4561675    4533.3545            2 
   75300    1.4932588     -5.47446    4522.0449            2 
   75400    1.4462174   -5.3977895    4533.5865            2 
   75500    1.4921185    -5.492282    4487.3159            2 
   75600    1.4613686   -5.5129911    4507.0518            1 
   75700    1.4615698   -5.4648138    4523.8577            3 
   75800    1.4936688   -5.4603982    4527.9691            1 
   75900    1.4878246   -5.4957284    4537.9303            1 
   76000    1.4578625   -5.4573281     4533.382            1 
   76100    1.5036071   -5.4717588    4513.6643            1 
   76200    1.4643804    -5.479305    4506.3176            1 
   76300    1.4686701    -5.481267    4523.7573            2 
   76400    1.5000223    -5.475625    4535.6808            2 
   76500    1.4878363    -5.463661    4524.6461            1 
   76600    1.4642135   -5.4578692    4522.8936            5 
   76700    1.4726994   -5.4690898    4517.9758            2 
   76800    1.4645259   -5.4746211    4522.2009            4 
   76900    1.5158847   -5.4816306    4529.5532            2 
   77000    1.4540789   -5.4722687    4539.8849            1 
   77100    1.4935779   -5.4973381    4524.2446            2 
   77200    1.4687355   -5.4881207    4496.2416            2 
   77300    1.4651059   -5.4824118    4502.1258            2 
   77400    1.4625651   -5.4966665    4504.6044            3 
   77500    1.4849887   -5.4723723    4528.1486            4 
   77600     1.486973   -5.4792517    4506.9505            4 
   77700    1.4881327   -5.5142449    4515.2753            1 
   77800      1.47457   -5.4563256    4544.6732            2 
   77900    1.5094686    -5.447467    4531.4326            2 
   78000    1.4627514   -5.4775129    4536.0202            2 
   78100    1.4827944   -5.5342333    4517.7577            2 
   78200    1.4838825   -5.5196338    4505.1401            2 
   78300    1.4987495   -5.4819777    4511.0362            2 
   78400    1.5063106   -5.4746112    4525.5379            3 
   78500      1.44155   -5.4687123    4532.0955            2 
   78600    1.4672429   -5.4851618    4522.7582            1 
   78700    1.4847603   -5.4768586    4517.2956            1 
   78800    1.5218866   -5.4516894    4528.8566            1 
   78900    1.4588051    -5.433956    4539.1472            2 
   79000    1.4864048   -5.4834655    4514.2803            3 
   79100    1.4938374   -5.4737334    4517.2093            2 
   79200    1.4660954   -5.4892723    4526.2388            3 
   79300    1.4676929   -5.5303395    4500.7165            2 
   79400    1.4907613    -5.505737    4510.8679            2 
   79500    1.4687667   -5.5189812     4514.718            2 
   79600    1.4773789    -5.494496    4513.2257            2 
   79700    1.4802108   -5.4649889    4519.4453            2 
   79800    1.4736554    -5.485103    4532.4521            1 
   79900     1.458248    -5.485268    4524.7464            2 
   80000    1.5044539   -5.4879833    4514.2927            1 
   80100    1.4795538   -5.4634142    4515.1338            2 
   80200    1.4464186   -5.4805295    4502.6308            1 
   80300     1.482594   -5.4966153    4527.3099            1 
   80400     1.508056   -5.5252002    4516.0434            2 
   80500    1.4795977   -5.5010433    4500.0621            2 
   80600    1.4596073   -5.5087444    4518.2761            1 
   80700    1.5083879   -5.5116964    4532.1664            1 
   80800    1.4834199   -5.5107986    4534.5653            1 
   80900    1.4936182   -5.4497761    4530.9177            2 
   81000    1.4648683   -5.4445302    4519.5797            3 
   81100    1.4919382   -5.4796018    4511.2358            1 
   81200     1.482601   -5.4373364    4517.8187            1 
   81300    1.4838446   -5.4235122    4551.2005            4 
   81400    1.4836011   -5.4594909    4532.1442            1 
   81500    1.4758818    -5.478646    4520.0364            2 
   81600    1.4800636   -5.5494712    4494.2514            4 
   81700    1.4686224   -5.5109602    4504.9374            2 
   81800    1.4836926   -5.4753075    4529.7392            2 
   81900     1.497832   -5.4975534    4521.1857            2 
   82000     1.486335   -5.5108953    4507.7926            1 
   82100    1.4753884   -5.5001205    4503.5524            1 
   82200    1.4850707    -5.505947    4533.1036            1 
   82300    1.4696492   -5.4822503    4528.1007            2 
   82400    1.4598495   -5.4870828    4516.4317            4 
   82500    1.5078057   -5.4900813    4527.6787            2 
   82600    1.4615159   -5.4677165    4528.7299            4 
   82700    1.4894974   -5.5016314    4514.8002            3 
   82800    1.4542736   -5.4862678    4527.2683            2 
   82900    1.4734044   -5.4691637    4540.9046            1 
   83000    1.4712513   -5.4259095    4509.7503            2 
   83100    1.4871162   -5.4401113    4506.8298            1 
   83200    1.4716745   -5.4750411    4516.4082            1 
   83300    1.4592027   -5.5056471    4507.2263            2 
   83400    1.4901321   -5.4855869    4508.6674            2 
   83500     1.492086   -5.5039805    4508.1854            6 
   83600    1.4417759   -5.4922874    4519.1066            3 
   83700    1.4576253   -5.4837766    4537.3559            2 
   83800    1.4825731   -5.4651206    4510.8394            2 
   83900    1.5063641   -5.4730793    4508.0506            1 
   84000    1.4448838   -5.4719683     4533.675            2 
   84100    1.4730857   -5.4571743    4518.7582            3 
   84200    1.5200096   -5.4953712    4511.9882            2 
   84300     1.436622   -5.4711304    4508.7785            3 
   84400    1.4699182   -5.4832548    4520.0356            4 
   84500     1.486938   -5.4608469    4526.3351            1 
   84600    1.4722553    -5.437619    4532.4955            1 
   84700    1.4854783   -5.4990251     4519.425            5 
   84800    1.5251649   -5.4755854    4520.8274            3 
   84900    1.4678944   -5.4759149    4529.1922            2 
   85000    1.4571745   -5.4951058     4528.715            3 
   85100     1.517229   -5.4810252    4505.2947            2 
   85200    1.4930014   -5.5079795    4515.4177            1 
   85300    1.4636839   -5.5401209    4511.3289            4 
   85400    1.4651684   -5.5002743    4507.7013            2 
   85500    1.4849848   -5.5027768    4513.2467            2 
   85600    1.4905883   -5.4599089    4531.2866            1 
   85700    1.4784277   -5.4664497    4507.2241            2 
   85800    1.4464057   -5.4890481    4502.7566            2 
   85900    1.4740207    -5.492567    4504.8021            3 
   86000    1.4861313   -5.4942117     4523.442            2 
   86100    1.4470714   -5.4690974    4552.8316            2 
   86200    1.4899688   -5.4573428    4545.4325            2 
   86300    1.4881594   -5.4679189    4503.6237            2 
   86400     1.479569   -5.4563786    4528.3516            2 
   86500    1.4715308   -5.4746947    4540.7904            2 
   86600    1.5198884    -5.464332    4531.5092            2 
   86700    1.4835035    -5.494023     4522.843            1 
   86800    1.4479338   -5.5029591    4519.7074            2 
   86900    1.4813713   -5.4779884    4515.7406            1 
   87000    1.4726621   -5.4713528    4531.4638            2 
   87100    1.4759852   -5.4878498    4545.7199            1 
   87200    1.4817002   -5.4548374    4510.8125            2 
   87300    1.4835035   -5.4934943    4487.8074            2 
   87400    1.4759841   -5.5162863    4511.4288            1 
   87500    1.4616954   -5.4812841    4540.3497            5 
   87600    1.4972356   -5.4753532    4528.3052            1 
   87700    1.4830634   -5.4914046    4532.3005            1 
   87800    1.4788854   -5.4360659    4559.8922            1 
   87900    1.4865891   -5.4286215    4541.8362            2 
   88000    1.4802501   -5.4200288    4516.3915            1 
   88100    1.4618339   -5.4477407    4505.8942            2 
   88200    1.4847522   -5.5239368    4543.2612            2 
   88300     1.469846    -5.531433     4520.722            3 
   88400    1.4932356   -5.5083458    4501.7578            3 
   88500    1.5002429   -5.4450733    4523.5325            3 
   88600    1.4820831    -5.447188    4540.6844            2 
   88700    1.4644539   -5.4898981    4511.1645            2 
   88800    1.4848361   -5.4738384    4525.7317            1 
   88900    1.4943737    -5.468571    4533.2135            3 
   89000     1.457572   -5.5045772    4520.2054            4 
   89100    1.4808615   -5.4782964    4510.8971            1 
   89200    1.5207896   -5.4558102    4524.5797            2 
   89300    1.4836073   -5.4586335    4519.8416            2 
   89400    1.4761631   -5.4955012    4521.5766            1 
   89500    1.4650761   -5.4981605    4529.2321            1 
   89600    1.4941993   -5.4557504     4533.116            2 
   89700    1.4618102   -5.4721506    4513.5081            2 
   89800      1.49165   -5.4841999    4506.6483            1 
   89900    1.4613157   -5.4447786    4508.8378            1 
   90000    1.4972938   -5.4763124     4526.243            4 
   90100    1.4654222   -5.4807803    4539.6586            1 
   90200    1.4684202   -5.5236078    4496.0792            6 
   90300     1.496436   -5.4774167    4493.3126            2 
   90400    1.4810873   -5.4832415     4521.993            2 
   90500    1.4929893   -5.4804794    4544.9046            2 
   90600    1.4723726   -5.4970194    4522.6695            1 
   90700    1.4679914   -5.4965105    4487.0503            2 
   90800    1.4622792   -5.4756459    4483.0594            3 
   90900    1.4628487   -5.4821642    4522.0865            1 
   91000    1.4910084   -5.4819729    4550.8312            2 
   91100    1.4867065   -5.4877369     4531.474            3 
   91200    1.4875468   -5.4831488    4511.2958            1 
   91300     1.478656   -5.5161778    4509.1345            2 
   91400    1.4729366   -5.5342707    4513.7223            3 
   91500    1.4695458   -5.5023985    4533.5521            2 
   91600    1.4642558   -5.4491525    4520.9039            3 
   91700    1.4940415   -5.4305651    4522.5852            3 
   91800    1.4749637   -5.4604908     4532.679            2 
   91900    1.4642484   -5.4711565    4538.8275            2 
   92000    1.4794639   -5.4703611    4533.3155            2 
   92100     1.493507   -5.4663481    4512.5531            3 
   92200    1.4561177   -5.4548429    4496.4323            3 
   92300      1.49326   -5.4730916    4528.8985            5 
   92400    1.4962397   -5.4826746    4534.9637            4 
   92500    1.4848219   -5.4965793    4509.3904            9 
   92600    1.4688495   -5.5098743     4518.326            1 
   92700    1.4941547   -5.4760264    4541.3729            1 
   92800    1.4871121   -5.5219094    4523.6566            2 
   92900    1.4825128   -5.5160039    4501.7723            2 
   93000    1.4870833   -5.4717083    4508.9109            2 
   93100    1.4812162   -5.4551779    4529.2487            1 
   93200    1.5033429   -5.4729001    4525.7679            1 
   93300     1.478645    -5.526389    4523.9918            2 
   93400    1.4419458   -5.5396728    4521.4135            2 
   93500    1.4858436   -5.4959034    4496.5232            2 
   93600    1.5009431   -5.4946565    4508.1722            1 
   93700    1.4552615   -5.4404396     4541.474            1 
   93800    1.4928365   -5.4809787    4556.3883            1 
   93900    1.4543761   -5.4784568    4518.5302            3 
   94000    1.5021223   -5.5052479    4511.4955            4 
   94100    1.4880665   -5.4467538     4538.537            5 
   94200    1.4891514   -5.4688252    4529.2753            2 
   94300    1.4789606    -5.480901    4507.1663            3 
   94400    1.4861608   -5.5017824     4512.817            3 
   94500    1.4675774   -5.4713636    4531.9752            3 
   94600     1.483865   -5.4918904    4503.7167            3 
   94700     1.472529   -5.5178191    4501.9893            2 
   94800    1.5050897   -5.5195608    4523.0341            2 
   94900    1.4929886   -5.4915577    4543.9753            3 
   95000    1.4521477   -5.4582243    4534.3451            2 
   95100    1.5107603   -5.4827819    4505.1506            2 
   95200    1.4720181   -5.4849189    4491.1047            2 
   95300    1.4516075   -5.5419238    4500.2702            1 
   95400    1.4785207   -5.4929164    4516.2082            2 
   95500    1.4928155    -5.478645    4516.8406            2 
   95600    1.4855613   -5.5471047    4493.0088            2 
   95700    1.4708363   -5.5120189    4516.9834            3 
   95800     1.486147   -5.5065831    4519.9527            2 
   95900    1.5112406   -5.5437418     4510.818            2 
   96000    1.4549957   -5.5140883    4505.4438            2 
   96100    1.4710369   -5.4683854    4527.7103            1 
   96200    1.5174127   -5.4781848    4540.7843            3 
   96300    1.4691819   -5.4661418    4534.2009            3 
   96400    1.4640284   -5.4734275    4524.4568            3 
   96500    1.5154517    -5.493704    4521.0297            3 
   96600    1.4712908   -5.4808805    4520.7679            2 
   96700    1.4680092   -5.4991414    4524.0994            1 
   96800    1.5110538   -5.4801184    4508.1041            1 
   96900    1.4978509   -5.4595663    4524.0627            1 
   97000    1.4752435   -5.5158107    4552.2884            1 
   97100     1.463627   -5.5149081    4522.6699            1 
   97200    1.4810566    -5.487308    4505.9863            1 
   97300    1.4812246   -5.4729548    4516.2051            1 
   97400    1.4824659   -5.5050933    4513.3038            2 
   97500    1.4670607   -5.5611358    4506.6019            3 
   97600    1.4744743   -5.5553778    4510.2026            2 
   97700     1.493637   -5.5071089     4508.798            1 
   97800     1.462735   -5.4357933     4507.724            2 
   97900    1.4826021   -5.4542114    4534.2056            3 
   98000    1.5065129   -5.4755861    4537.2817            1 
   98100    1.4757303   -5.4943643     4529.947            1 
   98200     1.467832   -5.4850282    4521.9008            3 
   98300    1.5016217    -5.471047    4503.2068            3 
   98400    1.5040262   -5.4653989     4528.226            2 
   98500    1.4838468   -5.4871608    4547.1831            3 
   98600    1.4685055   -5.4845951    4523.6282            2 
   98700    1.4746104   -5.5113673    4504.8703            2 
   98800    1.4791704   -5.4969582    4506.2251            4 
   98900    1.4756277   -5.4662651    4536.4814            2 
   99000    1.4714373   -5.4854183    4525.4348            2 
   99100    1.5291638   -5.5050514     4502.634            2 
   99200    1.4707411   -5.5239492    4515.5849            2 
   99300     1.446238   -5.4897163    4517.7793            2 
   99400    1.4983327   -5.4839931    4519.5824            2 
   99500     1.497267    -5.459273    4517.2303            2 
   99600    1.4660554   -5.4953847     4515.858            1 
   99700     1.479207   -5.4853097    4524.7486            2 
   99800    1.4779312   -5.4491264    4542.6857            2 
   99900    1.4547079   -5.4931278    4511.7099            3 
  100000    1.4609323   -5.4661139    4523.3576            1 
  100100    1.4749273   -5.4530989    4514.2249            2 
  100200    1.4787871    -5.455787     4502.121            2 
  100300    1.5028526   -5.4749895     4523.453            3 
  100400    1.4356932   -5.4462781    4540.4298            1 
  100500    1.4969756   -5.4793075    4531.0859            1 
  100600    1.4565625   -5.4655606     4504.411            6 
  100700    1.4901724   -5.4945789    4486.5245            3 
  100800      1.44139   -5.4962367    4520.7237            1 
  100900    1.4390654   -5.4616301     4549.658            3 
  101000    1.4904989   -5.4526761    4520.0856            1 
  101100    1.4705989   -5.4475857    4522.2322            2 
  101200    1.5330528   -5.4678401    4532.8301            1 
  101300    1.4846557   -5.4697071    4548.4884            2 
  101400    1.4769794   -5.5011664    4521.6625            1 
  101500    1.4897795   -5.5250578    4516.0866            1 
  101600    1.4736384   -5.4577027    4517.3935            1 
  101700    1.4733268   -5.4667667    4523.9795            1 
  101800    1.4486489   -5.4970975    4496.2365            2 
  101900    1.4917311   -5.5121585    4511.5215            2 
  102000    1.5140284   -5.5271011    4525.6186            4 
  102100    1.4452931   -5.5145515     4532.136            2 
  102200    1.4898962    -5.518532    4498.6463            2 
  102300    1.4754557   -5.4796278      4476.81            3 
  102400    1.4587167   -5.4999459    4493.2512            3 
  102500    1.4668576   -5.4732198    4534.0239            1 
  102600    1.5031001   -5.4936919    4520.0133            2 
  102700    1.4941115   -5.5411931    4502.1382            1 
  102800    1.4682166   -5.5104471    4502.1254            3 
  102900    1.4903312   -5.4683823    4532.0446            1 
  103000    1.5386117    -5.499583    4520.3245            1 
  103100    1.4627073   -5.4904333     4537.303            1 
  103200    1.5006618    -5.485121    4526.4963            2 
  103300    1.5085393   -5.5166004    4489.5987            2 
  103400    1.4527327   -5.5023016    4507.3528            2 
  103500    1.4759121   -5.4978026    4508.6124            2 
  103600    1.4943249   -5.4665185    4513.5095            3 
  103700    1.4677315   -5.4879317     4533.272            1 
  103800    1.4228409    -5.484666    4499.1964            1 
  103900    1.4930837   -5.4915423    4503.4899            2 
  104000     1.484775   -5.4692954    4532.9113            1 
Loop time of 181.037 on 32 procs for 100000 steps with 4000 atoms

Performance: 95450.234 tau/day, 552.374 timesteps/s
99.7% CPU use with 32 MPI tasks x no OpenMP threads

MPI task timing breakdown:
Section |  min time  |  avg time  |  max time  |%varavg| %total
---------------------------------------------------------------
Pair    | 14.204     | 14.303     | 14.548     |   2.0 |  7.90
Neigh   | 2.2729     | 2.2936     | 2.6102     |   3.8 |  1.27
Comm    | 8.891      | 10.44      | 12.609     |  40.3 |  5.77
Output  | 3.7372     | 3.7379     | 3.7492     |   0.1 |  2.06
Modify  | 144.34     | 147.91     | 150.45     |  17.8 | 81.70
Other   |            | 2.349      |            |       |  1.30

Nlocal:        125.000 ave         136 max         118 min
Histogram: 2 2 6 9 3 4 4 1 0 1
Nghost:        1807.47 ave        1829 max        1790 min
Histogram: 5 1 1 6 6 1 8 3 0 1
Neighs:        12575.9 ave       13960 max       11632 min
Histogram: 3 2 4 5 8 6 2 1 0 1
FullNghs:      25151.4 ave       27407 max       23432 min
Histogram: 2 3 4 6 5 5 4 2 0 1

Total # of neighbors = 804846
Ave neighs/atom = 201.21150
Neighbor list builds = 7220
Dangerous builds = 1

#clear
#
#next RN
#
#jump SELF
Total wall time: 0:03:02
