
units lj                  # Use reduced LJ style units
atom_style atomic         # Uncharged point particles
atom_modify map hash      # Needed for indexing of clusters etc
                          # Used to be able to find where atoms are in relation to each other.

lattice fcc 1.0 spacing 1 1 1
Lattice spacing in x,y,z = 1.5874011 1.5874011 1.5874011
region box block 0 10 0 10 0 10 units lattice
create_box 2 box
Created orthogonal box = (0.0000000 0.0000000 0.0000000) to (15.874011 15.874011 15.874011)
  3 by 4 by 4 MPI processor grid
create_atoms 1 box
Created 4000 atoms
  using lattice units in orthogonal box = (0.0000000 0.0000000 0.0000000) to (15.874011 15.874011 15.874011)
  create_atoms CPU = 0.002 seconds
set type 1 type/fraction 2 0.35 78393
Setting atom values ...
  1418 settings made for type/fraction
mass 1 1.0
mass 2 1.0
pair_style lj/cut  3.5
pair_modify tail  yes
pair_coeff 1  1  1.0  1.0   # Intearaction between 1 and 1 set with epsilon = 1 and sigma = 1
pair_coeff 1  2  1.5  0.8
pair_coeff 2  2  0.5  0.88

write_data data.0
System init for write_data ...
Neighbor list info ...
  update every 1 steps, delay 10 steps, check yes
  max neighbors/atom: 2000, page size: 100000
  master list distance cutoff = 3.8
  ghost atom cutoff = 3.8
  binsize = 1.9, bins = 9 9 9
  1 neighbor lists, perpetual/occasional/extra = 1 0 0
  (1) pair lj/cut, perpetual
      attributes: half, newton on
      pair build: half/bin/atomonly/newton
      stencil: half/bin/3d
      bin: standard
WARNING: Not all mixed pair coeffs generated from mixing. Use write_data with 'pair ij' option to store all pair coeffs. (../write_data.cpp:312)


#############################
#   M E L T   S Y S T E M   #
#############################

velocity all create 2.4 5833274 mom yes dist gaussian # Assign velocities
                                                    # Temperature 2.4, random number seed, zero linear momentum
                                                                                # Gaussian distribution

timestep 0.002   # simulation timestep
thermo 1000       # output thermodynamic data every 1000 steps bf 100

# Define a fix  in this case with index 1 applied to all
# particles in the simulation. This fix is for simulations
# in the anisotropic NPT ensemble. Note that we use the MTK
# correction.
fix 1 all npt temp 2.4 2.4 0.1 iso 5.68 5.68 0.5 mtk yes tchain 5 pchain 5 # Use NPT ensemble
                                                                         # Set temperature and pressure and damping
                                                                         # Numbers of thermostats in chain and in barostat
run 10000          # run for 10000 steps
Per MPI rank memory allocation (min/avg/max) = 3.642 | 3.644 | 3.648 Mbytes
Step Temp E_pair E_mol TotEng Press Volume 
       0          2.4   -6.1483103            0   -2.5492103   -4.0910289         4000 
    1000    2.4298998   -5.0668652            0   -1.4229268    5.4286247    4021.3656 
    2000    2.3789471   -5.0194386            0   -1.4519101    5.6758639    4017.7212 
    3000    2.3622252   -4.9812185            0   -1.4387666    5.8144197    4025.4847 
    4000    2.4221807   -5.1034487            0    -1.471086    5.3356608    4012.4252 
    5000     2.376401   -5.0634818            0   -1.4997715    5.5579067    4004.8341 
    6000    2.3887777   -5.0732632            0   -1.4909925    5.4040952     4015.062 
    7000    2.3692167   -4.9826198            0   -1.4296833    5.5655777    4039.1086 
    8000    2.4480597   -5.0447037            0   -1.3735322    5.9463514    3982.2688 
    9000    2.4081262   -5.0202651            0   -1.4089788    5.5495031    4037.0545 
   10000    2.3956483   -4.9988226            0   -1.4062485    6.4591757    3969.0534 
Loop time of 2.49723 on 48 procs for 10000 steps with 4000 atoms

Performance: 691967.859 tau/day, 4004.444 timesteps/s
99.6% CPU use with 48 MPI tasks x no OpenMP threads

MPI task timing breakdown:
Section |  min time  |  avg time  |  max time  |%varavg| %total
---------------------------------------------------------------
Pair    | 1.081      | 1.1471     | 1.2532     |   3.1 | 45.93
Neigh   | 0.20293    | 0.21407    | 0.2344     |   1.1 |  8.57
Comm    | 0.7484     | 0.85311    | 0.92917    |   4.1 | 34.16
Output  | 0.00024305 | 0.00024773 | 0.0003144  |   0.0 |  0.01
Modify  | 0.23671    | 0.26762    | 0.30735    |   4.3 | 10.72
Other   |            | 0.01513    |            |       |  0.61

Nlocal:        83.3333 ave          91 max          75 min
Histogram: 1 4 3 8 5 10 7 0 5 5
Nghost:        1641.33 ave        1668 max        1618 min
Histogram: 6 4 5 5 4 5 9 3 2 5
Neighs:        9611.42 ave       10852 max        8558 min
Histogram: 4 3 10 9 1 5 5 6 0 5

Total # of neighbors = 461348
Ave neighs/atom = 115.33700
Neighbor list builds = 904
Dangerous builds = 194

# Equilibrate just above the melting temperature to avoid step fn in T

fix 1 all npt temp 1.25 1.25 0.1 iso 5.68 5.68 0.5 mtk yes tchain 5 pchain 5
run 2000
Per MPI rank memory allocation (min/avg/max) = 3.643 | 3.645 | 3.649 Mbytes
Step Temp E_pair E_mol TotEng Press Volume 
   10000    2.3956483   -4.9988226            0   -1.4062485    6.4591757    3969.0534 
   11000     1.250112   -6.9396131            0   -5.0649139    5.6742401    3217.4359 
   12000     1.244041   -7.0179322            0   -5.1523372    5.5674385    3198.5529 
Loop time of 0.590334 on 48 procs for 2000 steps with 4000 atoms

Performance: 585430.941 tau/day, 3387.911 timesteps/s
99.6% CPU use with 48 MPI tasks x no OpenMP threads

MPI task timing breakdown:
Section |  min time  |  avg time  |  max time  |%varavg| %total
---------------------------------------------------------------
Pair    | 0.26358    | 0.28253    | 0.31973    |   1.9 | 47.86
Neigh   | 0.038416   | 0.040599   | 0.048198   |   0.8 |  6.88
Comm    | 0.17635    | 0.21808    | 0.24069    |   2.5 | 36.94
Output  | 5.1261e-05 | 5.6706e-05 | 6.8905e-05 |   0.0 |  0.01
Modify  | 0.040283   | 0.044387   | 0.049867   |   1.0 |  7.52
Other   |            | 0.004689   |            |       |  0.79

Nlocal:        83.3333 ave          94 max          74 min
Histogram: 1 1 4 9 11 11 5 5 0 1
Nghost:        1913.48 ave        1935 max        1894 min
Histogram: 2 5 5 6 4 10 8 4 3 1
Neighs:        11945.2 ave       13569 max       10558 min
Histogram: 3 4 8 6 6 6 6 6 2 1

Total # of neighbors = 573369
Ave neighs/atom = 143.34225
Neighbor list builds = 143
Dangerous builds = 8

#############################
# L I N E A R  Q U E N C H  #
#############################

# Define solid atoms. This closely follows ten Wolde  Ruiz-Montero and Frenkel  Faraday Discuss  1996  104  93-110
# Compute components of the per-atom q6 vector
compute q6 all orientorder/atom degrees 1 6 components 6 nnn NULL cutoff 1.3 # compute the Q6 parameter.
                                                                             # Use all neighbours within 1.3 unit cell.

# get number of connections
compute coord_number all coord/atom orientorder q6 0.5

# An atom is solid if it has 8 or more connections (of a possible 14)
variable is_solid atom c_coord_number>=8
group solid dynamic all var is_solid    # Must be dynamic to update
dynamic group solid defined

# do clustering
compute cluster solid cluster/atom 1.3 # Create a cluster where all atoms within are solid and max 1.3 units from another member

# define chunks one chunk per cluster
compute clus_chunks solid chunk/atom c_cluster nchunk every compress yes  # Says which atoms are in which chunk

# count the size of each chunk
compute size_chunks solid property/chunk clus_chunks count


# Find the maximum entry in the vector of chunk sizes
variable max_n equal max(c_size_chunks)


# Thermo style which includes this variable
# thermo_style custom step temp pe vol v_max_n

thermo ${N}  # Print the thermo information every 100 steps
thermo 1000  

# Reset the npt fix at a lower temperature (below freezing)
fix 1  all npt temp  ${temp} ${temp}  0.1  iso  5.68  5.68  0.5  mtk yes tchain  5  pchain  5
fix 1  all npt temp  0.45 ${temp}  0.1  iso  5.68  5.68  0.5  mtk yes tchain  5  pchain  5
fix 1  all npt temp  0.45 0.45  0.1  iso  5.68  5.68  0.5  mtk yes tchain  5  pchain  5

dump dmp2 all dcd ${N} traj.dcd
dump dmp2 all dcd 1000 traj.dcd


compute msd all msd com yes
variable twopoint equal c_msd[4]/6/(step*dt+1.0e-6)
fix 9 all vector 10 c_msd[4]
variable fit equal slope(f_9)/6/(10*dt)
thermo_style custom step temp pe c_msd[4] v_twopoint v_fit v_max_n

fix 1 all npt temp 1.25 ${temp} 0.1 iso 5.68 5.68 0.5 mtk yes tchain 5 pchain 5
fix 1 all npt temp 1.25 0.45 0.1 iso 5.68 5.68 0.5 mtk yes tchain 5 pchain 5
run 2000000 # 5000000  # Run for this many steps
Neighbor list info ...
  update every 1 steps, delay 10 steps, check yes
  max neighbors/atom: 2000, page size: 100000
  master list distance cutoff = 3.8
  ghost atom cutoff = 3.8
  binsize = 1.9, bins = 8 8 8
  4 neighbor lists, perpetual/occasional/extra = 1 3 0
  (1) pair lj/cut, perpetual
      attributes: half, newton on
      pair build: half/bin/atomonly/newton
      stencil: half/bin/3d
      bin: standard
  (2) compute orientorder/atom, occasional
      attributes: full, newton on
      pair build: full/bin/atomonly
      stencil: full/bin/3d
      bin: standard
  (3) compute coord/atom, occasional
      attributes: full, newton on
      pair build: full/bin/atomonly
      stencil: full/bin/3d
      bin: standard
  (4) compute cluster/atom, occasional
      attributes: full, newton on
      pair build: full/bin/atomonly
      stencil: full/bin/3d
      bin: standard
Per MPI rank memory allocation (min/avg/max) = 9.820 | 9.824 | 9.829 Mbytes
Step Temp PotEng c_msd[4] v_twopoint v_fit v_max_n 
   12000     1.244041   -7.0179322            0            0 8.3333333e+20            3 
   13000    1.2442055   -6.9963099   0.50096497 0.0032113138  0.041058581            2 
   14000    1.2271941   -7.0108223   0.96030153 0.0057160803  0.039010353            1 
   15000    1.2308841   -6.9925138    1.4717375 0.0081763192  0.039758168            1 
   16000     1.227306   -6.9887396    1.9251222  0.010026678  0.040175099            2 
   17000    1.2664768   -6.9776601     2.478484  0.012149431  0.040464892            2 
   18000    1.2389689   -7.0190451    2.8998091  0.013425042  0.040860272            2 
   19000    1.2438069    -7.008429    3.4120841  0.014965281   0.04056987            1 
   20000    1.2782293   -6.9672529    3.9524403  0.016468501  0.040802116            1 
   21000     1.249646    -7.041844    4.3933112  0.017433774  0.040790154            1 
   22000    1.2761788   -7.0000601    4.8930507  0.018534283  0.040814943            1 
   23000    1.2480913   -7.0586095    5.3491611  0.019381018  0.040857263            1 
   24000     1.242156   -6.9903988    5.8299585  0.020242911  0.040597921            2 
   25000    1.2396347   -7.0191731    6.2951628  0.020983875  0.040471134            1 
   26000    1.2631796   -7.0210925    6.6857598  0.021428717  0.040249791            2 
   27000    1.2569905   -6.9872906    7.1300675  0.022006381  0.039937384            2 
   28000     1.247734   -7.0311141    7.6355263   0.02272478   0.03972271            2 
   29000    1.2128916   -7.0265417    8.1851655   0.02352059  0.039722475            2 
   30000    1.2816255   -7.0470731    8.4964757  0.023601321  0.039642243            2 
   31000    1.2350487   -7.0417586     8.973159  0.024121395  0.039475075            2 
   32000    1.2645801   -7.0663073    9.4262146  0.024547433  0.039341678            2 
   33000    1.2594338   -7.0126891     9.937536  0.025094788   0.03925138            4 
   34000    1.2441516   -6.9790255    10.422605  0.025545601  0.039248204            1 
   35000    1.2375905   -6.9892712    10.933792  0.026032837  0.039236503            2 
   36000    1.2289288   -7.0092035    11.450053  0.026504752  0.039272789            1 
   37000    1.2399157   -7.0250805    11.848068  0.026684838  0.039261609            1 
   38000    1.2302981   -7.0251467    12.333936  0.027048105  0.039233883            2 
   39000    1.2275948   -7.0217233     12.91392  0.027593846   0.03925684            1 
   40000    1.2481447   -6.9908379     13.38896  0.027893666  0.039318687            1 
   41000    1.2453499   -7.0108195    13.724884  0.027896106  0.039316835            2 
   42000    1.2367413    -7.058527    14.035458  0.027848132  0.039239911            1 
   43000     1.242493   -7.0188504    14.473453  0.028049327  0.039141029            1 
   44000     1.242386   -7.0175545    15.045772  0.028495779  0.039065965            3 
   45000    1.2350018    -6.994156    15.473314  0.028654285  0.039005045            1 
   46000    1.2382924   -7.0408973    15.919747  0.028840121  0.038949184            1 
   47000    1.2355038   -7.0276172    16.313483  0.028924614  0.038886169            1 
   48000    1.2327366   -7.0666799    16.774127  0.029121748  0.038826901            3 
   49000    1.2488126   -6.9881455    17.328991  0.029471073  0.038789062            2 
   50000    1.2351683   -7.0587992    17.574661  0.029291101  0.038727806            1 
   51000     1.235761   -7.0383372    17.963079  0.029351435  0.038650179            2 
   52000    1.2305608   -7.0195979    18.447377  0.029563103  0.038558832            1 
   53000    1.2029052   -7.0045433    18.839436  0.029621754  0.038474708            3 
   54000    1.2273924   -7.0597019    19.051385  0.029400285  0.038367715            2 
   55000    1.2240074   -7.0425356    19.506798  0.029555754  0.038246004            1 
   56000    1.2156486   -7.0015169    19.984974  0.029739544   0.03813545            2 
   57000    1.2551735   -7.0368405     20.40599  0.029833319  0.038019553            1 
   58000    1.2363004   -7.0382858    20.885769  0.030008289  0.037925097            1 
   59000    1.2283753   -7.0225733    21.261822  0.030030822  0.037839248            3 
   60000    1.2225465   -7.0405098    21.783495  0.030254854  0.037763065            1 
   61000    1.2280766   -7.0377183    22.329639  0.030504972  0.037704122            1 
   62000    1.2127277   -7.0581366    22.623293  0.030407652  0.037647828            1 
   63000    1.2471084   -6.9960302    23.202169  0.030690699  0.037603162            1 
   64000    1.2329926    -7.079955    23.485657  0.030580283  0.037565543            1 
   65000    1.2647264   -7.0242751    23.958577  0.030716124   0.03750807            1 
   66000    1.2438415   -7.0599094    24.236063   0.03060109  0.037435888            2 
   67000    1.2331737   -7.0110037    24.661925  0.030674036  0.037358922            2 
   68000    1.2323067    -7.010686    25.149383  0.030820322  0.037300436            1 
   69000    1.2087508   -7.0574376    25.698562   0.03103691  0.037247692            2 
   70000     1.230523   -7.0454219    26.124953  0.031101134  0.037209406            2 
   71000    1.2359039    -7.022706    26.683432  0.031318582  0.037176728            1 
   72000    1.2316067   -7.0174148    27.224625  0.031509982  0.037163832            1 
   73000    1.1997193   -7.0391662    27.687666  0.031606924  0.037164474            2 
   74000    1.2311786   -7.0442041    27.720262  0.031216511  0.037139044            1 
   75000     1.234939   -7.0601178    28.074913  0.031194348   0.03709646            1 
   76000    1.2214915   -7.0291945    28.517311  0.031268981  0.037039008            1 
   77000    1.2349916   -7.0752136    28.696349  0.031056655  0.036974812            1 
   78000    1.2170244   -7.0480805    29.148897  0.031141984  0.036901424            1 
   79000    1.2327229   -7.0728059    29.571716  0.031193793  0.036831557            2 
   80000    1.2400109   -7.0751104    29.907106  0.031153236  0.036768086            1 
   81000    1.2422553   -7.0763305    30.435888  0.031312642  0.036705238            1 
   82000    1.2126484   -7.0583621    30.895219   0.03139758  0.036643087            1 
   83000    1.2156895    -7.038956     31.15382  0.031278936  0.036583984            1 
   84000    1.2200114   -7.0930902    31.402753  0.031153524  0.036509085            1 
   85000    1.2076172   -7.0929818    31.798401  0.031174903  0.036438256            1 
   86000    1.2234537   -7.0352017    32.334525  0.031331904  0.036376939            2 
   87000    1.1982295   -7.0450169    32.803843  0.031421305  0.036318971            2 
   88000    1.2242924   -7.0713407    33.254757  0.031491247  0.036270016            1 
   89000    1.2130275   -7.1131202    33.602571  0.031463081  0.036215462            2 
   90000    1.2470282   -7.0688383    33.943204  0.031428892  0.036164211            1 
   91000    1.2177109   -7.0590822     34.45666  0.031553718   0.03611571            1 
   92000    1.2127898    -7.044392    34.938905  0.031647559  0.036073422            1 
   93000    1.2186814   -7.0890584     35.40825  0.031727822  0.036043787            2 
   94000    1.2040438   -7.0522514    35.834562  0.031768228  0.036014961            1 
   95000    1.2162383   -7.0642517     36.31129  0.031852009  0.035987331            1 
   96000    1.2184405   -7.0490286    36.727477   0.03188149   0.03595454            1 
   97000    1.2017073   -7.0635296    37.233511  0.031987552  0.035926404            1 
   98000    1.2067659   -7.0895014    37.443449  0.031839667  0.035899767            1 
   99000    1.2226713   -7.1051147     37.76202  0.031786212  0.035867154            1 
  100000    1.2253594   -7.0697719    38.374463  0.031978719  0.035840394            1 
  101000    1.2017317   -7.0853173    38.640812  0.031881858  0.035808487            1 
  102000    1.2086834   -7.0534343    39.233356  0.032053395  0.035782006            1 
  103000    1.2165604   -7.1319537    39.358502  0.031843448  0.035759052            1 
  104000    1.2065255   -7.1041147     39.77365  0.031869912  0.035732379            3 
  105000    1.2206863   -7.1227108    40.323517  0.032002791  0.035706494            3 
  106000    1.2041155    -7.095179    40.659337  0.031964888  0.035683916            1 
  107000    1.2431093   -7.0833662    41.117364  0.032022869  0.035657065            2 
  108000    1.2364189   -7.0979323    41.546186  0.032057242  0.035636128            1 
  109000    1.1920609   -7.0569362    42.114969  0.032197988  0.035612319            1 
  110000    1.2061996   -7.1147812    42.315131  0.032056918   0.03558913            3 
  111000     1.223662   -7.0853727    42.832516  0.032156544  0.035565253            1 
  112000    1.2356889   -7.0526178    43.505213   0.03236995  0.035551058       -1e+20 
  113000    1.2147939   -7.0911228      43.8348  0.032326548  0.035542635            1 
  114000    1.1958018   -7.1025278    44.135997  0.032263156  0.035529117            1 
  115000    1.2177582   -7.0980347    44.487468  0.032237296  0.035511226            3 
  116000    1.1862462   -7.0870328    44.707415  0.032117396  0.035491854            1 
  117000    1.1988239   -7.0658363    44.932307  0.032003068  0.035464223            5 
  118000    1.2082321   -7.1277749    45.469757   0.03211141  0.035438365            1 
  119000    1.1952858   -7.1108876    45.592823  0.031927747  0.035409646            2 
  120000    1.2206541   -7.1231976    46.245917   0.03211522  0.035381629            1 
  121000    1.2017265   -7.1220079    46.653291  0.032130366  0.035354045            2 
  122000    1.1964055   -7.0821138    46.941945   0.03206417  0.035327766            1 
  123000    1.2113083   -7.1286923    47.356402  0.032084283  0.035300528            1 
  124000    1.1868617   -7.0908979    47.784134  0.032112993  0.035272615            1 
  125000    1.2039593   -7.0869967    48.322987  0.032215324  0.035248743            1 
  126000    1.2068296   -7.1001753    48.570279    0.0321232  0.035220242            2 
  127000    1.2099561   -7.1026056    48.835571  0.032044338  0.035191107            1 
  128000    1.2160042   -7.0722291    49.425616  0.032178135  0.035162183            1 
  129000    1.1907917   -7.0790713    50.003735  0.032302154  0.035136977            1 
  130000     1.203244   -7.1082599    50.134609   0.03213757  0.035114359            2 
  131000    1.1960567   -7.0891043    50.761354  0.032290938   0.03509191            2 
  132000     1.199298   -7.0938621    51.107122  0.032264597  0.035074752            1 
  133000    1.1898245   -7.1274171    51.622815  0.032345122  0.035057132            2 
  134000    1.1900395   -7.1455755    52.036629  0.032361088  0.035037757            2 
  135000    1.2212118   -7.1221543    52.345758  0.032312196  0.035021233            3 
  136000    1.2256398    -7.118228    52.723225  0.032305897  0.035004615            2 
  137000    1.2097052   -7.1239978    53.126002  0.032315087  0.034983916            1 
  138000    1.2121867   -7.0961674    53.365876   0.03222577  0.034962406            2 
  139000    1.2183653   -7.1024982    53.572315  0.032117695  0.034935477            1 
  140000    1.1905751   -7.0884869    53.933338  0.032103178  0.034907885            2 
  141000    1.1953669   -7.0895063    54.237238  0.032055105  0.034881349            2 
  142000    1.2056831   -7.1625341    54.557541  0.032017336  0.034850322            1 
  143000    1.1923207   -7.0817933    55.040248  0.032074737  0.034819279            1 
  144000     1.216171    -7.102106    55.475288  0.032103755  0.034790602            1 
  145000    1.2147662   -7.1651383     55.91838     0.032137  0.034763943            4 
  146000     1.187958   -7.1131041    56.364453  0.032171491  0.034736448            1 
  147000    1.1897287   -7.1267392    56.856992  0.032231855  0.034712038            3 
  148000    1.2279132   -7.1523907    57.214735  0.032215504   0.03469036            3 
  149000    1.1901969   -7.1279806    57.822612  0.032339268  0.034674488            1 
  150000    1.1926569   -7.1418197    58.132164  0.032295647  0.034660808            1 
  151000    1.1791827   -7.0896578    58.741555  0.032418077  0.034648462            2 
  152000    1.2028073   -7.1255299    59.125467  0.032415278  0.034632861            2 
  153000    1.1998192   -7.0755307    59.503343  0.032409228  0.034616238            1 
  154000    1.1932699   -7.1387678    59.532102  0.032214341  0.034600574            1 
  155000    1.2192987   -7.1380439    59.929725  0.032220282  0.034581306            1 
  156000    1.2101725   -7.1039544    60.174052  0.032144259  0.034560202            2 
  157000    1.2088192   -7.1179468    60.732798  0.032236092  0.034540386            1 
  158000    1.1835112   -7.1636689    61.001123  0.032173588  0.034518273            2 
  159000    1.1988301   -7.1559768    61.355367  0.032156901  0.034495034            5 
  160000    1.1606271   -7.1468272    61.434629  0.031997203   0.03447054            3 
  161000    1.1909874   -7.1235187    62.175681   0.03218203  0.034444811            2 
  162000    1.2134942   -7.1563856    62.363478  0.032079978  0.034422716            2 
  163000    1.2100671   -7.1489598    62.857289  0.032135628  0.034401171            3 
  164000    1.1806595   -7.1780158    63.206017  0.032116879  0.034378507            1 
  165000    1.2049598   -7.1749585    63.696009  0.032169701  0.034359492            2 
  166000    1.1725374   -7.1992928    64.271618  0.032264868  0.034342584            1 
  167000    1.1760046   -7.1189246    64.899136  0.032384798  0.034327802            1 
  168000    1.1966501   -7.1301828    65.337498  0.032409473  0.034312005            2 
  169000    1.1960109   -7.1481126    65.610953  0.032352541  0.034298005            4 
  170000    1.1963779   -7.1564299     66.01514  0.032360363  0.034282938            3 
  171000     1.162739   -7.1356577     66.15852  0.032240994  0.034269569            2 
  172000     1.181401   -7.1430017     66.48099  0.032209782  0.034254447            3 
  173000    1.1692641   -7.2003091    66.862039  0.032207148  0.034239095            2 
  174000    1.1906029   -7.1714426    67.348629  0.032255091   0.03422432            3 
  175000    1.1900206   -7.1243024    67.981885  0.032372326   0.03421012            1 
  176000    1.1984089   -7.1266109    68.082829  0.032236188  0.034194878            1 
  177000    1.2055928   -7.1461118    68.173541  0.032096771  0.034178309            2 
  178000    1.1931992   -7.1319348    68.594751  0.032113647  0.034158468            1 
  179000    1.1987831   -7.1888122    69.123881  0.032180578  0.034140115            1 
  180000    1.1691902   -7.1595999    69.241911   0.03205644  0.034120165            1 
  181000    1.1773969   -7.1640795    69.707995   0.03209392  0.034101858            1 
  182000    1.1808754    -7.148987    69.957085  0.032031632  0.034080472            2 
  183000    1.1802961    -7.149977    70.318188  0.032021033  0.034060311            1 
  184000    1.1756041   -7.1454102    70.900822   0.03211088  0.034040213            1 
  185000    1.1384794   -7.1439741    71.328375  0.032129898  0.034019543            1 
  186000    1.1806802   -7.1408278    71.390974  0.031985203  0.034000952            1 
  187000    1.1770174   -7.1453814    72.288697  0.032214214  0.033984153            1 
  188000    1.1866484   -7.1585086    72.511913  0.032141805   0.03396957            1 
  189000    1.1762706   -7.1730441    73.118571  0.032239229  0.033956349            1 
  190000    1.1864926   -7.1338394    73.158608  0.032087109  0.033940587            1 
  191000    1.1669746   -7.2039496    73.366035  0.032009614  0.033920621            2 
  192000    1.1748767   -7.1269253    73.808393  0.032034893  0.033901133            1 
  193000    1.1792865   -7.1361474    73.957658  0.031933358   0.03388161            1 
  194000    1.1730924   -7.1891886    74.552492  0.032024266  0.033861456            1 
  195000    1.1984793   -7.1370211    74.739401  0.031939915  0.033840423            2 
  196000    1.1783413   -7.1823736    75.274118  0.032004302  0.033817999            1 
  197000    1.1567906    -7.154186    75.523178  0.031947199  0.033796145            2 
  198000    1.1655696   -7.1646753    75.681435  0.031852456  0.033773788            2 
  199000    1.1785643   -7.1792606     76.18048  0.031901373  0.033751994            1 
  200000     1.186072   -7.1588704    76.845938  0.032019141  0.033730819            1 
  201000     1.158856   -7.1929378     77.32135  0.032056944  0.033711686            4 
  202000    1.1689294   -7.1592724    77.906803   0.03213977  0.033694951            1 
  203000    1.1631886    -7.205706     77.96596  0.032005731  0.033676869            2 
  204000    1.1765181   -7.1995122    78.043581  0.031880548  0.033657592            2 
  205000    1.1910208   -7.1978869    78.278695  0.031820608  0.033638698            2 
  206000    1.1542688   -7.1890246    78.981936  0.031950621  0.033618006            5 
  207000    1.1869343   -7.1415877    79.410377  0.031968751  0.033599531            4 
  208000    1.1622072   -7.1949893    79.629803  0.031902966  0.033582814            2 
  209000    1.1879877   -7.2094275    80.074295   0.03192755  0.033565823            1 
  210000    1.1686302   -7.1663459    80.687196  0.032018728  0.033552012            2 
  211000     1.168994   -7.2106221    80.935823  0.031965175  0.033536993            1 
  212000    1.1689386   -7.1553094    81.333866  0.031970859  0.033519665            3 
  213000    1.1691321   -7.1819434    81.647466  0.031943453  0.033502055            1 
  214000    1.1592332   -7.1665908    82.334451  0.032061702  0.033484737            1 
  215000    1.1434045   -7.1826619    82.238995   0.03187558  0.033467454            2 
  216000    1.1543721   -7.1661287    82.661571  0.031891038  0.033450003            1 
  217000    1.1810109   -7.1906141    82.884401  0.031829647  0.033432262            2 
  218000    1.1626841   -7.1730075     83.09537  0.031764285  0.033412236            2 
  219000    1.1616227   -7.1780689    83.436204  0.031748936    0.0333905            2 
  220000    1.1803806   -7.1802019    84.050015  0.031837127  0.033368719            1 
  221000    1.1825888   -7.2034616     83.82452  0.031608039  0.033347234            2 
  222000    1.1829902   -7.1816801    84.778296  0.031823685  0.033328076            1 
  223000    1.1581062   -7.2001539    84.911733  0.031730842  0.033309109            2 
  224000    1.1726844   -7.1967267    85.423427  0.031779549  0.033292311            2 
  225000    1.1709304   -7.1828395    85.826434  0.031787568  0.033275058            1 
  226000    1.1891841   -7.1379833    86.131005   0.03175922   0.03325826            1 
  227000    1.1681058   -7.1887309    86.674808  0.031818945  0.033242111            1 
  228000     1.149754   -7.1885258    86.930428  0.031772817  0.033225779            2 
  229000    1.1697828   -7.1883797    87.439081  0.031819171   0.03320903            1 
  230000    1.1573978   -7.1509251    88.032168  0.031895713  0.033193279            1 
  231000    1.1644857   -7.1823362    88.167458  0.031806442  0.033176682            1 
  232000    1.1569742   -7.2320067    88.578827  0.031817107  0.033162431            2 
  233000    1.1705089   -7.2114881    88.898023  0.031794715  0.033148937            3 
  234000    1.1595341   -7.2041874    89.229412  0.031776856  0.033133992            1 
  235000    1.1792264   -7.2467454    89.643586  0.031788506   0.03311869            3 
  236000    1.1789655   -7.1796816    90.194946  0.031848498  0.033104267            2 
  237000    1.1344694   -7.1790378    90.651752  0.031874737  0.033090128            1 
  238000    1.1827092   -7.1912335    90.739733  0.031771615  0.033076019            1 
  239000    1.1703435   -7.2203862    90.707275  0.031627362  0.033060126            2 
  240000    1.1298242   -7.1724993    91.109593  0.031635275  0.033043256            2 
  241000    1.1713469   -7.2069114    91.700318   0.03170827  0.033027385            3 
  242000    1.1291701   -7.2050433    91.848487  0.031628267  0.033010974            1 
  243000    1.1750657   -7.2296446    92.414125  0.031692087   0.03299412            1 
  244000    1.1491808   -7.2061161      92.5283  0.031601195  0.032977929            3 
  245000    1.1753709   -7.2041509    92.521493  0.031469896  0.032960251            1 
  246000    1.1406129   -7.2185496    93.537666  0.031686201  0.032944253            2 
  247000    1.1571549   -7.2749524    93.795803  0.031645008  0.032928011            1 
  248000    1.1624989   -7.2346011    94.206959  0.031655564  0.032913545            1 
  249000    1.1744908   -7.2301182    94.795616   0.03172544  0.032900112            2 
  250000    1.1566517    -7.195632    95.177411  0.031725804  0.032886599            2 
  251000    1.1294129   -7.2322439    95.454146  0.031691284  0.032873299            1 
  252000     1.154432   -7.2411416    95.941927  0.031726828  0.032860432            1 
  253000    1.1277855    -7.217129    96.305002  0.031721015  0.032847039            2 
  254000    1.1370104   -7.2203588    96.343622    0.0316088  0.032833314            1 
  255000    1.1359308   -7.2092997    97.047819  0.031714973  0.032819586            1 
  256000    1.1574491   -7.1968177    97.246553  0.031655779  0.032806988            1 
  257000    1.1702749   -7.2374997    97.360234  0.031569466  0.032792324            2 
  258000    1.1507306   -7.2233792    98.022088  0.031660881  0.032778415            1 
  259000    1.1206222   -7.2268542    98.024063  0.031539274  0.032764469            3 
  260000    1.1910403    -7.265122    98.374339  0.031530237  0.032751275            1 
  261000    1.1498477   -7.2185913    98.942217  0.031590746  0.032738499            2 
  262000    1.1652649    -7.251864    99.562932  0.031667599  0.032726055            3 
  263000    1.1198438   -7.2332485    100.12528  0.031725373  0.032714056            2 
  264000    1.1590457   -7.1827124    100.80158   0.03181868  0.032702478            2 
  265000    1.1694192   -7.1870624    100.79555  0.031696713  0.032691825            1 
  266000    1.1504269   -7.2155353    101.32652  0.031743897  0.032680972            1 
  267000    1.1498455   -7.2182713    101.77827  0.031766001  0.032670077            1 
  268000    1.1336804   -7.2175654    101.91257  0.031689232  0.032658936            2 
  269000    1.1599145    -7.252211    102.15544  0.031646667  0.032648248            5 
  270000    1.1530547   -7.2263788    102.69081  0.031694693  0.032636881            1 
  271000    1.1457837   -7.2204293    102.83612  0.031622424   0.03262608            1 
  272000    1.1737676   -7.2162621    103.07955  0.031580745  0.032613979            1 
  273000    1.1858146   -7.2244081    103.33043  0.031541644  0.032602034            2 
  274000    1.1531437   -7.2527095    103.50973  0.031481061  0.032590042            1 
  275000    1.1445061   -7.2582443    104.04855  0.031529865  0.032577228            1 
  276000    1.1191622   -7.1970266    104.62548  0.031589818  0.032565287            3 
  277000    1.1169775   -7.2745542    104.29594  0.031376637  0.032551537            2 
  278000    1.1429674   -7.2153503    104.98041  0.031468948  0.032537039            1 
  279000    1.1675136   -7.2409197    105.16696  0.031411876  0.032522811            1 
  280000    1.1417279    -7.271795    105.43261  0.031378754  0.032507118            2 
  281000    1.1243664   -7.2185651    106.00418  0.031436589  0.032490851            1 
  282000    1.1454771   -7.2379284    106.05998  0.031341603  0.032474374            1 
  283000    1.1055337   -7.2742731    105.75685  0.031141594  0.032456892            2 
  284000    1.1449568   -7.2106792    106.75706  0.031325427   0.03243946            2 
  285000    1.1299725   -7.2598274    106.77155  0.031219752  0.032422082            2 
  286000    1.1189174    -7.209141     107.3213  0.031270774  0.032404076            1 
  287000      1.15563   -7.2522659    107.24932  0.031140918  0.032386966            2 
  288000    1.1453505   -7.2252042    107.74645  0.031176636  0.032369338            1 
  289000    1.1403197   -7.2267951    108.02258  0.031148379  0.032352158            1 
  290000    1.1354052   -7.2996621    108.22183  0.031098226   0.03233509            2 
  291000    1.1265968   -7.2572013    109.02684  0.031221891  0.032317868            1 
  292000    1.1567352   -7.2539712    109.75496  0.031322763  0.032302449            1 
  293000    1.1310916   -7.2699622     109.6276  0.031179635  0.032287661            1 
  294000    1.1193207   -7.2367576    110.60014  0.031349246  0.032272655            3 
  295000     1.111103   -7.2501052    110.51602  0.031219216  0.032258711            2 
  296000    1.1492443   -7.2175565    111.24528  0.031319055   0.03224432            3 
  297000    1.1178799   -7.2818694    110.88437  0.031112336  0.032230039            1 
  298000    1.1494679   -7.2502053    111.72053  0.031241758  0.032215082            1 
  299000    1.1437161   -7.2849754    111.90704  0.031189252  0.032199962            1 
  300000     1.150682   -7.2493821    112.62486  0.031284682  0.032185441            1 
  301000     1.140749   -7.2650778    112.61882  0.031179075  0.032171102            2 
  302000    1.1544739   -7.1891226     113.4381  0.031301905  0.032156601            1 
  303000    1.1363073   -7.2805303    113.10361  0.031106604  0.032142639            1 
  304000    1.1395182   -7.2655649    113.96921  0.031241559  0.032128292            2 
  305000    1.1637938   -7.2763619    113.65738  0.031053929  0.032114134            1 
  306000    1.1145302   -7.2797554    114.05111  0.031059669  0.032098994            4 
  307000    1.1323639   -7.2624567    114.76199  0.031151463  0.032083157            1 
  308000    1.1193545   -7.2616404     114.6172  0.031011147  0.032067891            1 
  309000    1.1212224   -7.2825996    115.21392  0.031071715  0.032052853            1 
  310000    1.1602964    -7.281163     115.3074  0.030996612  0.032037762            1 
  311000    1.0949429   -7.2716806    115.80745  0.031030936  0.032021442            1 
  312000     1.127516   -7.2432478    115.88262  0.030951554  0.032004967            2 
  313000    1.1354405   -7.2232556    116.52014    0.0310224  0.031988986            1 
  314000    1.1325283   -7.2842902    116.61619  0.030949095  0.031972384            2 
  315000    1.1353367   -7.3066265    117.05851  0.030967859   0.03195622            5 
  316000    1.1051923    -7.302727    116.94656  0.030840338  0.031940497            1 
  317000    1.1301077   -7.2759508    117.70604  0.030942704  0.031924349            4 
  318000    1.1304252   -7.2800881    117.98053  0.030917329  0.031908256            6 
  319000    1.1542787   -7.2948086    117.99286  0.030823632  0.031891242            2 
  320000    1.1438044   -7.2752849    117.98574  0.030725453  0.031872943            1 
  321000     1.146248   -7.2598376     118.7695  0.030833202  0.031854101            1 
  322000    1.1337033   -7.2894113    118.76185  0.030735469  0.031837067            1 
  323000    1.1276038   -7.2477214    119.36629  0.030796257  0.031819233            1 
  324000     1.123826   -7.2867734    119.13296  0.030641193  0.031801287            1 
  325000    1.1411979   -7.2786905    119.65976  0.030681989  0.031783558            1 
  326000    1.1369945   -7.2662335    119.81274  0.030626978  0.031764936            2 
  327000    1.1330617   -7.2694777    120.33004  0.030665148  0.031745867            1 
  328000    1.1234502   -7.3064748    120.48683  0.030611491  0.031727585            3 
  329000    1.1334093    -7.267785    121.09804  0.030673263  0.031709635            1 
  330000    1.1412004   -7.2615393     121.4171  0.030660883  0.031691803            3 
  331000    1.1342778   -7.2570614    121.52972  0.030596607  0.031673862            1 
  332000    1.1119497   -7.3064949    121.60306  0.030522857  0.031655643            1 
  333000    1.1395556   -7.2506039    122.80961  0.030733135   0.03163805            2 
  334000    1.0989672   -7.3123241    123.06895  0.030705825  0.031620491            1 
  335000    1.1256246   -7.2766635    122.54306  0.030483348  0.031602041            1 
  336000    1.1408808   -7.3023059    122.98289  0.030501708  0.031582926            1 
  337000    1.1180583   -7.2842294    123.34473  0.030500675  0.031563911            1 
  338000    1.1096687   -7.3156179    123.25438   0.03038816  0.031544284            2 
  339000    1.1164585   -7.3456749     123.6335  0.030391715  0.031525388            3 
  340000    1.1058284   -7.2913773    124.26994   0.03045832  0.031506586            2 
  341000    1.1086094   -7.2914021      124.976  0.030541545   0.03148789            2 
  342000    1.1103196   -7.2780045    124.88652  0.030430439    0.0314685            1 
  343000    1.1011323   -7.3032816    124.88326  0.030340928  0.031448349            1 
  344000    1.1155074   -7.2788527    125.06796  0.030297471  0.031429219            3 
  345000    1.1291998   -7.3183116    125.49127  0.030311901  0.031409273            1 
  346000    1.1467445   -7.3014093    126.13114  0.030378406  0.031390459            3 
  347000     1.098581   -7.2941058    126.18757  0.030304412  0.031371025            1 
  348000       1.1103   -7.3013474    126.27809  0.030239006  0.031350684            1 
  349000    1.1139719    -7.334307    126.53672  0.030214116  0.031330366            3 
  350000    1.1265718   -7.3011004    127.20373  0.030286602  0.031310303            2 
  351000     1.104425   -7.3230489     126.9744  0.030145868  0.031290945            1 
  352000    1.1264183   -7.3268755     127.5166  0.030188588  0.031270835            3 
  353000    1.1049252   -7.2830752    127.86074  0.030184311  0.031250598            2 
  354000    1.1069703   -7.2708955    128.08239  0.030151223   0.03123108            2 
  355000    1.1083598   -7.2775117    128.26023  0.030108035  0.031211265            1 
  356000    1.1194921   -7.3222143     128.8428   0.03015983  0.031191413            4 
  357000    1.0803346   -7.2938557    129.17827  0.030153658  0.031172587            1 
  358000    1.0989149   -7.3392945    129.60297  0.030168289  0.031153829            1 
  359000    1.1126452   -7.3025506    129.55437  0.030072973  0.031134586            2 
  360000    1.1165786   -7.3581462    129.56729  0.029992428  0.031114832            3 
  361000    1.1223008    -7.260898    130.54254  0.030134474  0.031095733            1 
  362000    1.0904218   -7.3189674    130.23967  0.029981507   0.03107627            2 
  363000    1.0970974   -7.3478425    130.24726  0.029900656  0.031055855            2 
  364000    1.1145576   -7.2768086    131.38631  0.030079284  0.031035114            2 
  365000    1.1185257   -7.3496711    130.94837  0.029896889  0.031014557            2 
  366000    1.1020985   -7.3100908    131.42091  0.029922793  0.030994176            2 
  367000    1.0935174   -7.3355714    131.65037  0.029893363  0.030973573            2 
  368000    1.1196985   -7.3175657    131.75966   0.02983688  0.030952317            1 
  369000     1.109297   -7.3266875    132.36753  0.029893299  0.030931458            1 
  370000    1.0660031   -7.2988673    133.17555  0.029994493  0.030910951            2 
  371000    1.1100961   -7.3187674    132.87486  0.029846105  0.030890551            2 
  372000    1.1125161    -7.355514    133.35902  0.029874332  0.030870084            1 
  373000    1.1143021   -7.3077787     133.5762  0.029842761  0.030850004            4 
  374000    1.1313861   -7.3099623    134.50807  0.029970603  0.030830744            1 
  375000    1.1039886   -7.3761778    133.64466  0.029698814   0.03081086            1 
  376000    1.1263448   -7.3065257    134.41372  0.029790276  0.030790603            2 
  377000    1.1016293   -7.3296436    134.93146  0.029825699  0.030770732            1 
  378000    1.1042333   -7.2996855    135.27718  0.029823011  0.030751167            1 
  379000    1.0998505   -7.3495532    135.57199  0.029809145  0.030731095            2 
  380000    1.0885428   -7.3505558    135.37499  0.029687498  0.030711046            1 
  381000    1.0967675   -7.3507119    135.51442  0.029640074  0.030691144            1 
  382000    1.1304522   -7.3280435    136.09151  0.029688375  0.030671198            1 
  383000    1.0792651   -7.3248169    136.82373  0.029770176  0.030651046            4 
  384000    1.1009592   -7.3432249    136.41243  0.029603392  0.030630918            1 
  385000    1.1172805   -7.3347844    137.01444  0.029656805  0.030611219            3 
  386000    1.0975867   -7.3420641    137.62759  0.029712347  0.030591841            1 
  387000    1.0935619   -7.3269436    137.81866  0.029676715   0.03057255            1 
  388000    1.0951811   -7.3548134    137.60168  0.029553626  0.030552734            3 
  389000     1.106857   -7.3268237    138.31207  0.029629835  0.030533141            1 
  390000      1.10651   -7.3340136    138.24819  0.029540211  0.030513941            3 
  391000    1.1095843   -7.3747818    138.76039  0.029573826  0.030494535            1 
  392000    1.0927915   -7.3262858    139.40762  0.029635973  0.030475382            1 
  393000    1.0988334   -7.3294038    139.44026  0.029567484  0.030455896            3 
  394000    1.0801707   -7.3673815    139.77734  0.029563736  0.030436762            1 
  395000    1.0981485    -7.363855    139.96153  0.029527749  0.030416992            3 
  396000    1.0656806   -7.3622787    140.28492  0.029521238  0.030397992            3 
  397000    1.0952195   -7.3257299    140.69314  0.029532565  0.030378142            1 
  398000    1.0973718    -7.354911    140.89615  0.029500869  0.030359212            2 
  399000    1.1122838   -7.3471078    141.37735  0.029527432  0.030340391            1 
  400000    1.1112374   -7.3681429    141.44018  0.029466704  0.030321276            3 
  401000    1.0925118   -7.3912388    141.33713  0.029371806  0.030302078            1 
  402000    1.1062905   -7.3514656    142.09687  0.029456233   0.03028325            1 
  403000    1.0906903   -7.3327294    142.17287  0.029398857  0.030264855            1 
  404000    1.0903745   -7.3591096    142.65928  0.029426418   0.03024589            3 
  405000    1.0870569   -7.3712087     142.4512  0.029310947   0.03022615            1 
  406000    1.1006192   -7.3852869    142.64076   0.02927766  0.030206363            1 
  407000    1.0957938   -7.3467253    143.42808  0.029366929  0.030186801            4 
  408000    1.0571944    -7.325934    143.32115  0.029273112  0.030167208            2 
  409000    1.0976322    -7.378049    143.71947  0.029282695  0.030148322            2 
  410000    1.0906688   -7.3706241     144.2168  0.029312357  0.030129142            1 
  411000    1.0967101   -7.3646136    144.63404  0.029325638  0.030110315            1 
  412000    1.0743484   -7.3761172    144.74803  0.029277514  0.030091724            1 
  413000    1.1248612   -7.3932054    144.56964   0.02917063  0.030072555            1 
  414000    1.0950409   -7.3605279    145.23628  0.029234355  0.030053453            1 
  415000    1.0949974   -7.3394356     145.6825  0.029253515  0.030034173            2 
  416000    1.0856933   -7.3641018     145.6961  0.029185918  0.030014958            1 
  417000    1.0803542   -7.3608376    145.64995  0.029106704  0.029994644            3 
  418000    1.1055249    -7.341838    145.95957  0.029098797  0.029974093            1 
  419000    1.0801794    -7.358797    145.88911  0.029015337  0.029953792            2 
  420000    1.1096526   -7.4205104    146.26349  0.029020533  0.029933636            1 
  421000    1.0883375   -7.3630415    147.01152  0.029099668  0.029913171            2 
  422000    1.0876851   -7.4192524    146.49429  0.028928573  0.029892561            2 
  423000    1.1108901   -7.3777359    146.67339  0.028895467   0.02987241            3 
  424000    1.0750856    -7.380216    147.12014  0.028915122  0.029851523            2 
  425000     1.078524   -7.3744806    147.41469  0.028904841  0.029830725            2 
  426000    1.0598313   -7.4225577    147.62779  0.028878676  0.029809597            3 
  427000    1.0817777   -7.3668088    148.15696  0.028914318   0.02978849            4 
  428000    1.0853929   -7.3796014    147.67514  0.028752947   0.02976657            1 
  429000    1.0674611   -7.4152856    148.32989   0.02881311  0.029745101            3 
  430000     1.064954    -7.359248    149.08564  0.028892565  0.029724304            3 
  431000    1.0777763   -7.3744671    149.27244  0.028861647  0.029703963            2 
  432000    1.0774346   -7.3467183    149.22684  0.028786042  0.029683157            1 
  433000    1.0593444   -7.3719078    150.09117  0.028885906  0.029662403            2 
  434000    1.0652673   -7.4058933    149.68811  0.028741957  0.029641765            3 
  435000     1.071867   -7.3646345    150.69582   0.02886893  0.029621788            3 
  436000    1.0823864   -7.3839602    150.14625  0.028697678  0.029601638            1 
  437000    1.0816302   -7.4050991    150.38101  0.028676775  0.029581102            2 
  438000    1.0705015   -7.4224788    150.54692  0.028642869  0.029559995            2 
  439000    1.1152277   -7.3957607    151.34603  0.028729314   0.02953892            1 
  440000    1.0668261   -7.3485768    151.90652  0.028770174  0.029518609            2 
  441000    1.0858614   -7.3735821    151.75558  0.028676414  0.029498193            1 
  442000    1.0695538   -7.3740131    151.79059  0.028618135  0.029477549            1 
  443000    1.0886205   -7.3925746    151.95275  0.028584039  0.029456858            2 
  444000    1.0679941    -7.402491     152.4768  0.028618017  0.029436644            1 
  445000    1.0723107   -7.4044224    152.80659  0.028615467  0.029417135            1 
  446000    1.0848096   -7.3741189    153.89039  0.028753809   0.02939762            3 
  447000    1.0567148   -7.3543473    153.63041  0.028641016  0.029378817            3 
  448000    1.0563685   -7.3967702    154.33803  0.028708711  0.029359758            4 
  449000    1.0796598   -7.3717668    154.27485  0.028633045  0.029340866            1 
  450000    1.0763512   -7.3812114    155.17845  0.028736751  0.029322616            2 
  451000     1.069101   -7.4238515    154.81348  0.028605594  0.029304707            1 
  452000    1.0894464   -7.3592252    156.16282   0.02879108  0.029287299            2 
  453000    1.0806962   -7.3861168    156.07527  0.028711419  0.029269482            2 
  454000    1.0905832   -7.3935956    156.33531  0.028695909  0.029252061            1 
  455000    1.0761393   -7.3810258    156.26661  0.028620257  0.029234517            2 
  456000    1.0585972   -7.4180866    156.35129   0.02857297  0.029216674            2 
  457000    1.0612596   -7.3626513    157.11137  0.028649046  0.029199089            1 
  458000    1.0602132   -7.4274622    156.70589  0.028512717  0.029181514            4 
  459000    1.0875534   -7.4121902    157.19345  0.028539116  0.029163134            2 
  460000    1.0581663   -7.3937397     157.3942  0.028513443  0.029145483            5 
  461000     1.070245    -7.420663    157.79731  0.028524459  0.029127579            2 
  462000    1.0607014   -7.3586446    158.34004  0.028560614  0.029109974            1 
  463000    1.0743763   -7.4222586    158.25982  0.028484489  0.029092445            2 
  464000    1.0991223   -7.4174318    158.44117   0.02845567  0.029074149            3 
  465000    1.0518066   -7.4280072     158.5376  0.028411756  0.029056093            4 
  466000     1.087999   -7.4102474    158.50406   0.02834479  0.029037679            1 
  467000    1.0838882   -7.4302524    159.21355  0.028410697  0.029019186            1 
  468000    1.0628551   -7.4244905    159.57728  0.028414757   0.02900091            2 
  469000    1.0537506   -7.4570592    159.61203  0.028360346  0.028982673            1 
  470000    1.0654291   -7.4242228    160.17268  0.028399412  0.028965174            4 
  471000    1.0833671    -7.434529    160.02046  0.028312183  0.028947484            1 
  472000    1.0775806   -7.4096979    160.91049  0.028409338   0.02893037            4 
  473000    1.0676571   -7.4042561    160.88888  0.028345469  0.028913269            2 
  474000     1.075083    -7.418111    161.42707  0.028380287   0.02889595            1 
  475000    1.0632209   -7.4422746    160.91892  0.028231389  0.028878837            1 
  476000     1.095751   -7.4331445    161.63062  0.028296677  0.028861175            2 
  477000    1.0677133   -7.4338786    161.66413  0.028243209  0.028843617            1 
  478000    1.0568495   -7.4056719    162.04263   0.02825011  0.028826105            2 
  479000    1.0387791   -7.4674188      161.649  0.028122652  0.028808183            1 
  480000    1.0589875   -7.4353474    162.35427  0.028186504  0.028789963            3 
  481000    1.0869718   -7.4030996    162.55756  0.028163125  0.028771657            3 
  482000    1.0745253    -7.458067    162.59117  0.028110506  0.028753491            1 
  483000    1.0649963   -7.4725871    162.37156  0.028014417  0.028734374            2 
  484000    1.0524697   -7.4451765    163.15092  0.028090723  0.028715062            2 
  485000    1.0580087   -7.4082462    162.98214  0.028003805   0.02869547            4 
  486000    1.0685762   -7.4289458    162.88024   0.02792871  0.028675596            1 
  487000     1.063042   -7.4187808    163.27656  0.027939179   0.02865598            1 
  488000    1.0841565   -7.4019406    163.66348  0.027947999  0.028637003            3 
  489000    1.0744853   -7.4399534    164.14713  0.027973267  0.028617809            2 
  490000    1.0558356   -7.4093744    164.82076  0.028030741  0.028598634            4 
  491000    1.0432274   -7.4505188     164.3999  0.027902223  0.028579856            4 
  492000    1.0570476   -7.4387081    164.26411  0.027822512     0.028561            1 
  493000    1.0619745    -7.435808    164.16106  0.027748658  0.028541382            2 
  494000    1.0751925   -7.4292822    165.20703  0.027868932  0.028521621            3 
  495000    1.0704581    -7.467084    165.34414  0.027835714  0.028501784            1 
  496000    1.0558606   -7.4221947    166.17291  0.027918836  0.028482438            2 
  497000     1.062091   -7.4419361    165.78986  0.027798434  0.028463133            2 
  498000     1.053528   -7.4255158     166.3008  0.027828112  0.028444493            1 
  499000    1.0488752   -7.4798489    165.98762  0.027720043  0.028425915            2 
  500000     1.086935   -7.4460458    166.73352   0.02778892  0.028406874            2 
  501000    1.0452632   -7.4093572    168.15131   0.02796928  0.028388316            1 
  502000    1.0778151   -7.4549336    167.10927  0.027740583  0.028369943            1 
  503000    1.0492488    -7.475723    167.11316  0.027686077  0.028351536            1 
  504000    1.0423855   -7.4867238    167.83539  0.027750561  0.028333327            1 
  505000    1.0852725   -7.4660638    168.24173  0.027762661  0.028314852            1 
  506000    1.0611889   -7.4383578    168.75409  0.027792176  0.028296442            1 
  507000    1.0463995   -7.4379441    168.92069  0.027764742  0.028278754            1 
  508000    1.0581154   -7.4435503    169.32759  0.027776835  0.028260867            4 
  509000    1.0444177   -7.4467525    168.54035  0.027593377  0.028242934            3 
  510000    1.0698093   -7.4372651    169.25416  0.027655908  0.028225039            2 
  511000    1.0526564   -7.4565509    169.38685  0.027623427  0.028206717            3 
  512000    1.0815025   -7.4054703    170.16074  0.027695433  0.028188311            1 
  513000    1.0444825   -7.4453347    170.30089  0.027664212  0.028170021            1 
  514000    1.0252053   -7.4808694    170.29197  0.027608944  0.028151711            3 
  515000    1.0439461   -7.4462133    170.88286  0.027650949  0.028133969            3 
  516000    1.0405884   -7.4578649    170.92894  0.027604802  0.028116519            2 
  517000    1.0350406   -7.4416834    171.50453  0.027644186  0.028099455            1 
  518000    1.0528286   -7.4928324    171.06499  0.027520107  0.028081626            3 
  519000     1.038086   -7.4909383    171.30535  0.027505676  0.028063842            2 
  520000    1.0513173   -7.4103151     172.1114  0.027581956  0.028045781            2 
  521000    1.0530975   -7.4486692    172.59762  0.027606784  0.028028811            1 
  522000    1.0321919   -7.4471149    172.41854  0.027525309  0.028011542       -1e+20 
  523000    1.0287626   -7.4969615    172.16953  0.027433003  0.027993521            1 
  524000    1.0453472    -7.463836     172.9061   0.02749779  0.027975654            2 
  525000     1.084864   -7.4736026    173.45547  0.027532615  0.027957564            2 
  526000    1.0474632    -7.470148    173.42977  0.027476199  0.027939634            1 
  527000    1.0498417   -7.4685598    173.62894  0.027455557  0.027921195            1 
  528000     1.055473   -7.4911784    173.55963  0.027392618   0.02790292            2 
  529000    1.0213023   -7.4637858    173.57415  0.027343123  0.027884627            2 
  530000    1.0542745   -7.4839645    174.28848   0.02740385  0.027867285            1 
  531000    1.0440309   -7.4417317    175.07951  0.027476382  0.027849342            1 
  532000    1.0323306    -7.467502    174.47473  0.027330002  0.027831586            3 
  533000    1.0526321   -7.4600865    175.08821  0.027374642  0.027814032            2 
  534000    1.0272486   -7.4465214    175.20685  0.027341893  0.027796779            2 
  535000    1.0262479   -7.4818692    175.56491  0.027346558  0.027779844            2 
  536000    1.0475301   -7.4622643    176.77513  0.027483695  0.027763389            3 
  537000    1.0299336   -7.4861229    176.75997  0.027430163   0.02774733            1 
  538000     1.028729   -7.4840733    176.46447  0.027333406  0.027731265            1 
  539000    1.0369611   -7.4768923    177.49946  0.027442711  0.027715167            1 
  540000    1.0378009   -7.5160069    177.31552  0.027363506  0.027699003            3 
  541000    1.0556555   -7.4719208    177.64719  0.027364015  0.027683062            1 
  542000    1.0345835   -7.4609922     178.6796  0.027472263   0.02766705            3 
  543000    1.0454787   -7.5225828    177.57163  0.027251631  0.027651172            1 
  544000    1.0143219   -7.4916637    177.23344   0.02714973  0.027634406            2 
  545000     1.045489   -7.4770245    178.21182  0.027249514  0.027617486            1 
  546000     1.063716    -7.468894     178.3555  0.027221535  0.027600788            2 
  547000    1.0193121   -7.4968582    178.50334  0.027194292  0.027583653            2 
  548000    1.0243074    -7.509596    178.67078   0.02717013  0.027566496            1 
  549000    1.0372637   -7.5320899     178.8389   0.02714616  0.027549601            5 
  550000      1.04117   -7.5266455    178.72113  0.027078959  0.027532647            5 
  551000    1.0390233   -7.4969558    179.41161  0.027134242  0.027515835            2 
  552000    1.0417398   -7.5246828    179.93171  0.027163603  0.027499184            3 
  553000    1.0292598   -7.5226306    179.38019  0.027031373   0.02748239            2 
  554000    1.0096403   -7.4949787    180.59192  0.027164849  0.027465631            1 
  555000    1.0255549    -7.509246    180.33225  0.027076914  0.027448814            1 
  556000    1.0351974   -7.5241813    180.20748  0.027009515  0.027432226            2 
  557000    1.0365528   -7.5140629    180.87957  0.027061576  0.027415728            1 
  558000    1.0353041   -7.5036907    181.15572  0.027054319  0.027399552            2 
  559000    1.0432503    -7.490997    181.41517  0.027044599  0.027383097            7 
  560000    1.0389324   -7.4992613    181.32977  0.026983597  0.027366018            5 
  561000    1.0286713   -7.5122117    180.90716  0.026872721  0.027349149            2 
  562000     1.062512   -7.4953215    181.90062  0.026972215  0.027332188            3 
  563000    1.0240182   -7.5130297    182.20993   0.02697009  0.027315353            1 
  564000    1.0425711   -7.5273264    181.75752  0.026855426   0.02729873            5 
  565000    1.0271901   -7.5100547    182.66894  0.026942322  0.027282069            1 
  566000    1.0176345   -7.5209193    182.62838  0.026888749  0.027265883            2 
  567000    1.0411542   -7.5130847    182.74189  0.026858008  0.027249689            2 
  568000    1.0349566   -7.5134334    183.28778  0.026890812  0.027233042            2 
  569000    1.0139472   -7.5053892    183.70528  0.026904699  0.027216864            1 
  570000    1.0070512   -7.5415183    183.63938  0.026847862  0.027200702            2 
  571000    1.0255266   -7.5148738    184.21012  0.026884139  0.027184377            2 
  572000    1.0465811   -7.4837316    184.07029  0.026816767  0.027167999            1 
  573000    1.0411135   -7.4703687    185.13675  0.026925065  0.027151817            5 
  574000    1.0331745   -7.4952061    184.83028  0.026833664  0.027135653            1 
  575000    1.0388154   -7.4938884    185.44894  0.026876657  0.027119557            1 
  576000    1.0013242   -7.5260029    184.99639  0.026764524  0.027103572            1 
  577000    1.0313288   -7.4460056     186.3326  0.026911121  0.027087682            3 
  578000    1.0097356   -7.5483659    185.18008  0.026698397  0.027071774            2 
  579000    1.0278296   -7.5208205    185.96628   0.02676544  0.027055536            1 
  580000      1.00705   -7.4767275    186.67721  0.026821438  0.027039749            4 
  581000    1.0346113    -7.532522    186.13303  0.026697222  0.027023363            1 
  582000    1.0205338   -7.5412953    186.08561  0.026644561  0.027007134            2 
  583000    1.0318317   -7.5539508    186.35639  0.026637563  0.026990915            2 
  584000    1.0050119   -7.5085777    186.77401  0.026651543  0.026974245            1 
  585000    1.0306946   -7.5361666     187.2281  0.026670669  0.026957834            1 
  586000     1.013267   -7.4854971     187.1662  0.026616354   0.02694145            2 
  587000    1.0079857   -7.4939998    187.10725  0.026562642  0.026925181            2 
  588000    1.0144056   -7.5389945    187.52837   0.02657715  0.026908845       -1e+20 
  589000    1.0149469    -7.501655    188.06641  0.026608151  0.026892672            1 
  590000    1.0221354   -7.5452056    188.36198    0.0266048  0.026876417            2 
  591000    1.0385182   -7.5374996     189.0556  0.026657587  0.026860426            2 
  592000    1.0343138    -7.506778    189.43541   0.02666602   0.02684463            1 
  593000    1.0314258   -7.5132754    188.96027  0.026554281  0.026828823            1 
  594000    1.0233998   -7.5529892    189.10376  0.026529708  0.026812688            2 
  595000    1.0138588   -7.5131184    189.15871  0.026492817  0.026796245            1 
  596000    1.0093159   -7.5435499    189.17958  0.026451283  0.026779474            1 
  597000    1.0206938   -7.5467799     189.2532  0.026417254  0.026762876            2 
  598000    1.0175627   -7.5497367    189.72742  0.026439161  0.026746337            4 
  599000    1.0145511   -7.5398916    189.26168  0.026330228   0.02672988            1 
  600000    1.0005512   -7.5331404    190.02194  0.026391936  0.026712968            1 
  601000    1.0204601   -7.5566157     189.3356  0.026252856  0.026695669            2 
  602000    1.0246574   -7.5291977    189.88555  0.026285374  0.026678583            1 
  603000    1.0083902    -7.596635    190.10817  0.026272549  0.026661576            4 
  604000    1.0036961   -7.5519799    191.30361  0.026393986   0.02664502            4 
  605000    1.0077378   -7.5984667    191.06741  0.026317825  0.026628636            4 
  606000    1.0150042   -7.5220057    191.84133   0.02638082  0.026612303            3 
  607000   0.99806978   -7.5840486    192.00862  0.026360327  0.026596449            5 
  608000   0.99052083   -7.5238891    192.21964  0.026345893  0.026580575            4 
  609000    1.0038063    -7.538992    192.49121  0.026339794  0.026564744            2 
  610000    1.0153326   -7.5597514    191.88071  0.026213212  0.026548657            2 
  611000      1.00438   -7.5561223    192.25612  0.026221511  0.026532633            3 
  612000   0.98572921   -7.5579722    193.05522  0.026287475  0.026516375            1 
  613000   0.99741236   -7.5629188    192.93578  0.026228355   0.02650036            1 
  614000    1.0114188    -7.591257    192.97538  0.026191013  0.026484196            1 
  615000    1.0007693   -7.5494995    193.50986  0.026220848  0.026467981            2 
  616000    1.0018491   -7.5177823    194.45442  0.026306063  0.026452262            1 
  617000    1.0045209   -7.5486264    193.66152  0.026156337  0.026436347            2 
  618000   0.99961935    -7.592829    194.03832  0.026164823  0.026420332            1 
  619000    1.0099899   -7.5493827    194.86364  0.026233662  0.026404366            2 
  620000    1.0005194   -7.5329779    194.45278  0.026136127  0.026388615            3 
  621000    1.0251957   -7.5806274    194.13964  0.026052018  0.026372471            1 
  622000    1.0113792   -7.5706646    195.64546  0.026211878  0.026356653            2 
  623000    1.0221837   -7.5450212    195.29736  0.026123242  0.026340975            1 
  624000    1.0107986   -7.5577017    195.67595  0.026131938  0.026325261            3 
  625000    1.0281329   -7.5434935    195.67305   0.02608974  0.026309298            2 
  626000   0.98193146   -7.5587261    196.05469  0.026098867  0.026293757            3 
  627000   0.98818746   -7.5341107    196.82622  0.026159785  0.026278787            1 
  628000    1.0262923   -7.5799779    196.96797  0.026136938  0.026263998            3 
  629000    1.0098866   -7.5687136    197.27457  0.026136005   0.02624938            2 
  630000    1.0135758   -7.5776832    197.23128  0.026088794  0.026234491            3 
  631000    1.0021667   -7.5907818    197.05884  0.026024675  0.026219538            2 
  632000   0.99707265   -7.5520778    197.61639  0.026057013   0.02620401            2 
  633000   0.98668095   -7.5775926    197.26926   0.02597015  0.026188346            1 
  634000    1.0028702   -7.5661375    196.90802  0.025881707  0.026172668            1 
  635000   0.97411663   -7.5876483    197.23086  0.025883315  0.026156761            2 
  636000   0.99522898   -7.5569424    198.10896  0.025957674  0.026141015            2 
  637000   0.98711091   -7.5758247    197.90477  0.025890211  0.026125276            5 
  638000   0.98534163   -7.5551957    198.49822  0.025927144  0.026109674            1 
  639000    1.0112736    -7.578905    198.36337  0.025868985  0.026093716            2 
  640000    1.0100613   -7.5648881    198.24199  0.025812759  0.026077788            2 
  641000    1.0081865   -7.5740669    198.01719  0.025743264  0.026061959            1 
  642000   0.98615842   -7.5620371    199.09931  0.025843628  0.026045998            1 
  643000    1.0094225   -7.5857323    198.83436  0.025769097    0.0260303            1 
  644000    1.0082553   -7.5738158    199.48962  0.025813874  0.026014428            2 
  645000   0.98217939   -7.5404436    199.80638  0.025814778  0.025998641            3 
  646000   0.99161437   -7.5694169    199.93759  0.025791743  0.025982818            1 
  647000   0.99274167   -7.5684396    200.75447  0.025857093  0.025967076            2 
  648000    1.0145251   -7.6221977    199.99595  0.025719643  0.025951359            1 
  649000      1.00324   -7.6261564    199.66924  0.025638064  0.025935544            2 
  650000   0.98095987   -7.6247846    200.03113  0.025645017  0.025919739            3 
  651000   0.98888789   -7.5906422    200.39367  0.025652032  0.025904175            1 
  652000   0.99697078   -7.6089934    200.79776  0.025664335  0.025888502            2 
  653000   0.99727138    -7.581831    201.78384  0.025750873  0.025872878            4 
  654000   0.99014504   -7.5868973    201.54213    0.0256807  0.025857463            2 
  655000    1.0011404    -7.596684    202.07235   0.02570895  0.025841859            1 
  656000   0.98435891   -7.5989993    202.69246  0.025748534   0.02582647            2 
  657000   0.97338979   -7.5931865    201.69169  0.025582406  0.025810989            2 
  658000   0.97207856   -7.6111727     201.5295  0.025522986  0.025795022            1 
  659000   0.99774287   -7.6030088    201.86436  0.025526601  0.025778997            2 
  660000   0.98694298   -7.5476399    202.64555   0.02558656   0.02576303            2 
  661000    1.0234285   -7.5787689    202.52479  0.025532626  0.025747113            2 
  662000    1.0036554   -7.5963798    202.74724  0.025522059  0.025731142            3 
  663000   0.96734829    -7.619819    202.41929  0.025442345  0.025714736            2 
  664000   0.99399708   -7.5662355    203.14755  0.025495425  0.025698354            1 
  665000   0.97898282   -7.6166913     202.6808  0.025398596  0.025682079            2 
  666000   0.99648778   -7.5663162     204.0672  0.025533933  0.025665924            4 
  667000   0.99532156   -7.5622054    204.19428  0.025511529  0.025650034            3 
  668000    0.9898702   -7.6166329    203.45522   0.02538114  0.025633835            4 
  669000   0.98094232   -7.6046747     203.7374  0.025378351  0.025617486            1 
  670000    1.0002346   -7.6152255    203.44605  0.025304235  0.025600912            2 
  671000    0.9830857   -7.6134688    203.69704  0.025297695   0.02558429            1 
  672000   0.98402688   -7.6341493    204.03301  0.025301713  0.025567744            2 
  673000    1.0000526   -7.6020985    204.13713  0.025277009  0.025551229            1 
  674000    1.0076158   -7.6031031    204.85241  0.025327944  0.025534976            4 
  675000     1.000277   -7.6163146    204.47891   0.02524431  0.025518761            4 
  676000   0.98613521   -7.6522786    203.98971   0.02514666  0.025502046            1 
  677000   0.97090034   -7.5794879    204.58821  0.025183187  0.025485513            1 
  678000    0.9992356   -7.6133158    205.15525  0.025215739  0.025469053            3 
  679000   0.94485876   -7.6372329    204.77793  0.025132293  0.025452685            2 
  680000    0.9828217   -7.6051133    205.90958  0.025234018  0.025436483            2 
  681000   0.99640669    -7.595371    206.18475  0.025230634  0.025420546            2 
  682000   0.98595987   -7.6395192    205.72387  0.025137325   0.02540425            1 
  683000   0.98255846   -7.6563065    205.73681    0.0251021  0.025388082            2 
  684000   0.98300345   -7.6543369    206.48431   0.02515647  0.025371587            3 
  685000   0.97799819   -7.6559113    206.07076  0.025069436  0.025355553            3 
  686000   0.96341062   -7.6307692    207.23429  0.025174233  0.025339529            1 
  687000   0.96804445   -7.6139758    206.91653  0.025099045  0.025323669            3 
  688000   0.97443814    -7.617356    207.34514  0.025114479  0.025307722            2 
  689000   0.95336153   -7.6424078    207.11981  0.025050776   0.02529175            3 
  690000     0.976675   -7.6225355    207.60105   0.02507259  0.025275729            2 
  691000   0.96302918   -7.6342564    207.80873  0.025061352  0.025259808            2 
  692000   0.97983016   -7.6267267    207.75388  0.025018531  0.025243934            2 
  693000   0.98506006   -7.6181117    208.49116  0.025071088  0.025227866            1 
  694000   0.96820583   -7.6584185    208.02594  0.024979099   0.02521171            3 
  695000   0.99778387   -7.6716848    207.70925  0.024905186  0.025195328            1 
  696000   0.96504479   -7.6519952    209.03113  0.025027674  0.025179105            2 
  697000   0.97137294   -7.6614775    208.34837  0.024910135  0.025162844            2 
  698000   0.99575266   -7.6508219    208.80851  0.024929383   0.02514636            2 
  699000   0.95683845   -7.6586826    208.72345  0.024883577  0.025129908            3 
  700000   0.98738628   -7.6233533    209.23188  0.024908557  0.025113542            2 
  701000   0.97410924   -7.6278854    209.18867  0.024867887  0.025097536            2 
  702000   0.95980902   -7.6409152    209.32934  0.024849162   0.02508145            2 
  703000   0.97051743   -7.6206136    209.20436     0.024799   0.02506499            1 
  704000   0.97552778   -7.6620921    209.69661  0.024822041  0.025048742            1 
  705000   0.97603583    -7.636613    210.33616  0.024862431  0.025032512            4 
  706000   0.97145361   -7.6166473    210.20314  0.024811513  0.025016383            2 
  707000   0.97166887   -7.6724839    209.54602  0.024698965  0.025000075            5 
  708000    0.9775646   -7.6713064    210.21229  0.024742501  0.024983482            2 
  709000   0.96639021   -7.6426871    210.38367  0.024727747  0.024967124            1 
  710000   0.98493429   -7.6328499    210.89007  0.024752356  0.024950999            3 
  711000   0.97908241   -7.6532034    211.22925  0.024757296  0.024935052            2 
  712000   0.99238325   -7.6628674    210.86359  0.024679727  0.024918976            1 
  713000   0.97375689   -7.6607392     211.5389  0.024724041  0.024902815            3 
  714000   0.95729375   -7.6246258    210.94481  0.024620075  0.024886505            1 
  715000   0.98966155   -7.6357844    211.35038  0.024632911  0.024869979            1 
  716000   0.95692262   -7.6930996    210.91489  0.024547823  0.024853229            3 
  717000   0.97297285   -7.6479685     211.5218  0.024584124  0.024836477            2 
  718000   0.96811503   -7.6033302    211.67665  0.024567856  0.024819761            2 
  719000   0.95652169   -7.6291747    211.47149  0.024509908  0.024803048            3 
  720000   0.96405168   -7.6551537    211.42367  0.024470332  0.024786263            2 
  721000   0.96711263   -7.6639506    211.84244  0.024484795  0.024769014            2 
  722000   0.95536693   -7.6183212    211.72054  0.024436812  0.024751951            3 
  723000   0.96230352   -7.6455055    211.73426  0.024404594  0.024735013            3 
  724000   0.96022235   -7.6527138     211.6467  0.024360808  0.024718049            4 
  725000   0.96625828   -7.6627694    211.75375  0.024339512  0.024701001            2 
  726000   0.96559592   -7.6429108    212.02052  0.024336607  0.024683921            3 
  727000   0.94593568   -7.6713411    212.32754  0.024338324  0.024666476            1 
  728000   0.97719193   -7.6826942    212.34797  0.024307231  0.024649106            3 
  729000   0.94687484   -7.7214415    211.85219  0.024217214  0.024631587            4 
  730000   0.95946872   -7.6648783    213.11273  0.024327938  0.024614144            4 
  731000   0.95637083   -7.6564892    213.09152  0.024292239  0.024596845            4 
  732000     0.959324   -7.6645623    212.45898  0.024187042  0.024579607            1 
  733000   0.97967688   -7.7008547    212.77135  0.024189557  0.024562281            1 
  734000   0.95139866   -7.6618237    213.14676  0.024199224  0.024544762            2 
  735000   0.95906155   -7.6509293    213.21643  0.024174199  0.024527175            4 
  736000   0.94248288   -7.6431754    213.87008  0.024215362  0.024509782            2 
  737000   0.96498295   -7.6838742    213.56889   0.02414845  0.024492505            1 
  738000   0.95930525   -7.6598363     213.2172  0.024076017   0.02447505            1 
  739000   0.95053939   -7.6567755     213.6702   0.02409452  0.024457577            3 
  740000   0.97246361   -7.6717154    214.11894  0.024112493  0.024440061            2 
  741000   0.94212772   -7.6612351    213.91961  0.024057536  0.024422501            1 
  742000   0.97579788   -7.6981539    214.29605  0.024067391  0.024405184            2 
  743000   0.93994309   -7.6742169    214.28197  0.024033419  0.024387731            1 
  744000   0.94261227   -7.6679283    214.35593  0.024009401  0.024370102            2 
  745000   0.93905894   -7.6600795    214.41218  0.023983465  0.024352716            2 
  746000   0.98440215   -7.7059224    214.45917  0.023956565  0.024335378            2 
  747000   0.93999878   -7.6956249    215.09481  0.023995405   0.02431792            2 
  748000   0.95187407   -7.6853864     215.1207  0.023966209  0.024300361            1 
  749000   0.94456695   -7.6799559    215.43023   0.02396865  0.024282916            1 
  750000   0.94939205   -7.6224897    215.82892  0.023980992  0.024265352            2 
  751000   0.94094341   -7.6856232     215.5012  0.023912694  0.024247864            1 
  752000   0.92969673    -7.685144     215.6198  0.023894038  0.024230367            3 
  753000    0.9414521   -7.6897816    216.12099  0.023917772  0.024212913            3 
  754000   0.97057271   -7.7068914    215.76308  0.023846494  0.024195253            1 
  755000   0.95259196   -7.6814614    215.91402   0.02383157  0.024177502            1 
  756000    0.9616284    -7.702306    216.35005   0.02384811  0.024159937            5 
  757000   0.95826976   -7.6868452    216.41692  0.023823967  0.024142682            1 
  758000    0.9448813   -7.7106042    216.76636  0.023830954  0.024125305            2 
  759000   0.94233092   -7.7134361    216.38474  0.023757657  0.024107901            2 
  760000     0.924457   -7.7044164    217.12104  0.023807132  0.024090375            3 
  761000   0.94242289   -7.6680404    216.96483  0.023758742  0.024073051            1 
  762000    0.9386103   -7.6784593    217.20182   0.02375348  0.024055977            1 
  763000   0.95051607   -7.6745466    217.73044  0.023780083  0.024038671            4 
  764000   0.96143712   -7.6688797      218.222  0.023802574  0.024021564            1 
  765000   0.92963915   -7.7025244    217.27551  0.023668356  0.024004177            2 
  766000   0.96168677   -7.6988401    217.77194  0.023691465  0.023986845            1 
  767000   0.97093734   -7.7429785    217.69371  0.023652076  0.023969387            2 
  768000   0.94227309   -7.7111342     217.6321  0.023614594  0.023952003            3 
  769000    0.9585611   -7.6773276    218.17714  0.023642949  0.023934731            1 
  770000   0.95205439   -7.6742493    218.53058  0.023650496  0.023917613            3 
  771000   0.93322516   -7.6964631    218.50333  0.023616875  0.023900524            3 
  772000   0.93597695   -7.6785186    219.10582  0.023651319  0.023883555            3 
  773000   0.94835141   -7.7286138    218.29241  0.023533033  0.023866291            1 
  774000   0.95562916    -7.706654    219.10754  0.023590389  0.023848986            1 
  775000   0.95058257   -7.7115601    218.59287   0.02350461  0.023831358            2 
  776000   0.93579172   -7.7117054    218.27669  0.023440366  0.023813673            1 
  777000   0.94007319   -7.7534807    218.61578  0.023446566  0.023795957            1 
  778000   0.95958334   -7.7411624    219.27731  0.023487287  0.023778465            3 
  779000   0.97115097   -7.7380227     219.4776  0.023478562  0.023761084            1 
  780000   0.96381883   -7.6833898    219.54498   0.02345566  0.023743642            2 
  781000   0.93431655   -7.7260337    219.62106  0.023433745  0.023726344            2 
  782000   0.94506476   -7.6857225    220.09378  0.023454154   0.02370908            2 
  783000   0.93621093   -7.6682819    219.71032  0.023383389  0.023691693            2 
  784000   0.95142231     -7.68393    220.71033  0.023459857  0.023674299            6 
  785000    0.9436568    -7.713165    219.64064  0.023316416  0.023656775            2 
  786000   0.97067291   -7.7387789     219.6185  0.023284404  0.023639043            2 
  787000   0.93873358   -7.7318778    219.76521  0.023270352  0.023621266            2 
  788000   0.93132424   -7.6926123    219.67861  0.023231663  0.023603439            2 
  789000    0.9347702   -7.6841736    220.43237   0.02328183  0.023585636            2 
  790000   0.94444284   -7.7346787     219.8558   0.02319154  0.023567831            1 
  791000   0.93855699   -7.7299723    220.40137  0.023219698  0.023550049            2 
  792000   0.94327184    -7.712313    220.12057  0.023160834  0.023532299            2 
  793000   0.93541687   -7.7184633    220.23922  0.023144097  0.023514575            2 
  794000    0.9458658   -7.7131007    220.32249  0.023123687  0.023496772            2 
  795000   0.92239948   -7.7278164    220.31773  0.023094102  0.023479023            1 
  796000    0.9231835   -7.7539234    220.28925  0.023062108  0.023460888            2 
  797000   0.93248199    -7.756832    219.98362  0.023001215  0.023442696            2 
  798000   0.93908405   -7.7238672     220.6225  0.023039108  0.023424664            3 
  799000   0.91804337   -7.7341168    220.51043  0.022998584  0.023406792            3 
  800000   0.90801427      -7.7159    221.29108  0.023051154  0.023388745            2 
  801000   0.93970997   -7.7428401    221.38023  0.023031651  0.023370545            3 
  802000   0.93244396   -7.7025747      221.035  0.022967061  0.023352346            2 
  803000   0.94600947   -7.7504803    221.52851  0.022989675  0.023334153            3 
  804000   0.93634271   -7.7493751    221.10979  0.022917682  0.023316071            1 
  805000   0.93029562   -7.7320378    221.40215  0.022919477  0.023298017            2 
  806000   0.92878237   -7.7455364    221.50503  0.022901678  0.023279847            1 
  807000   0.92471213    -7.711875    221.19521  0.022841307  0.023261799            2 
  808000   0.91419021   -7.7416293    221.67799  0.022862829  0.023243699            1 
[...]
 1800000   0.54243048   -8.7316931    247.56969   0.01146156  0.010042996            1 
 1801000   0.52875487   -8.7402613    247.65722  0.011459246  0.010034285            2 
 1802000   0.53370568    -8.723492    247.58942  0.011449751   0.01002559            4 
 1803000   0.52616616   -8.7430486    247.47372  0.011438053  0.010016912            2 
 1804000   0.53221935    -8.730413    247.58291  0.011436757  0.010008232            1 
 1805000   0.53986473    -8.741528    247.90487  0.011445285   0.00999958            1 
 1806000   0.53729288   -8.7246844    247.67351  0.011428272 0.0099909199            1 
 1807000    0.5306212   -8.7401023     247.4146  0.011410007 0.0099822822            1 
 1808000    0.5295216   -8.7345659    247.98035  0.011429773 0.0099736447            2 
 1809000   0.54037201   -8.7498318    247.64553  0.011408031 0.0099650364            1 
 1810000   0.54223753   -8.7202248    247.43964  0.011392249 0.0099564224            1 
 1811000   0.52659162   -8.7383876    247.76201  0.011400792 0.0099478142            2 
 1812000   0.52822108   -8.7362457    247.37169  0.011376549 0.0099392082            2 
 1813000   0.54238045   -8.7306584     247.2116  0.011362916 0.0099306215            2 
 1814000   0.52692081   -8.7364379    247.40435  0.011365507 0.0099220406            4 
 1815000   0.53700725   -8.7318316      247.756   0.01137539 0.0099134685            3 
 1816000   0.53300717   -8.7256594     247.6383  0.011363725 0.0099049082            4 
 1817000   0.53353601   -8.7476397    247.66384  0.011358643 0.0098963589            7 
 1818000   0.52346867    -8.730127    247.45214  0.011342691 0.0098878199            6 
 1819000    0.5206493    -8.744231    247.38741  0.011333489 0.0098792932            2 
 1820000   0.52587458   -8.7229374    247.18125  0.011317823 0.0098707746            6 
 1821000   0.52397542   -8.7415339    247.94365  0.011346497 0.0098622602            3 
 1822000    0.5239877   -8.7524915    247.64471  0.011326597 0.0098537597            3 
 1823000   0.51380386   -8.7409525     247.4173  0.011309988 0.0098452643            6 
 1824000   0.53237679   -8.7347548    247.50906   0.01130798 0.0098367937            1 
 1825000   0.51642301   -8.7366112     247.8117  0.011315603 0.0098283248            2 
 1826000   0.51890417   -8.7718889    247.32578   0.01128723 0.0098198618            4 
 1827000   0.52939865   -8.7736496    247.95386    0.0113097 0.0098113943            1 
 1828000   0.52607851   -8.7545633    247.24136  0.011271032 0.0098029434            1 
 1829000   0.51355217    -8.766092    247.34745  0.011269704 0.0097945033            4 
 1830000   0.53726051    -8.741826    247.68353  0.011278849 0.0097860587            1 
 1831000   0.53148978   -8.7537478     247.6032  0.011269034 0.0097776415            1 
 1832000   0.51338011   -8.7478244     247.4893  0.011257701  0.009769224            1 
 1833000   0.52070095   -8.7423658    247.34032  0.011244786 0.0097608153            1 
 1834000   0.51627354   -8.7354326    247.15393  0.011230186 0.0097524286            2 
 1835000   0.51278253   -8.7390893    247.70837  0.011249245  0.009744043            1 
 1836000   0.52126765    -8.745426    247.50866  0.011234053 0.0097356755            1 
 1837000   0.51309893   -8.7663863    247.26581  0.011216921 0.0097273051            1 
 1838000    0.5192568   -8.7766794    247.58179  0.011225145 0.0097189462            1 
 1839000   0.51556475   -8.7563662    247.45166  0.011213144 0.0097106044            2 
 1840000   0.51463725   -8.7682714    247.35926  0.011202865 0.0097022525            1 
 1841000    0.5171648   -8.7582836     247.2228  0.011190603 0.0096939121            1 
 1842000   0.51734908    -8.771621    247.17784  0.011182494 0.0096855846            2 
 1843000   0.52870765   -8.7641561    247.32386  0.011183028  0.009677262            2 
 1844000   0.51742188   -8.7634841    247.30381  0.011176058 0.0096689457            1 
 1845000   0.51788542   -8.7654065    247.28334  0.011169076 0.0096606445            2 
 1846000   0.50504568   -8.7730405    247.61108  0.011177821 0.0096523466            1 
 1847000    0.5209407   -8.7493357    247.42833  0.011163523 0.0096440653            5 
 1848000   0.51041104   -8.7564627    247.25346  0.011149597 0.0096357982            1 
 1849000   0.52333068   -8.7537149    247.49728  0.011154556 0.0096275282            1 
 1850000   0.51497998   -8.7589329    247.58611  0.011152528 0.0096192815            2 
 1851000   0.51431398   -8.7647635    247.33164  0.011135046  0.009611039            2 
 1852000    0.5198088   -8.7743379    247.49329  0.011136307 0.0096027969            2 
 1853000   0.51030153   -8.7623532    247.61123  0.011135601 0.0095945666            1 
 1854000   0.51058076   -8.7781301    246.88939   0.01109715 0.0095863464            2 
 1855000   0.52188904   -8.7678822    247.32374   0.01111068 0.0095781373            1 
 1856000   0.50909313   -8.7707011    247.22992  0.011100481 0.0095699441            1 
 1857000   0.51909466   -8.7708189    247.74025  0.011117405 0.0095617518            2 
 1858000    0.5013262   -8.7538627     247.2441  0.011089168 0.0095535787            1 
 1859000   0.50869236   -8.7759912    247.24571  0.011083276 0.0095454042            2 
 1860000   0.50360399   -8.7811462    247.27126  0.011078461 0.0095372289            2 
 1861000   0.50876239   -8.7655211    246.89638  0.011055722 0.0095290701            2 
 1862000   0.50648641   -8.7827934    246.74078   0.01104282 0.0095209136            5 
 1863000   0.50786529   -8.7731994    247.17265  0.011056211 0.0095127754            3 
 1864000   0.50600698   -8.7817497     247.0693  0.011045659 0.0095046427            2 
 1865000   0.50987207   -8.7696157    247.16753  0.011044125 0.0094965107            2 
 1866000   0.50794263   -8.7987376    247.23359  0.011041157 0.0094883947            2 
 1867000   0.50888615   -8.7644502    247.22119   0.01103469  0.009480281            1 
 1868000   0.50147517   -8.7850425     247.3344  0.011033833 0.0094721835            2 
 1869000   0.50869915   -8.7749184    247.12115  0.011018421 0.0094640976            3 
 1870000   0.51461483   -8.7840776    246.86116  0.011000943 0.0094560183            1 
 1871000   0.51201358   -8.7877801    246.89077  0.010996382 0.0094479419            2 
 1872000    0.5004393   -8.7604127    247.23573  0.011005864 0.0094398768            1 
 1873000   0.49612117   -8.7775565    247.28443  0.011002155 0.0094318284            3 
 1874000   0.50341185   -8.7655067     247.2671  0.010995513 0.0094237818            1 
 1875000   0.50567948   -8.7747328     247.1421  0.010984093 0.0094157275            3 
 1876000   0.49936295   -8.7701033    247.48459  0.010993452 0.0094076907            3 
 1877000   0.49887674   -8.7888742    247.07433  0.010969381  0.009399672            2 
 1878000   0.51883148   -8.7653959    247.11752  0.010965456 0.0093916505            2 
 1879000   0.50873764   -8.7797165    246.89981  0.010949965 0.0093836464            4 
 1880000   0.50573616   -8.7758546    247.41214   0.01096685 0.0093756444            3 
 1881000   0.50436738   -8.7886105    247.04813  0.010944893 0.0093676618            2 
 1882000   0.50306859   -8.7718314    247.13771  0.010943044 0.0093596832            1 
 1883000   0.50866591   -8.7823267    247.40578  0.010949096 0.0093517122            2 
 1884000   0.49935771   -8.7686158    247.10616  0.010930032 0.0093437507            3 
 1885000    0.4996931   -8.7848567    246.91274  0.010915683 0.0093358029            1 
 1886000   0.49594892    -8.783839     247.4174  0.010932193  0.009327855            1 
 1887000    0.4949266   -8.7610677     247.0924  0.010912048 0.0093199236            2 
 1888000   0.49895386   -8.7921688    246.89025  0.010897345 0.0093119986            2 
 1889000   0.50166715   -8.7976025    247.20188  0.010905324 0.0093040852            2 
 1890000   0.49555247   -8.8006902    247.10019   0.01089507   0.00929618            2 
 1891000   0.49581348    -8.784039    246.87691  0.010879469 0.0092882754            2 
 1892000   0.49253812   -8.7833736    246.90097  0.010874778 0.0092803815            2 
 1893000   0.50383673   -8.7874075    247.24765  0.010884295 0.0092724965            3 
 1894000   0.50485641   -8.7777016      246.481  0.010844817 0.0092646219            1 
 1895000   0.49382432    -8.793758    246.99858  0.010861855 0.0092567562            2 
 1896000   0.48856139   -8.7917038    247.39138   0.01087339 0.0092489017            1 
 1897000   0.48490645   -8.8002363    246.93265  0.010847507 0.0092410533            1 
 1898000   0.49229203   -8.7996345    246.87823  0.010839402 0.0092332161            1 
 1899000   0.49147118   -8.7976168    247.03654  0.010840642 0.0092253778            1 
 1900000   0.49035827   -8.8011097    246.74377  0.010822095 0.0092175549            1 
 1901000   0.49606605   -8.7768607    246.99853   0.01082757 0.0092097328            3 
 1902000   0.50084402   -8.7844405    247.02621   0.01082309 0.0092019276            1 
 1903000   0.50335489   -8.7913233    246.99177  0.010815895 0.0091941322            3 
 1904000   0.48462409   -8.7852144    246.84002  0.010803572 0.0091863423            3 
 1905000    0.4941251   -8.8037935    247.03813  0.010806567 0.0091785576            3 
 1906000   0.48660445   -8.7984416    246.51515  0.010778032 0.0091707811            2 
 1907000   0.48991782   -8.8019129    246.94791  0.010791291 0.0091630113            2 
 1908000   0.49878436   -8.8027461    246.98521  0.010787265 0.0091552585            3 
 1909000   0.48883647   -8.7916807    246.83038  0.010774855 0.0091475148            1 
 1910000   0.49047371   -8.8107343    246.85419  0.010770253 0.0091397727            1 
 1911000   0.49848208   -8.8008142    246.93385   0.01076809  0.009132041            1 
 1912000   0.49332754   -8.7991809    246.88952  0.010760527 0.0091243151            3 
 1913000   0.48657552    -8.801585    247.24428  0.010770356 0.0091166049            2 
 1914000   0.48142468   -8.7829873    246.93208  0.010751135 0.0091088979            3 
 1915000   0.48018802    -8.815605    247.35949  0.010764121 0.0091011991            1 
 1916000   0.47935957   -8.8133889    246.84958  0.010736325 0.0090935079            1 
 1917000   0.49959876   -8.8056025    246.67156  0.010722986 0.0090858326            3 
 1918000   0.48642921   -8.8138112    246.91329  0.010727897 0.0090781588            3 
 1919000   0.48123237    -8.803187    247.09653  0.010730265 0.0090704972            1 
 1920000   0.49124576   -8.7842714    246.88965  0.010715697 0.0090628473            1 
 1921000   0.48358193   -8.8145541    247.10616  0.010719511 0.0090551956            5 
 1922000   0.47863257   -8.8072811     246.9222  0.010705957 0.0090475582            4 
 1923000   0.48186428   -8.8055606    246.95357  0.010701749 0.0090399215            1 
 1924000   0.48315066   -8.8013591    247.17545  0.010705797 0.0090322957            2 
 1925000   0.49341122    -8.818653    247.16381  0.010699732 0.0090246902            4 
 1926000   0.48311645     -8.80125    246.63325  0.010671221 0.0090170917            2 
 1927000   0.48467785   -8.8145867    247.03207   0.01068293 0.0090094979            3 
 1928000   0.48262395   -8.8169745    246.75268  0.010665313 0.0090019076            2 
 1929000   0.48530155    -8.791206     246.5195  0.010649711  0.008994335            2 
 1930000   0.48456596   -8.8205447    246.92196   0.01066157 0.0089867656            2 
 1931000   0.46769956    -8.791437    246.82517  0.010651872 0.0089792103            3 
 1932000   0.46879568   -8.8149668    246.82637   0.01064641 0.0089716581            3 
 1933000   0.48399518   -8.8184084    246.88459  0.010643412 0.0089641108            4 
 1934000   0.47392573   -8.8139944    247.04921  0.010645002 0.0089565836            2 
 1935000   0.47850847   -8.7996678    246.71475  0.010625097 0.0089490531            6 
 1936000    0.4794699   -8.8160078    246.62013  0.010615536 0.0089415309            5 
 1937000    0.4704402   -8.8131555    246.47318  0.010603734 0.0089340084            2 
 1938000   0.47766928   -8.8091087     247.1661  0.010628057 0.0089265027            4 
 1939000   0.48724292   -8.8118979    246.59096  0.010597858 0.0089189976            5 
 1940000    0.4777405   -8.8023624    246.68963  0.010596633 0.0089115081            3 
 1941000   0.47604984   -8.8212563      246.701  0.010591662 0.0089040194            1 
 1942000   0.47039773   -8.8131825    246.85295  0.010592729 0.0088965404            3 
 1943000   0.46626057   -8.8279534    246.79035  0.010584592 0.0088890678            3 
 1944000   0.48630753   -8.8028762    246.37465  0.010561328 0.0088816012            3 
 1945000   0.47956213   -8.8227378     246.7888  0.010573642 0.0088741424            3 
 1946000   0.46812708   -8.8300066     246.7884  0.010568191 0.0088666998            5 
 1947000   0.46794634   -8.8337737    246.66462  0.010557465 0.0088592651            2 
 1948000   0.46573074   -8.8282105    246.66206  0.010551936 0.0088518393            3 
 1949000   0.47589857   -8.8121695    246.70177   0.01054822 0.0088444161            4 
 1950000   0.47174093   -8.8319599    246.92171   0.01055221 0.0088369924            1 
 1951000   0.47550942   -8.8440925    246.65686  0.010535489  0.008829582            4 
 1952000    0.4680579   -8.8245633    246.90751  0.010540792 0.0088221755            3 
 1953000   0.47133119   -8.8305776    246.44408   0.01051562 0.0088147887            3 
 1954000   0.47727082   -8.8275535    246.35246  0.010506331 0.0088074041            3 
 1955000   0.46355142   -8.8238774    246.70675  0.010516059 0.0088000288            2 
 1956000   0.47589027   -8.8230312    246.59032  0.010505723  0.008792652            4 
 1957000   0.47662012   -8.8201776    246.65441  0.010503083 0.0087852833            3 
 1958000   0.46432625   -8.8142327    246.59969   0.01049539 0.0087779283            4 
 1959000   0.46619065   -8.8156884    246.52509   0.01048686  0.008770586            2 
 1960000   0.48079682   -8.8451534    246.71576  0.010489616 0.0087632492            1 
 1961000   0.47361396   -8.8288548    246.48884  0.010474623 0.0087559247            2 
 1962000   0.47965646   -8.8044279    246.74161  0.010480021 0.0087486043            7 
 1963000   0.46611445   -8.8470715    246.34546  0.010457865 0.0087412908            3 
 1964000   0.48226483   -8.8284241     246.4637  0.010457557 0.0087339819            2 
 1965000   0.46517607   -8.8361079    246.70413  0.010462431 0.0087266792            2 
 1966000   0.46661861   -8.8340216    246.62457  0.010453737 0.0087193818            1 
 1967000   0.46181795   -8.8187171    246.70632  0.010451886 0.0087121015            2 
 1968000   0.47434519   -8.8433289    246.68758  0.010445782 0.0087048241            5 
 1969000   0.46582271   -8.8396266    246.57454  0.010435692 0.0086975566            2 
 1970000   0.46549975   -8.8253755     246.3978  0.010422919 0.0086902927            4 
 1971000   0.45843253   -8.8355099    246.42638  0.010418839 0.0086830435            3 
 1972000   0.46558035   -8.8420535    246.49692  0.010416536 0.0086758014            5 
 1973000   0.46345917   -8.8397441    246.26337  0.010401393 0.0086685634            4 
 1974000   0.45658035   -8.8400834    246.47643  0.010405118 0.0086613317            5 
 1975000   0.46992607   -8.8431069    246.59801  0.010404979 0.0086541054            1 
 1976000   0.46505009   -8.8361086    246.79854  0.010408171 0.0086468848            3 
 1977000   0.46644592   -8.8421924    246.42517  0.010387168  0.008639676            3 
 1978000   0.46220582   -8.8233019    246.70264  0.010393606 0.0086324754            3 
 1979000   0.46650396   -8.8410218    246.48407  0.010379151 0.0086252899            2 
 1980000   0.45162328    -8.833922    246.28132  0.010365375 0.0086181079            3 
 1981000   0.47056521   -8.8400369    246.35697  0.010363325 0.0086109238            3 
 1982000   0.43861739   -8.8342674    246.54831  0.010366142 0.0086037537            7 
 1983000   0.45625254   -8.8279775    246.28114  0.010349687 0.0085965873            1 
 1984000     0.458648    -8.840716    245.97005  0.010331403 0.0085894355            3 
 1985000   0.45253054   -8.8481787    246.45661  0.010346625  0.008582286            4 
 1986000   0.46789379   -8.8435003    246.51346  0.010343801 0.0085751435            3 
 1987000   0.46470935   -8.8442435    246.24696  0.010327418 0.0085680095            2 
 1988000   0.45006324   -8.8444085    246.59285  0.010336722 0.0085608938            3 
 1989000   0.46693952   -8.8542959    246.25963  0.010317565 0.0085537799            4 
 1990000   0.46199847   -8.8520694    246.60169  0.010326704 0.0085466707            3 
 1991000   0.45653837   -8.8452193    246.32044  0.010309745 0.0085395687            2 
 1992000   0.45492484   -8.8645623    246.63811  0.010317859 0.0085324845            4 
 1993000   0.44685702   -8.8519927    246.19468  0.010294141 0.0085254016            4 
 1994000   0.46308119   -8.8553124      246.118  0.010285774 0.0085183291            2 
 1995000   0.45442347   -8.8532761    246.51178  0.010297067 0.0085112613            2 
 1996000   0.45372146   -8.8587702    246.49859  0.010291357 0.0085041943            4 
 1997000   0.44177677   -8.8612366    246.46534  0.010284817 0.0084971355            3 
 1998000   0.43557343   -8.8464572    246.20541  0.010268827  0.008490091            4 
 1999000   0.46187409   -8.8536365    246.51253  0.010276494 0.0084830632            3 
 2000000   0.45892632   -8.8438421    246.24957  0.010260399 0.0084760349            2 
 2001000    0.4601623   -8.8595544      246.612  0.010270365 0.0084690098            8 
 2002000   0.45484768   -8.8559829    246.53768  0.010262141 0.0084619906            3 
 2003000   0.45508769   -8.8621096    246.19859   0.01024291 0.0084549792            4 
 2004000   0.45691775   -8.8513212    245.85128  0.010223357 0.0084479811            4 
 2005000   0.46486136   -8.8542483    246.71581   0.01025419 0.0084409808            2 
 2006000   0.44741424   -8.8430483    246.14764  0.010225475 0.0084339924            4 
 2007000   0.45247238   -8.8626939    246.08364  0.010217723 0.0084270127            5 
 2008000   0.46276323   -8.8596557     246.4523  0.010227934 0.0084200355            4 
 2009000   0.45204958   -8.8631271    246.56029  0.010227323  0.008413068            3 
 2010000   0.45108207   -8.8692416    246.01844  0.010199769  0.008406107            3 
 2011000   0.44853141   -8.8618088    246.44236  0.010212264 0.0083991592            4 
 2012000   0.45023633   -8.8604554    245.87291  0.010183603 0.0083922183            2 
Loop time of 4866.62 on 48 procs for 2000000 steps with 4000 atoms

Performance: 71014.369 tau/day, 410.963 timesteps/s
99.4% CPU use with 48 MPI tasks x no OpenMP threads

MPI task timing breakdown:
Section |  min time  |  avg time  |  max time  |%varavg| %total
---------------------------------------------------------------
Pair    | 319.96     | 338.06     | 356.65     |  42.2 |  6.95
Neigh   | 31.767     | 33.296     | 34.598     |  12.0 |  0.68
Comm    | 312.01     | 329.83     | 349.44     |  47.7 |  6.78
Output  | 4.2373     | 4.2398     | 4.2727     |   0.2 |  0.09
Modify  | 4108.4     | 4118.2     | 4129.7     |   6.1 | 84.62
Other   |            | 42.97      |            |       |  0.88

Nlocal:        83.3333 ave          91 max          77 min
Histogram: 2 3 8 6 8 10 4 4 2 1
Nghost:        2134.75 ave        2156 max        2109 min
Histogram: 1 3 5 4 8 4 7 7 7 2
Neighs:        13999.6 ave       15734 max       12683 min
Histogram: 4 0 8 9 12 7 3 2 2 1
FullNghs:      28000.5 ave       30695 max       25583 min
Histogram: 2 3 6 7 10 4 10 3 2 1

Total # of neighbors = 1344026
Ave neighs/atom = 336.00650
Neighbor list builds = 106895
Dangerous builds = 0

#clear
#
#next RN
#
#jump SELF
Total wall time: 1:21:09
