
units lj                  # Use reduced LJ style units
atom_style atomic         # Uncharged point particles
atom_modify map hash      # Needed for indexing of clusters etc
                          # Used to be able to find where atoms are in relation to each other.

# Define a lattice with which to populate the simulation cell. With units
# set to 'lj' the second argument to the lattice command is the reduced
# density rho* and the spacings are multiples of that required to acheive
# that density. Also define a simulation cell called 'box' in lattice units
# and fill it with atoms. Here we're creating a box which is ten lattice
# constants in each direction.
lattice fcc 1.0 spacing 1 1 1                 # All equal sizes - gives the right reduced density.
Lattice spacing in x,y,z = 1.5874011 1.5874011 1.5874011

region box block 0 10 0 10 0 10 units lattice # Defines a region, "box", in lattice units
create_box 1 box                              # Creates a simulation box as specified above,
Created orthogonal box = (0.0000000 0.0000000 0.0000000) to (15.874011 15.874011 15.874011)
  3 by 4 by 4 MPI processor grid
                                              # with one type of atom
create_atoms 1 box                            # Creates particles on lattice points
Created 4000 atoms
  using lattice units in orthogonal box = (0.0000000 0.0000000 0.0000000) to (15.874011 15.874011 15.874011)
  create_atoms CPU = 0.002 seconds


# Set the mass of the first (and only) atom type.
mass 1 1.0

# Lennard-Jones interactions between particles, 3.5 sigma cut-off. Apply
# long range tail corrections to energy and pressure and set all coefficients
# to unity since we work in reduced units here. Note that this doesn't shift
# the potential such that it goes to zero at the cutoff. That would require
# pair_modify('shift', 'yes').
pair_style lj/cut  3.5      # non-GPU version
pair_modify tail  yes
pair_coeff 1  1  1.0  1.0   # Intearaction between 1 and 1 set with epsilon = 1 and sigma = 1

write_data data.*
System init for write_data ...
Neighbor list info ...
  update every 1 steps, delay 10 steps, check yes
  max neighbors/atom: 2000, page size: 100000
  master list distance cutoff = 3.8
  ghost atom cutoff = 3.8
  binsize = 1.9, bins = 9 9 9
  1 neighbor lists, perpetual/occasional/extra = 1 0 0
  (1) pair lj/cut, perpetual
      attributes: half, newton on
      pair build: half/bin/atomonly/newton
      stencil: half/bin/3d
      bin: standard

#############################
#   M E L T   S Y S T E M   #
#############################

velocity all create 2.4 9580093 mom yes dist gaussian # Assign velocities
                                                    # Temperature 2.4, random number seed, zero linear momentum
						                                                        # Gaussian distribution

timestep 0.002   # simulation timestep
thermo 1000       # output thermodynamic data every 1000 steps

# Define a fix  in this case with index 1 applied to all
# particles in the simulation. This fix is for simulations
# in the anisotropic NPT ensemble. Note that we use the MTK
# correction.
fix 1 all npt temp 2.4 2.4 0.1 iso 5.68 5.68 0.5 mtk yes tchain 5 pchain 5 # Use NPT ensemble
                                                                         # Set temperature and pressure and damping
                                                                         # Numbers of thermostats in chain and in barostat
run 1000         # run for 10000 steps
Per MPI rank memory allocation (min/avg/max) = 3.642 | 3.644 | 3.648 Mbytes
Step Temp E_pair E_mol TotEng Press Volume 
       0          2.4   -8.3859253            0   -4.7868253   -2.2405722         4000 
    1000    2.3310961   -4.4126417            0  -0.91687173     5.740376    5176.6007 
Loop time of 0.224196 on 48 procs for 1000 steps with 4000 atoms

Performance: 770755.366 tau/day, 4460.390 timesteps/s
99.5% CPU use with 48 MPI tasks x no OpenMP threads

MPI task timing breakdown:
Section |  min time  |  avg time  |  max time  |%varavg| %total
---------------------------------------------------------------
Pair    | 0.091939   | 0.10089    | 0.1153     |   1.4 | 45.00
Neigh   | 0.018012   | 0.01901    | 0.021853   |   0.6 |  8.48
Comm    | 0.065942   | 0.07878    | 0.090206   |   2.2 | 35.14
Output  | 2.6294e-05 | 2.6917e-05 | 3.5099e-05 |   0.0 |  0.01
Modify  | 0.01895    | 0.023943   | 0.031054   |   2.1 | 10.68
Other   |            | 0.001549   |            |       |  0.69

Nlocal:        83.3333 ave          94 max          75 min
Histogram: 3 1 4 14 9 10 3 2 0 2
Nghost:        1387.96 ave        1410 max        1370 min
Histogram: 7 5 5 3 9 4 1 6 5 3
Neighs:        7369.90 ave        8711 max        6410 min
Histogram: 1 4 8 11 10 6 5 2 0 1

Total # of neighbors = 353755
Ave neighs/atom = 88.438750
Neighbor list builds = 87
Dangerous builds = 20

# Equilibrate just above the melting temperature to avoid step fn in T

fix 1 all npt temp 1.25 1.25 0.1 iso 5.68 5.68 0.5 mtk yes tchain 5 pchain 5
run 1000
Per MPI rank memory allocation (min/avg/max) = 3.642 | 3.644 | 3.648 Mbytes
Step Temp E_pair E_mol TotEng Press Volume 
    1000    2.3310961   -4.4126417            0  -0.91687173     5.740376    5176.6007 
    2000    1.2492981   -5.8103729            0   -3.9368942    5.8537892    4340.8265 
Loop time of 0.21703 on 48 procs for 1000 steps with 4000 atoms

Performance: 796204.401 tau/day, 4607.664 timesteps/s
99.6% CPU use with 48 MPI tasks x no OpenMP threads

MPI task timing breakdown:
Section |  min time  |  avg time  |  max time  |%varavg| %total
---------------------------------------------------------------
Pair    | 0.093818   | 0.099918   | 0.10761    |   1.0 | 46.04
Neigh   | 0.015409   | 0.016178   | 0.017326   |   0.3 |  7.45
Comm    | 0.067974   | 0.074922   | 0.084305   |   1.4 | 34.52
Output  | 2.4381e-05 | 2.5122e-05 | 3.1971e-05 |   0.0 |  0.01
Modify  | 0.01993    | 0.024018   | 0.028654   |   1.4 | 11.07
Other   |            | 0.001968   |            |       |  0.91

Nlocal:        83.3333 ave          91 max          76 min
Histogram: 2 0 5 3 17 6 10 1 2 2
Nghost:        1556.00 ave        1579 max        1538 min
Histogram: 4 6 4 6 8 9 5 3 2 1
Neighs:        8770.42 ave        9624 max        7882 min
Histogram: 2 2 3 6 9 11 6 6 2 1

Total # of neighbors = 420980
Ave neighs/atom = 105.24500
Neighbor list builds = 74
Dangerous builds = 7


# Small amount of linear quench

fix 1 all npt temp 1.25 ${temp} 0.1 iso 5.68 5.68 0.5 mtk yes tchain 5 pchain 5
fix 1 all npt temp 1.25 1.01 0.1 iso 5.68 5.68 0.5 mtk yes tchain 5 pchain 5
run 2000
Per MPI rank memory allocation (min/avg/max) = 3.643 | 3.645 | 3.648 Mbytes
Step Temp E_pair E_mol TotEng Press Volume 
    2000    1.2492981   -5.8103729            0   -3.9368942    5.8537892    4340.8265 
    3000    1.1430151   -6.0315418            0   -4.3174478    5.7555033    4251.2341 
    4000    1.0167854   -6.2032627            0   -4.6784659    5.8392877    4168.5385 
Loop time of 0.45898 on 48 procs for 2000 steps with 4000 atoms

Performance: 752973.976 tau/day, 4357.488 timesteps/s
99.6% CPU use with 48 MPI tasks x no OpenMP threads

MPI task timing breakdown:
Section |  min time  |  avg time  |  max time  |%varavg| %total
---------------------------------------------------------------
Pair    | 0.1961     | 0.21492    | 0.25746    |   2.3 | 46.83
Neigh   | 0.027001   | 0.029019   | 0.034378   |   0.7 |  6.32
Comm    | 0.12013    | 0.16176    | 0.18756    |   3.0 | 35.24
Output  | 4.675e-05  | 4.8206e-05 | 6.2554e-05 |   0.0 |  0.01
Modify  | 0.039465   | 0.048434   | 0.060168   |   2.6 | 10.55
Other   |            | 0.004796   |            |       |  1.04

Nlocal:        83.3333 ave          90 max          75 min
Histogram: 1 1 5 2 8 8 11 4 6 2
Nghost:        1599.88 ave        1612 max        1588 min
Histogram: 3 6 3 4 8 7 5 4 5 3
Neighs:        9130.58 ave       10038 max        7964 min
Histogram: 1 0 3 7 7 9 6 9 5 1

Total # of neighbors = 438268
Ave neighs/atom = 109.56700
Neighbor list builds = 127
Dangerous builds = 0

#############################
# F R E E Z E  S Y S T E M  #
#############################

# Define solid atoms. This closely follows ten Wolde  Ruiz-Montero and Frenkel  Faraday Discuss  1996  104  93-110
# Compute components of the per-atom q6 vector
compute q6 all orientorder/atom degrees 1 6 components 6 nnn NULL cutoff 1.3 # compute the Q6 parameter.
                                                                             # Use all neighbours within 1.3 unit cell.

# get number of connections
compute coord_number all coord/atom orientorder q6 0.5

# An atom is solid if it has 8 or more connections (of a possible 14)
variable is_solid atom c_coord_number>=8
group solid dynamic all var is_solid    # Must be dynamic to update
dynamic group solid defined

# do clustering
compute cluster solid cluster/atom 1.3 # Create a cluster where all atoms within are solid and max 1.3 units from another member

# define chunks one chunk per cluster
compute clus_chunks solid chunk/atom c_cluster nchunk every compress yes  # Says which atoms are in which chunk

# count the size of each chunk
compute size_chunks solid property/chunk clus_chunks count


# Find the maximum entry in the vector of chunk sizes
variable max_n equal max(c_size_chunks)


# Thermo style which includes this variable
thermo_style custom step temp pe vol v_max_n

thermo ${N}  # Print the thermo information every 100 steps
thermo 1000  

# Reset the npt fix at a lower temperature (below freezing)
fix 1  all npt temp  ${temp} ${temp}  0.1  iso  5.68  5.68  0.5  mtk yes tchain  5  pchain  5
fix 1  all npt temp  1.01 ${temp}  0.1  iso  5.68  5.68  0.5  mtk yes tchain  5  pchain  5
fix 1  all npt temp  1.01 1.01  0.1  iso  5.68  5.68  0.5  mtk yes tchain  5  pchain  5

dump dmp2 all dcd ${N} traj_${rand}.dcd
dump dmp2 all dcd 1000 traj_${rand}.dcd
dump dmp2 all dcd 1000 traj_462431.dcd


# fix rnuntil all halt ${N} v_max_n >= 3980 error soft message no   # Stop when solidified


run 1000000 # 5000000  # Run for this many steps
Neighbor list info ...
  update every 1 steps, delay 10 steps, check yes
  max neighbors/atom: 2000, page size: 100000
  master list distance cutoff = 3.8
  ghost atom cutoff = 3.8
  binsize = 1.9, bins = 9 9 9
  4 neighbor lists, perpetual/occasional/extra = 1 3 0
  (1) pair lj/cut, perpetual
      attributes: half, newton on
      pair build: half/bin/atomonly/newton
      stencil: half/bin/3d
      bin: standard
  (2) compute orientorder/atom, occasional
      attributes: full, newton on
      pair build: full/bin/atomonly
      stencil: full/bin/3d
      bin: standard
  (3) compute coord/atom, occasional
      attributes: full, newton on
      pair build: full/bin/atomonly
      stencil: full/bin/3d
      bin: standard
  (4) compute cluster/atom, occasional
      attributes: full, newton on
      pair build: full/bin/atomonly
      stencil: full/bin/3d
      bin: standard
Per MPI rank memory allocation (min/avg/max) = 9.365 | 9.368 | 9.371 Mbytes
Step Temp PotEng Volume v_max_n 
    4000    1.0167854   -6.2032627    4168.5385            4 
    5000    1.0029209   -6.2528022    4169.7421            6 
    6000    1.0130484   -6.2616642    4170.0637            7 
    7000    1.0081949   -6.2713621     4175.675            3 
    8000    1.0077287   -6.2777994    4178.0148            4 
    9000    1.0044417   -6.2456026     4160.968            6 
   10000    1.0066575   -6.2557765    4142.4135           11 
   11000    1.0104398   -6.2457837    4169.6981            6 
   12000    1.0048477   -6.2718502    4163.5743            3 
   13000    1.0079198   -6.2906402    4150.5647            4 
   14000    1.0028187   -6.2742431    4158.6286            6 
   15000    1.0168802   -6.2399143    4168.4958            5 
   16000    1.0109073   -6.2779277    4150.6327            3 
   17000     1.029978   -6.2627361    4146.7169            6 
   18000    1.0244168   -6.2843509    4166.0283            6 
   19000    1.0086909   -6.2526392    4154.0973            6 
   20000    1.0125929   -6.2423504    4157.3773           12 
   21000    1.0068117   -6.2612418    4169.9954           19 
   22000    1.0307531   -6.2444085    4159.7623            6 
   23000    1.0250227   -6.2653976    4159.3533           10 
   24000    1.0212308   -6.2280682    4159.2439            8 
   25000    1.0057448   -6.2405368    4159.9912            7 
   26000    1.0120974   -6.2919793    4151.5389            6 
   27000   0.99691308   -6.2377292     4154.176            7 
   28000    1.0002936   -6.2472961    4170.3548            5 
   29000     1.010698   -6.2632927    4148.0604            6 
   30000    1.0182635   -6.2669853    4162.0516            6 
   31000    1.0234812     -6.26556    4171.3611            5 
   32000   0.99822084   -6.2404604     4159.471            5 
   33000    1.0438892    -6.305278    4158.3624            9 
   34000    1.0202288   -6.2689045    4141.4666            4 
   35000    1.0230901   -6.2708639    4168.1451            8 
   36000    0.9992592   -6.2458488    4181.1303           10 
   37000    1.0185121   -6.2593449    4164.1256            7 
   38000   0.99327742   -6.2479171    4159.7797            8 
   39000    1.0314282   -6.2522903     4158.239           10 
   40000   0.99173268   -6.2582353    4174.8669            7 
   41000    1.0028032   -6.2368233    4166.2794            3 
   42000    1.0257643   -6.2353235    4161.2336            4 
   43000    1.0333207   -6.2605257    4147.6464            4 
   44000    1.0069461   -6.2824346    4147.5883            5 
   45000    1.0094996   -6.2480263    4172.2855           12 
   46000    1.0176629   -6.2791286    4167.9752            7 
   47000    1.0308427   -6.2670081    4171.5294            6 
   48000    1.0124165   -6.2404375    4163.2714            5 
   49000    1.0015212   -6.2343994    4162.3329            8 
   50000    1.0174263   -6.2567763    4169.6061           10 
   51000    1.0400384   -6.2861396    4141.4194            6 
   52000     1.013966   -6.2611432     4162.701            4 
   53000    1.0114415   -6.2586989    4142.4536            7 
   54000     1.008106   -6.2649877    4154.9419            3 
   55000     1.015015   -6.2502128    4176.8372            6 
   56000    1.0084561    -6.239703    4185.1404            5 
   57000    1.0061939   -6.2618595    4164.8549           11 
   58000   0.97775323   -6.2356775    4168.5142           11 
   59000    1.0353343    -6.242046    4185.9814            3 
   60000    1.0226778   -6.2588584    4163.0568           11 
   61000    1.0202064   -6.2465495    4160.6911            6 
   62000   0.99897641   -6.2603274    4159.0733            6 
   63000    1.0192413    -6.252391    4151.6911            6 
   64000    1.0230833   -6.2342306      4156.26            7 
   65000    1.0096286   -6.2547619    4170.4525            7 
   66000    1.0020892   -6.2528042    4152.3808            5 
   67000    1.0127585    -6.285746    4169.1496            7 
   68000    1.0188501   -6.2444243    4169.5802            5 
   69000     1.004997   -6.2672916     4148.769            6 
   70000   0.98677549   -6.2567228    4148.3157            8 
   71000    1.0117071   -6.2636192    4167.6166           14 
   72000    1.0214947   -6.2188766    4170.4358            6 
   73000     1.006156   -6.2655335     4154.199            7 
   74000    1.0416112   -6.2722649    4162.2464            7 
   75000    1.0155936   -6.2480115    4154.6101            5 
   76000   0.98433634   -6.2556886    4155.9887            4 
   77000    1.0219893   -6.2671586    4163.2322            5 
   78000    1.0127337   -6.2530915    4168.9353            4 
   79000    1.0147587   -6.2761344    4173.9701            6 
   80000    1.0116005   -6.2541054    4154.3346            6 
   81000   0.98354202   -6.2327162    4172.7176           10 
   82000    1.0129137   -6.2264681    4164.7559           26 
   83000    1.0164984   -6.2164385    4168.7401            6 
   84000    1.0032093   -6.2858047    4148.5295            6 
   85000    1.0072992   -6.2662127    4160.8286            7 
   86000     1.013766    -6.216601    4154.8004           21 
   87000   0.98845088      -6.2585    4146.7796            5 
   88000   0.99007666   -6.2639947    4172.6743            9 
   89000    1.0417024   -6.2436852    4152.1812            5 
   90000    1.0258754   -6.2531589    4151.3075           11 
   91000    1.0005852   -6.2652506    4141.9788           13 
   92000    1.0280528   -6.2560616    4159.1907            7 
   93000    1.0218958   -6.2522655    4172.5945            5 
   94000    1.0299523    -6.220807    4157.0989            6 
   95000    1.0230254   -6.2371325    4164.0158           12 
   96000    1.0127479   -6.2520222    4149.3661           11 
   97000   0.99915258   -6.2262563    4159.2555            4 
   98000    1.0235016   -6.2584642    4158.1349           15 
   99000    1.0307745    -6.243082    4171.9945            4 
  100000     1.020427   -6.2883486    4148.6063            7 
  101000    1.0144558   -6.2727383    4169.3626            4 
  102000   0.99450378   -6.2296148    4163.7247           16 
  103000    1.0019962   -6.2668931    4157.9163            3 
  104000    1.0076856   -6.2729291    4152.6776            7 
  105000   0.99827876   -6.2777067    4156.4689            4 
  106000    1.0458035   -6.2521359    4157.7388            6 
  107000   0.99441055    -6.229168     4171.447            9 
  108000    1.0183251   -6.2727554    4156.2385            6 
  109000    1.0219218   -6.2155851    4175.6243           10 
  110000   0.99288345   -6.2656834    4147.4482           12 
  111000    1.0201731    -6.287451    4154.4673           13 
  112000   0.99929203    -6.271285    4147.4576           17 
  113000   0.98297957   -6.2806093    4152.0856            3 
  114000    1.0068865   -6.2513429    4159.2988            4 
  115000    1.0374049   -6.2419612    4162.8557            7 
  116000    1.0264804   -6.2557576    4156.9653            6 
  117000    1.0164327   -6.2135323    4162.3538            6 
  118000    1.0193537   -6.2321094    4154.4985            5 
  119000    1.0303543   -6.2732288    4146.0654            8 
  120000    1.0009928   -6.2400942    4142.8356            4 
  121000   0.99159467   -6.2507218    4149.8413            6 
  122000    1.0058012   -6.2725384    4160.9338           11 
  123000   0.99778187   -6.2620321    4159.5598            7 
  124000    1.0130523   -6.2424546    4157.9298            7 
  125000    1.0004587   -6.2768151    4154.1533            7 
  126000   0.98215503   -6.2445486    4159.6201            4 
  127000    1.0358269   -6.2118534    4165.6552           12 
  128000   0.98909276   -6.2753875    4157.0286           16 
  129000    1.0281163   -6.2826661    4155.1799           10 
  130000   0.99241127   -6.2359319    4144.4013           10 
  131000   0.98427801   -6.2599014    4169.1606            8 
  132000   0.99181098   -6.2472206    4175.6715           19 
  133000    1.0218202    -6.237804     4161.129            6 
  134000    1.0133756   -6.2387263    4160.5367            6 
  135000   0.99651751   -6.2628129    4161.3824            8 
  136000    1.0048061   -6.2984894    4155.0016           10 
  137000   0.99440929   -6.2804149     4151.491           24 
  138000    1.0287062   -6.2676406    4157.9943            4 
  139000    1.0149946   -6.2579726    4163.7165            6 
  140000   0.99832947   -6.2459574    4154.2944            8 
  141000   0.98878501   -6.2503429    4159.1338            9 
  142000    1.0119596   -6.2642002    4147.8989            5 
  143000    1.0173462   -6.2421033    4167.6847            8 
  144000   0.99176734   -6.2564952     4168.316            5 
  145000    1.0292958   -6.2736226     4150.706            6 
  146000     1.007623   -6.2580178    4149.2462            6 
  147000    1.0191171   -6.2299441    4159.3777            6 
  148000    1.0089235     -6.27684    4159.7978            4 
  149000   0.97714457   -6.2407462    4157.3104            5 
  150000    1.0075386   -6.2729833    4155.1589            4 
  151000     0.996734   -6.2709942    4168.0971            5 
  152000    1.0013696   -6.2901592    4151.4798            5 
  153000    1.0079457   -6.2372524    4168.0902           11 
  154000    1.0023773   -6.2467484    4166.7447            6 
  155000    1.0175399   -6.2417887    4160.0569            8 
  156000    1.0185737   -6.2706522    4171.8685            4 
  157000    1.0034593   -6.2596714    4169.0145            5 
  158000    1.0045674   -6.2411516     4152.792            4 
  159000     1.018835    -6.239417    4164.6422            5 
  160000    1.0099004   -6.2416973    4151.0871           21 
  161000    0.9894195   -6.2458785    4154.8737            9 
  162000    1.0113358    -6.221259    4189.2675           11 
  163000     1.005104   -6.2457007    4151.6039            5 
  164000    1.0004382   -6.2820282    4155.7084            9 
  165000    1.0287169   -6.2679176    4155.0803            3 
  166000    1.0170213   -6.2786182    4163.4545            6 
  167000    1.0075926   -6.2665292     4165.424            4 
  168000    1.0059559   -6.2530895    4153.2468            3 
  169000    1.0157598    -6.246236    4142.5762            2 
  170000    1.0173071   -6.2601958    4164.1266            4 
  171000    1.0277343   -6.2539951     4171.767            8 
  172000    1.0178138   -6.2884422     4151.858           15 
  173000    1.0077895   -6.2337059    4159.6199            4 
  174000    1.0151368   -6.2815347    4162.0495            9 
  175000    1.0229309   -6.2598324    4149.5239            5 
  176000    1.0193785    -6.261003    4171.0813            6 
  177000    1.0027784   -6.2728419    4145.5615            9 
  178000    1.0032612   -6.2578742    4162.6847            6 
  179000    1.0035423   -6.2391891    4144.8585            5 
  180000    1.0005747     -6.29998    4144.7696            6 
  181000     1.008879   -6.2750316    4144.7815            5 
  182000    1.0139473   -6.2630466    4172.1026            8 
  183000   0.99814712   -6.2946696    4158.7745           11 
  184000    1.0070626   -6.2862307    4157.7807            6 
  185000    1.0157801   -6.2664732     4156.218            4 
  186000    1.0092637   -6.2600884    4168.1382            4 
  187000    1.0106678   -6.2408699     4174.007            5 
  188000    1.0239287   -6.2407364    4162.9515           11 
  189000    1.0138309   -6.2598428     4163.674           11 
  190000   0.98513854   -6.2720261    4164.4423            5 
  191000   0.99380869   -6.2635185    4158.7689            4 
  192000    1.0110906   -6.2546626    4169.2243            9 
  193000    1.0177397   -6.2840211    4154.2561            8 
  194000    1.0145474    -6.268534    4158.8835            5 
  195000    1.0031459    -6.246717    4173.2374            8 
  196000    1.0216877   -6.2665326    4171.4676           11 
  197000    1.0210592   -6.2521764    4173.4954            8 
  198000    1.0128564    -6.267771    4169.5471            4 
  199000    1.0149423   -6.2760593    4154.9781            9 
  200000    1.0089636   -6.2721576    4140.2414            4 
  201000    1.0084376   -6.2759933     4168.505            7 
  202000    1.0107513   -6.2270337    4141.7747            5 
  203000     1.008257    -6.274768    4157.5157            7 
  204000   0.99734399   -6.2485287    4172.8916            5 
  205000   0.97708271   -6.2781502    4140.6356            6 
  206000     1.016727   -6.2542637    4157.1222            4 
  207000     1.037773   -6.2626627    4142.1321           20 
  208000    1.0015722    -6.235177     4166.614            6 
  209000    1.0122754   -6.2312423    4166.3549            5 
  210000    1.0297713   -6.2482487    4159.9331            4 
  211000    1.0321701   -6.2473473    4162.7668            5 
  212000    1.0076945   -6.2889055    4169.7498           12 
  213000    1.0207894   -6.2519287    4171.2295            3 
  214000   0.99047382   -6.2554554    4152.0993            6 
  215000   0.99541109      -6.2405    4160.0831            6 
  216000   0.99998351    -6.261835    4152.3697            6 
  217000   0.97660098   -6.2375707    4182.6497            6 
  218000    1.0136689   -6.2385968    4170.6437            4 
  219000    1.0241151   -6.2478879    4179.0441            6 
  220000   0.99874019   -6.2219997    4175.6503            3 
  221000    1.0226525   -6.2716742    4167.3466            6 
  222000   0.98573598   -6.2439372     4166.766            6 
  223000   0.98864958   -6.2795651    4171.1332            5 
  224000    1.0181736   -6.2532645    4155.2833           13 
  225000    1.0215489   -6.2760094    4154.9108            5 
  226000    1.0143857   -6.2361384    4167.6778           10 
  227000    1.0235793   -6.2526458    4163.4418            6 
  228000    1.0069485   -6.2029189    4164.4297            6 
  229000   0.99429934   -6.2219552    4174.7734            5 
  230000    1.0164423   -6.2519289    4151.2542            4 
  231000   0.99946068    -6.256034    4167.8872            6 
  232000   0.98888539   -6.2850614    4164.0786            5 
  233000    1.0122177   -6.2588239    4162.0796            9 
  234000    1.0097803   -6.2909924    4154.9535            6 
  235000    1.0190568   -6.2707963    4165.1453            6 
  236000    1.0295879   -6.2560041    4154.9229            4 
  237000    1.0008485   -6.2483373    4160.6111            4 
  238000    1.0008385   -6.2599971    4153.7786            9 
  239000   0.99971899   -6.2445367     4149.515            4 
  240000    1.0212324   -6.2810543    4155.8404           11 
  241000    1.0202459   -6.2322175    4159.3448            9 
  242000    1.0168365   -6.2581678    4159.2484            8 
  243000    1.0346635   -6.2466056    4145.2494            8 
  244000    1.0051571   -6.2652943    4150.5153            5 
  245000    1.0195055   -6.2682815    4153.6413            9 
  246000    1.0193566   -6.2488387    4153.4886            9 
  247000    1.0050644   -6.2502261     4162.476            5 
  248000    1.0139007   -6.2190047    4174.0251            4 
  249000      1.02529   -6.2261973    4171.3573            7 
  250000    1.0125255   -6.2535554    4175.0157            7 
  251000    1.0119462   -6.2419707    4160.6496            9 
  252000    1.0141247   -6.2559056    4150.8227           10 
  253000       1.0245   -6.2814627    4157.8255            3 
  254000    1.0164174    -6.269963    4164.4955           13 
  255000    1.0138299   -6.2436024    4166.4317           11 
  256000    1.0006907   -6.2672547    4151.9803            7 
  257000   0.99775242    -6.245379    4156.0629            5 
  258000    0.9976141   -6.2405076    4170.1458            7 
  259000    1.0215924   -6.2274068    4165.9025           10 
  260000    1.0049459   -6.2476061    4157.8019            5 
  261000    1.0194066   -6.2548213      4176.84            6 
  262000    1.0073212   -6.2361449         4170            5 
  263000    1.0123724   -6.2326981    4183.8745            8 
  264000    1.0162092   -6.2234783    4148.6437            5 
  265000    1.0172376   -6.2634085    4163.7087            7 
  266000    1.0286253   -6.2613324    4174.9562            3 
  267000    1.0111306   -6.2455213     4154.129            5 
  268000    1.0036204    -6.234879    4152.4142            7 
  269000    1.0079484   -6.2278383     4175.767            9 
  270000    1.0136426   -6.2536886    4156.7962            7 
  271000    1.0079941   -6.2808436    4158.1309            4 
  272000    1.0363947   -6.2255015     4168.414            9 
  273000    1.0278407   -6.2789982    4161.2388            5 
  274000   0.99275652   -6.2548392    4159.9136            6 
  275000    1.0221702   -6.2411211    4161.8268            7 
  276000    1.0151927   -6.2076338    4154.8845            3 
  277000     1.011195   -6.2483616    4153.2623            3 
  278000    1.0023131   -6.2777492    4135.0475           10 
  279000   0.98017551   -6.2349913    4170.4093            7 
  280000    1.0089979   -6.2232918    4174.0329            5 
  281000    1.0023937   -6.2541757    4155.8327            6 
  282000    1.0077885   -6.2189383    4162.6742            5 
  283000    0.9956508   -6.2190478    4177.2096            6 
  284000    1.0112555   -6.2466204    4154.0514           14 
  285000    1.0039197   -6.1975135    4153.7671           12 
  286000    1.0039627   -6.2425714    4174.3598            3 
  287000    1.0171379   -6.2299955    4169.4436           11 
  288000    1.0088671    -6.247239    4172.7004            9 
  289000    1.0023404   -6.2683055    4169.9874            6 
  290000    1.0056826   -6.2940014    4148.6806           10 
  291000    1.0212966   -6.2583571    4160.8772            9 
  292000    1.0026081   -6.2267311     4167.886           10 
  293000   0.99953558   -6.2676903    4165.1352            9 
  294000    1.0361897    -6.254229    4166.7938            8 
  295000    1.0155133   -6.2590544    4159.1112            6 
  296000   0.99857097   -6.2456045    4153.4553            5 
  297000    1.0179883   -6.2371929     4175.413            8 
  298000   0.99971509   -6.2244617    4171.5371            3 
  299000    1.0102334   -6.2612879    4164.6929           10 
  300000    1.0175033   -6.2755381    4149.8944            7 
  301000    1.0106882    -6.278513    4158.4965            5 
  302000   0.98962177   -6.2404475    4159.6874            4 
  303000   0.99750753   -6.2566162    4154.5622            5 
  304000   0.99932302   -6.2596234    4165.5279           10 
  305000    1.0058093   -6.2699357     4160.545            6 
  306000     1.018338    -6.249639    4164.9335            5 
  307000    1.0048062   -6.2350446    4185.3015            4 
  308000   0.97419361   -6.2893842    4173.2799            5 
  309000   0.99457716   -6.2810837     4155.622            6 
  310000   0.99135403   -6.2548604    4161.5775            3 
  311000    1.0208588    -6.277206    4140.0698            4 
  312000   0.99529955   -6.2424349     4157.029            9 
  313000    1.0181612    -6.278642    4155.3905            4 
  314000   0.99401074   -6.2504613    4150.3205            8 
  315000    1.0161539   -6.2381736    4153.9354            9 
  316000   0.99588302   -6.2442011    4151.8005           12 
  317000    1.0130446   -6.2385604    4148.9275            5 
  318000    1.0154635   -6.2946403    4165.6597            6 
  319000    1.0289003    -6.240348     4161.973            5 
  320000    1.0056989   -6.2668682    4159.5139            6 
  321000    1.0017846   -6.2351328    4159.5232            8 
  322000   0.98614139    -6.250257    4157.1253            6 
  323000    1.0052779   -6.2370313    4152.5477            7 
  324000    1.0050493   -6.2874527    4149.5651            5 
  325000    1.0237293    -6.283286    4165.6527           13 
  326000    1.0163609   -6.2709333    4164.6063            6 
  327000    1.0147282   -6.2255417    4168.5054            4 
  328000    1.0120639   -6.2237557     4173.841            5 
  329000    1.0019823   -6.2642569    4171.1431            7 
  330000     1.010991    -6.242608    4160.7559            9 
  331000    1.0110078   -6.2650211    4145.3438            5 
  332000    1.0065575   -6.2597156    4168.3116            8 
  333000    1.0109973    -6.275498    4140.2093            4 
  334000    1.0253852   -6.2482502    4166.9121            4 
  335000    1.0157293    -6.230225    4160.1551            5 
  336000    1.0090226   -6.2767931    4161.3682           11 
  337000    1.0404686    -6.235501    4164.5542            3 
  338000   0.99187324   -6.2344223    4164.2447            2 
  339000    1.0074154   -6.2558488    4181.0719            4 
  340000    1.0050024   -6.2635515    4167.1009            7 
  341000   0.99059398   -6.2934839    4164.1022            7 
  342000       1.0127   -6.2797061    4163.5082            8 
  343000    1.0226663   -6.2668943    4152.0519           14 
  344000    1.0233512   -6.2553779    4167.3721           12 
  345000    1.0265017     -6.22798    4146.5481            4 
  346000    1.0121281   -6.2561457     4148.761            8 
  347000    1.0081971    -6.248844    4166.7506            6 
  348000    1.0033273   -6.2747181    4153.1186            5 
  349000    1.0255812   -6.2733815    4146.9135            5 
  350000   0.99172215   -6.2496139    4190.0287            6 
  351000   0.99498601   -6.2620768     4144.305            9 
  352000    1.0474047   -6.2682348    4151.3043            6 
  353000    1.0161473   -6.2464604     4159.542            5 
  354000   0.99758403   -6.2929167    4158.7834           11 
  355000     1.030936   -6.2560547    4182.1352            4 
  356000    1.0080081    -6.268872    4158.6669            7 
  357000    1.0187767    -6.256755    4184.1032            4 
  358000   0.98843912   -6.2730353    4164.0079            6 
  359000    1.0015934    -6.261278    4175.0615            5 
  360000    1.0263695   -6.2825157    4143.9094            4 
  361000   0.99698578   -6.2689697    4161.2465            6 
  362000    1.0233677   -6.2179591    4157.7037            7 
  363000     1.024102    -6.234786    4165.6652            3 
  364000    1.0028687   -6.2487924     4176.837            9 
  365000   0.98914394   -6.2256967    4159.1287            4 
  366000   0.99621132   -6.2441707    4156.4491            2 
  367000    1.0174256    -6.250769    4173.9809            8 
  368000    1.0091363   -6.2626544    4145.3494            5 
  369000   0.99829048   -6.2425278    4163.6911            7 
  370000   0.97788933   -6.2169251    4166.2097            8 
  371000    1.0003584   -6.2282233    4172.4687            4 
  372000    1.0011657   -6.2824871    4149.3741            6 
  373000    1.0152586   -6.2353526     4164.247            3 
  374000    0.9879691    -6.236508    4144.3444            6 
  375000    1.0121294   -6.2528894    4136.0847            9 
  376000   0.99890249   -6.2685378    4160.5073            4 
  377000    1.0113443   -6.2925123    4149.7895            3 
  378000    1.0155159   -6.2614158    4144.5211            5 
  379000   0.99701406   -6.2339559    4175.2265            6 
  380000    1.0054566   -6.2081709    4173.4698            5 
  381000    1.0220365   -6.2404455    4142.3324            9 
  382000    1.0072254   -6.2747648    4175.7213            7 
  383000    1.0145734   -6.2596784    4157.6708            7 
  384000    1.0238695   -6.2926033    4130.4136            9 
  385000    1.0150717    -6.250797    4159.6328            3 
  386000    1.0019403   -6.2215164    4167.7034            9 
  387000    1.0124179   -6.2756078    4138.5674            4 
  388000    1.0083213   -6.2193585    4155.1616            6 
  389000    1.0018163   -6.2256492    4173.2461            5 
  390000    1.0005625   -6.2684291    4145.5306            3 
  391000   0.99612505   -6.2505764    4160.8267            8 
  392000   0.99925091   -6.2468157     4170.678            4 
  393000     1.023957   -6.2329491    4149.7757            6 
  394000    1.0022276    -6.231643    4157.8929            9 
  395000    1.0001632   -6.2728834    4151.5901            6 
  396000    1.0143405   -6.2324392    4171.3368            8 
  397000    1.0196252   -6.2426614    4177.5083            6 
  398000    1.0130966   -6.2863288    4153.4348            6 
  399000   0.98787581   -6.2323048    4161.0884            4 
  400000    1.0146966   -6.2775692    4156.2854            7 
  401000    1.0252651   -6.2783681    4136.4459            8 
  402000     1.001556   -6.2698748    4167.1027           11 
  403000   0.99419076   -6.2258523    4163.1088            5 
  404000   0.99612771   -6.2531615     4182.893            5 
  405000   0.99045959   -6.2250773    4165.9739            6 
  406000    1.0003567   -6.2554087    4172.9466            3 
  407000    1.0274452   -6.2374922    4161.7555            3 
  408000   0.98991661   -6.2486299    4172.5575            4 
  409000    1.0190373    -6.264132     4155.067            4 
  410000     1.037158   -6.2613529    4158.5564            4 
  411000    1.0140162   -6.2502687    4142.9432            5 
  412000   0.98410148   -6.2435101    4168.6835            7 
  413000    1.0165193   -6.2002688    4181.2839            7 
  414000    1.0030165   -6.2541842    4181.7533            6 
  415000    1.0135243   -6.2907686     4150.342            9 
  416000   0.99349786   -6.2738753    4138.2448           13 
  417000    1.0054957   -6.2386421    4172.2556            5 
  418000    1.0099979   -6.2642099    4167.7665            6 
  419000    1.0088037   -6.2930805    4148.6918            4 
  420000    1.0229866   -6.2277665    4145.1048            6 
  421000    1.0148087     -6.26458    4165.3654            8 
  422000    1.0168865   -6.2378864    4151.9198            8 
  423000    1.0099848   -6.2829893    4151.5229            9 
  424000    1.0255039   -6.2299764    4178.0514            5 
  425000    1.0062817   -6.2381218    4159.1524            6 
  426000    1.0077291   -6.2488407    4157.3017            4 
  427000    1.0281568   -6.2789912    4158.0284            8 
  428000    1.0287119   -6.2535382    4150.6895            4 
  429000    1.0343561   -6.2383852    4158.9643           12 
  430000    1.0073117   -6.2493984     4163.075            6 
  431000    1.0255956   -6.2368988    4160.8209            2 
  432000    1.0303998   -6.2720443    4163.0593            4 
  433000    1.0097176   -6.2708688    4152.1971            4 
  434000    1.0297307   -6.2520805    4159.1724            7 
  435000    1.0174797   -6.2880693    4156.9896            6 
  436000    1.0065636   -6.2316611    4163.2484            5 
  437000    1.0256099   -6.2588647    4171.5705            7 
  438000    1.0075584   -6.2661187    4143.7435            6 
  439000   0.98360964   -6.2754411    4142.4739            3 
  440000    1.0177662   -6.2701549    4150.4754            5 
  441000     1.004098   -6.2681638     4159.919            6 
  442000    0.9819673   -6.2549151    4153.1035            6 
  443000    1.0038806   -6.2276813    4162.1937           11 
  444000    1.0082363   -6.2347834    4173.3337            6 
  445000    1.0091385   -6.2512835      4148.36            7 
  446000    1.0123902   -6.2575583    4152.9162            6 
  447000    1.0190843   -6.2687735    4154.4871            4 
  448000   0.97891671   -6.2780436      4163.68           14 
  449000    1.0276836   -6.2411673    4160.2787            8 
  450000    1.0120667   -6.2249518    4157.6431            7 
  451000   0.99570816   -6.2800002    4171.4731            7 
  452000   0.99425487   -6.2722222    4178.5381            4 
  453000     1.009399   -6.2522289    4154.8007            7 
  454000    1.0147402   -6.2623259     4144.448            5 
  455000    1.0186965   -6.2708319    4157.9679           10 
  456000    1.0200642    -6.257113     4177.418            6 
  457000    1.0178136   -6.2510385    4175.5321            4 
  458000    1.0032896   -6.2186427    4166.9473            9 
  459000    1.0174374    -6.294176    4138.7539            3 
  460000   0.99427136   -6.2787239    4160.5693            4 
  461000     1.003986   -6.2755427    4171.8823            8 
  462000    1.0221853   -6.2533401    4154.2073            5 
  463000    0.9874309    -6.289664     4149.465            5 
  464000    1.0084245   -6.2520669    4158.2304            5 
  465000     1.001411   -6.2201403    4154.4923           11 
  466000    1.0004334    -6.264044    4157.4859            9 
  467000   0.99795541    -6.288421    4149.9463            6 
  468000    1.0103801   -6.2836879    4157.5314           13 
  469000    1.0147534   -6.2236247    4158.6021           10 
  470000    1.0155026   -6.2528797    4157.5939            5 
  471000    1.0252854   -6.2416441     4165.537            8 
  472000   0.99462178   -6.2392726    4157.8421            7 
  473000     1.023127    -6.271706    4161.4249            8 
  474000    1.0222659   -6.2550185    4163.4197           12 
  475000    1.0065059   -6.2454805     4151.049           11 
  476000    1.0062255    -6.281309    4158.5162            5 
  477000    1.0071366   -6.2569919    4159.6901           10 
  478000   0.98909986    -6.257125    4151.5508           13 
  479000    1.0011782   -6.2696557    4145.5999            6 
  480000    1.0022469   -6.2733127     4171.686            3 
  481000    1.0135369   -6.2413695    4165.6892            6 
  482000   0.99483118   -6.2392036    4152.2746           19 
  483000    1.0004106   -6.2608776    4152.7732            9 
  484000    1.0301511   -6.2677318    4153.7242            3 
  485000    1.0335578   -6.2294905    4164.7282            5 
  486000    1.0157876    -6.229976    4161.6252            6 
  487000   0.99413206   -6.2392077    4154.3098            6 
  488000    1.0110742   -6.2513704    4157.1323           15 
  489000    1.0287879   -6.2495742    4162.8849            4 
  490000    1.0037722   -6.2756545    4143.9746            4 
  491000    1.0216185   -6.2865562     4145.402            4 
  492000   0.98814053   -6.2471332    4170.8829            6 
  493000   0.99783743   -6.2263475    4168.9757            6 
  494000    1.0036127   -6.2430845    4148.3422            6 
  495000    1.0126886     -6.25646    4165.8605           11 
  496000    1.0243396   -6.2256245    4165.4926            5 
  497000   0.98515483   -6.2661978    4177.0424            7 
  498000    1.0291203   -6.2422022    4158.6793            6 
  499000    1.0276001    -6.273947    4137.9344           10 
  500000    1.0115702   -6.2648572    4175.9882            5 
  501000   0.99754748   -6.2528739    4160.8552           10 
  502000    1.0074191   -6.2706253    4150.7982            7 
  503000   0.99706143    -6.242898    4136.0175            4 
  504000    1.0020244   -6.1923491    4180.0162            7 
  505000    1.0075062   -6.2793155    4161.3059            9 
  506000    1.0197306   -6.2289763    4145.9885            5 
  507000     1.037611   -6.2407179    4165.2029            4 
  508000    1.0023515   -6.2245865    4157.0454            7 
  509000    1.0082436    -6.236365    4170.2832            8 
  510000    1.0190759   -6.2388353    4149.8264            9 
  511000    1.0106638   -6.2756025    4156.6484            3 
  512000   0.99948386   -6.2619414    4156.7752            9 
  513000    1.0167684   -6.2286915    4176.2804            5 
  514000    1.0029831   -6.2306011    4154.9517            9 
  515000    1.0072694   -6.2654094    4142.4897            7 
  516000   0.99792005   -6.2279668    4152.0945            3 
  517000    1.0097283   -6.2251124    4163.5447            6 
  518000    1.0315885   -6.2637846    4158.0657            4 
  519000   0.99679895   -6.2680956    4149.9535            3 
  520000    1.0056322   -6.2328462    4149.2234            4 
  521000    1.0370192   -6.2475756    4165.2423            3 
  522000    1.0294835   -6.2818006    4158.8407           12 
  523000    1.0295711   -6.2608723    4168.6292            8 
  524000    1.0010912   -6.2122775    4168.6568           12 
  525000    1.0103918   -6.2631463    4156.7101            7 
  526000    0.9960549   -6.2333779    4184.1323            6 
  527000   0.99012501   -6.2246012    4149.4482            4 
  528000    1.0215315   -6.2266572    4164.7197            4 
  529000     1.032081   -6.2442442     4161.121           10 
  530000    1.0076707   -6.2730512    4151.4936            6 
  531000    1.0154533   -6.2426097    4175.6959            5 
  532000   0.99854528   -6.2822447    4191.5834            3 
  533000   0.98850863   -6.2331355    4178.7492           17 
  534000   0.98922573   -6.2502955    4141.3906            7 
  535000   0.98646612   -6.2467977    4142.7613           10 
  536000    1.0198111   -6.2528904    4158.0395            7 
  537000    1.0122941   -6.2371965    4152.3026            7 
  538000    1.0190553   -6.2625045    4156.8447            3 
  539000    1.0059345   -6.2461852    4176.8735            4 
  540000    1.0156333   -6.2714869    4144.6734            7 
  541000   0.99094382   -6.2837353    4163.0103           12 
  542000    1.0317822   -6.2491778    4157.1433            5 
  543000    1.0111889   -6.2893764    4157.2943            9 
  544000    1.0013179   -6.2640821    4162.1183            5 
  545000   0.99894423   -6.2552009    4167.2026            6 
  546000   0.98785803   -6.2469891    4154.0885           12 
  547000    1.0014332   -6.2908975    4166.8787            9 
  548000    0.9914341   -6.2879921    4151.8385            7 
  549000   0.99542942   -6.2310662    4171.5277            4 
  550000    1.0192858   -6.2695433    4151.0023            7 
  551000    1.0093448   -6.2602013    4173.1257            5 
  552000     1.000051   -6.2719248    4168.0576            7 
  553000    1.0204504   -6.2760376    4156.9782            8 
  554000   0.99881195   -6.2428481    4171.2341           11 
  555000   0.99659504    -6.265403    4155.9018            8 
  556000   0.99848433   -6.2488265    4161.0643            3 
  557000     1.007709    -6.291031    4162.3983            5 
  558000    1.0070031   -6.2868211      4140.42            4 
  559000    1.0187968   -6.2489195    4178.1005           10 
  560000    1.0336116   -6.2342522    4163.2838            5 
  561000    1.0149547   -6.2545408    4165.8401            4 
  562000    1.0139724     -6.27559    4147.7232            5 
  563000   0.99834645   -6.2819193    4170.4236            3 
  564000    1.0231775   -6.2443585    4160.5134            6 
  565000    1.0203839   -6.2447753    4159.3002            5 
  566000    1.0113977   -6.2432607    4157.9159            8 
  567000    1.0126806   -6.2489136    4158.0217            5 
  568000    1.0282763   -6.2230031    4168.8541            8 
  569000    1.0291448   -6.2262259    4154.7951           12 
  570000    1.0239845   -6.2347165    4179.2294            5 
  571000   0.99551354   -6.2371311    4166.8233           16 
  572000   0.98863237   -6.2654509    4161.6088            8 
  573000    1.0221707   -6.2331374    4162.4124            6 
  574000    1.0195152   -6.2356138    4171.7567            6 
  575000     1.011786   -6.2604614    4179.5377            7 
  576000   0.99744879   -6.2304641    4155.9615            4 
  577000    1.0104547   -6.2404771    4166.9074            6 
  578000    1.0038102    -6.229738    4168.5322            6 
  579000    1.0103593   -6.2329793    4153.1572            3 
  580000    1.0363929   -6.2454577    4150.6152           10 
  581000    1.0071693    -6.264262    4160.0719           10 
  582000    1.0223801   -6.2924766    4152.6897            5 
  583000    1.0027718   -6.2557632    4155.8655            7 
  584000   0.99027467   -6.2645281    4146.5182           11 
  585000    1.0140494   -6.2559777    4166.7306            6 
  586000    1.0094981   -6.2644848    4152.7522            4 
  587000    1.0235599   -6.2459456    4171.0525            3 
  588000    1.0059312   -6.2562901    4160.3012            4 
  589000    1.0112153   -6.2552982    4164.1357            6 
  590000    1.0159873   -6.2155563      4169.74            5 
  591000   0.98862776   -6.2435903    4170.2585            6 
  592000    1.0359354    -6.275055    4168.1413            9 
  593000     1.001071   -6.2373133    4148.0589            6 
  594000    1.0001412   -6.2982382    4151.8825            7 
  595000    1.0184782   -6.2918027    4164.5317            4 
  596000    1.0159088   -6.2918783    4169.1039            5 
  597000    1.0038591   -6.2497606    4167.6367            8 
  598000   0.99651346   -6.2488461    4157.4641            3 
  599000   0.97396588   -6.2641113     4143.394            9 
  600000   0.98430182   -6.2618205    4148.4195            6 
  601000    1.0080819   -6.2621217    4160.2564            5 
  602000    1.0191343   -6.2488961    4176.4042            6 
  603000    1.0200523   -6.2293253    4169.6332            7 
  604000     1.003962   -6.2726601    4173.1915            3 
  605000    1.0145785   -6.2644715    4154.1122            8 
  606000    1.0114274   -6.2418378    4160.1636            4 
  607000    1.0156111    -6.300479    4146.3051            7 
  608000    1.0224601    -6.261431    4170.2196           13 
  609000    1.0171268   -6.2720578    4161.9358            4 
  610000    1.0082183   -6.2939947    4152.8901            4 
  611000   0.97990451   -6.2733774    4176.2695            7 
  612000    1.0152824   -6.2737344    4147.5234            8 
  613000    1.0228202   -6.2307114    4151.6733            8 
  614000    1.0219142    -6.246794    4169.2418            4 
  615000    1.0104032   -6.2596145    4158.7174           13 
  616000    1.0016079   -6.2447189    4153.1263            6 
  617000    1.0119502   -6.2692111    4145.0048            5 
  618000    1.0213626   -6.2206879    4165.8438            3 
  619000    1.0264598   -6.2793813    4156.2491           14 
  620000    1.0110963    -6.245172    4163.4889            3 
  621000    1.0230223   -6.2265252    4166.7694            9 
  622000    1.0239899   -6.2052208    4166.6307            5 
  623000   0.98468788   -6.2185438    4167.7002            5 
  624000    1.0023324   -6.2528374     4168.837            5 
  625000     1.027354   -6.2751712    4148.0468            2 
  626000   0.98996326   -6.2405522    4172.8024            3 
  627000    1.0204363   -6.2789543    4153.9717            6 
  628000    1.0256845   -6.2507335    4145.5496            7 
  629000    1.0180841   -6.2849583    4161.4591            7 
  630000   0.99410369   -6.2596229    4163.9648            4 
  631000   0.98805842   -6.2426446    4149.2317            8 
  632000    1.0071075    -6.243653    4173.1322           10 
  633000   0.99826903   -6.2877494    4155.1435            5 
  634000    1.0318214   -6.2690389    4171.2919            8 
  635000    1.0078045   -6.2325747    4180.0361            6 
  636000    1.0210949   -6.2436094    4163.6156            4 
  637000    1.0140268   -6.2730308    4151.4316            7 
  638000    1.0261703   -6.2608318    4142.8956           17 
  639000    1.0168563    -6.245204    4146.3149            5 
  640000    1.0152406   -6.2563138    4155.1302            7 
  641000    1.0212323   -6.2746672    4158.5689            5 
  642000   0.96875018   -6.2238375    4150.6818            5 
  643000   0.98795258   -6.3021792    4141.6445            6 
  644000    1.0151173   -6.2651872    4166.8471           13 
  645000    1.0032973   -6.2464766     4165.543            9 
  646000   0.99086232   -6.2486362    4155.3736           10 
  647000    1.0103298   -6.2496664    4164.8503            8 
  648000    1.0048277   -6.2792634    4154.0556            5 
  649000   0.99843769   -6.2312736    4169.4258            5 
  650000    1.0217545     -6.24613    4161.9905            2 
  651000    1.0238276   -6.2444433    4154.6187            9 
  652000    1.0260501   -6.2632061    4178.3821            5 
  653000    1.0370307   -6.2777805     4180.318            2 
  654000    1.0134012   -6.2345818    4174.2363            8 
  655000    1.0049494   -6.2403803    4188.0769            4 
  656000   0.99839934   -6.2342064     4167.884            7 
  657000    1.0029762   -6.2652537     4146.487            5 
  658000    1.0272685   -6.2490769    4156.8117            7 
  659000    1.0025127   -6.2541463    4166.6883            6 
  660000    1.0084576   -6.2866836    4159.0303            7 
  661000    1.0015195   -6.2447812    4165.3856            6 
  662000    1.0010305   -6.2742182    4151.3202            6 
  663000    1.0260352   -6.2502097    4153.2742            8 
  664000    1.0111048   -6.2689683    4152.3229            8 
  665000    1.0207132   -6.2649821    4157.4402            5 
  666000    1.0040283   -6.2208786    4175.4566            5 
  667000   0.99619873   -6.2556962    4178.7092            5 
  668000     1.006624   -6.2444651    4169.4807            6 
  669000    1.0272713   -6.2304618    4164.9657           13 
  670000    1.0080848   -6.2302024    4153.1015           10 
  671000    1.0182078   -6.2485169    4157.2129            4 
  672000    1.0197667   -6.2348859    4180.4186            9 
  673000   0.98835774   -6.2544913    4162.6058            5 
  674000    1.0200681   -6.2798632    4153.6581           14 
  675000    1.0093374   -6.2741281    4152.0251            6 
  676000    1.0403074   -6.2510247    4164.3586           10 
  677000   0.99042589    -6.250574    4150.0327            7 
  678000   0.99919653   -6.2697261    4158.5515            6 
  679000   0.97911277   -6.2539126    4150.8194            6 
  680000    1.0056151   -6.2593656    4151.6403           10 
  681000   0.98766325   -6.2801352    4155.3564            5 
  682000    1.0262975   -6.2742715    4169.8947            5 
  683000    1.0394771   -6.2593285    4161.6528            5 
  684000    1.0230702   -6.2588521    4153.3049            7 
  685000    1.0018544   -6.2461491    4168.8571            7 
  686000    1.0184414   -6.2473841    4146.9603            4 
  687000    1.0396436   -6.2672406    4154.1043            9 
  688000     1.012856   -6.2532676     4158.362            6 
  689000   0.98957889   -6.2476398    4160.5279            8 
  690000    1.0183143   -6.2741157    4147.3683            6 
  691000    1.0138369   -6.2419908     4174.333            6 
  692000    1.0287443   -6.2523785    4155.7726            4 
  693000   0.99411366   -6.2570646     4159.916            8 
  694000    1.0238832   -6.2353267    4181.7713            4 
  695000    1.0090394   -6.2650704    4151.6601            4 
  696000    1.0219082   -6.2668803    4140.2773            9 
  697000    1.0048582   -6.2457001    4159.9251            6 
  698000    1.0051375   -6.2397846    4172.5285            5 
  699000   0.97874211   -6.2375962    4166.9554            7 
  700000    1.0061922    -6.256491    4170.8446            9 
  701000    1.0296734   -6.2568939    4156.9464            4 
  702000    1.0106975    -6.257167    4152.4605            6 
  703000    1.0100965   -6.2990397    4155.6748           12 
  704000    1.0235905   -6.2355151    4158.7269            7 
  705000   0.99267318   -6.2834952    4166.3909           11 
  706000    1.0082761   -6.2439638    4170.1102           12 
  707000    1.0214098   -6.2416541    4173.1575            8 
  708000    1.0145954   -6.2664724    4164.8238            4 
  709000    1.0131735   -6.2905995    4162.8721            9 
  710000    0.9976321   -6.2658777    4166.3921           13 
  711000   0.99541528    -6.234032    4164.4591            3 
  712000     1.003806   -6.2724773    4154.2416            7 
  713000    1.0179346    -6.245724    4146.6173            5 
  714000   0.99837238   -6.2539221    4184.3734            2 
  715000    1.0047696   -6.2531164    4155.5169            4 
  716000    1.0172974    -6.242328    4159.9612            3 
  717000     1.011303   -6.2464626     4166.383            5 
  718000   0.99669294    -6.266545    4169.0645            6 
  719000    1.0217399    -6.257175    4152.7331            6 
  720000   0.99848037    -6.271519    4182.1929           14 
  721000    1.0119847   -6.2478257    4160.3959           13 
  722000    1.0249646   -6.2554232    4161.1843            8 
  723000   0.99769428   -6.2495756     4153.209            6 
  724000    1.0011405   -6.2790377    4156.5737            4 
  725000    1.0161814   -6.2559631    4170.4684            4 
  726000    1.0080029   -6.2704348    4152.9725            4 
  727000    1.0306919   -6.2454194    4158.4139            8 
  728000    1.0019302   -6.2642932    4163.6781            8 
  729000    1.0200459   -6.2434289     4177.703            4 
  730000    1.0218214   -6.2330427    4150.7996            4 
  731000    1.0200967   -6.2421442      4177.42            8 
  732000    1.0004373   -6.2415747    4164.9533            7 
  733000    1.0257962   -6.2381324    4182.3836            9 
  734000    1.0106189   -6.2413791    4175.0627            8 
  735000    1.0366246   -6.2512506    4174.2272            5 
  736000    1.0258188   -6.2547247    4167.8918            6 
  737000   0.99368257   -6.2369545      4170.59            6 
  738000    1.0053228    -6.265836    4165.0593           10 
  739000    1.0098005   -6.2339424    4159.7522            6 
  740000    1.0038833   -6.2302445    4169.0414            7 
  741000   0.97942195   -6.2589307    4161.9313            6 
  742000   0.99820057   -6.2554755    4158.5286            4 
  743000   0.99850877   -6.2034374    4173.4674            7 
  744000   0.98731968   -6.2652652    4153.9632            5 
  745000   0.99680919   -6.2534908    4160.0789            8 
  746000    1.0126715   -6.2353102    4161.4395            7 
  747000    1.0055115   -6.2402756    4146.7052           14 
  748000    1.0060369   -6.2634937    4148.4616           12 
  749000    1.0233222   -6.2467678    4169.2675           11 
  750000   0.99464469   -6.2510299     4149.539            6 
  751000    1.0200724    -6.262967    4148.8895            6 
  752000    1.0010229    -6.271399    4146.2773           11 
  753000   0.99853606   -6.2431452     4167.634           11 
  754000      1.02371   -6.3287433    4147.1492           11 
  755000    1.0222912   -6.2424097    4173.5559            4 
  756000    1.0260445   -6.2515533    4162.3159            7 
  757000    1.0295383   -6.2642221    4180.4854            6 
  758000     1.011056   -6.2666694    4159.8921            5 
  759000   0.99566602   -6.2926236    4141.1592           11 
  760000    1.0197713   -6.2444387     4155.851            3 
  761000    1.0388382   -6.2322119    4163.7416           11 
  762000    1.0025073   -6.2752981      4149.26            6 
  763000   0.99484338   -6.2656888    4175.1334           12 
  764000     1.025106   -6.2542152    4154.7819            2 
  765000   0.99862117   -6.2177813    4162.6035            6 
  766000    1.0046791   -6.2424905    4172.8915           10 
  767000    1.0040757   -6.2743261    4153.4768            5 
  768000    1.0090795   -6.2347093    4159.6934           10 
  769000    1.0156692   -6.2109108    4172.2902            5 
  770000    1.0303085   -6.2523289    4156.8645           13 
  771000    1.0143528   -6.2628649    4159.0647            7 
  772000    1.0143953   -6.2518602    4165.8963            9 
  773000     1.014701   -6.2253089    4157.1747            5 
  774000    1.0264595   -6.2805199    4174.7349            7 
  775000    1.0010991   -6.2496069    4158.0641            3 
  776000    1.0057129   -6.2550788    4143.9145            5 
  777000    1.0324984    -6.252891    4143.2113            7 
  778000    1.0078823   -6.2413057     4156.501            3 
  779000    1.0228891   -6.2532696    4147.2917            4 
  780000    1.0037763   -6.2498375    4145.3673            7 
  781000    1.0313829   -6.2399542    4158.6268            5 
  782000   0.99928451   -6.2047563     4163.305            4 
  783000    1.0283095   -6.2778888    4146.7593            8 
  784000    1.0022201   -6.2486572    4153.4828            3 
  785000    1.0225342   -6.2170363    4173.6944           12 
  786000   0.99746511   -6.3015563    4150.3319            8 
  787000   0.99608319   -6.2681576    4153.0903            4 
  788000   0.99749981    -6.294788    4164.4917            8 
  789000    1.0324388   -6.2799131    4155.4974            4 
  790000    1.0073637   -6.2448063    4172.5955            8 
  791000    1.0036152   -6.2433508    4177.5777            5 
  792000    0.9988774   -6.2271531    4144.6109            4 
  793000    1.0044521   -6.2640745    4144.2427            6 
  794000    1.0454053   -6.2537886    4139.4494            7 
  795000    1.0034123   -6.2305141    4167.6813            9 
  796000    1.0054068   -6.2668597    4154.9664            5 
  797000   0.98469793   -6.2575168    4161.8094            7 
  798000    1.0044538    -6.232054    4165.0515            8 
  799000    1.0276351   -6.2510809    4163.1345            5 
  800000    1.0212271   -6.2692891    4152.3214            8 
  801000   0.99744236   -6.2556596    4146.7768            3 
  802000    1.0113244   -6.2566521    4174.9016            4 
  803000    1.0031647    -6.250838    4165.5676            8 
  804000    1.0184353   -6.2653968    4140.7518            8 
  805000   0.99368592   -6.2827478    4149.3625            5 
  806000   0.99211221   -6.2606256     4164.606            8 
  807000    0.9833392   -6.2761445    4150.2052           10 
  808000   0.99183405   -6.2109728    4180.2237            7 
  809000    1.0124446   -6.2787652    4147.6835            4 
  810000    1.0136919   -6.2631375     4155.405            6 
  811000    1.0263635   -6.2298573    4167.3857            5 
  812000    1.0276611   -6.2241305    4166.6606            9 
  813000   0.99887722   -6.2342395    4167.1535            4 
  814000    1.0126752   -6.2706355    4144.4435           16 
  815000    1.0191077   -6.2785584    4155.8797            7 
  816000    1.0183453   -6.2590837    4164.6247            7 
  817000    1.0326736   -6.2229025    4163.8307            7 
  818000    1.0131177   -6.2796026    4141.8221            9 
  819000    1.0144868   -6.2625146    4158.1066            3 
  820000    1.0194027     -6.27857    4158.8145            6 
  821000     1.007729   -6.2590738    4138.3087           10 
  822000    1.0131395   -6.2572196    4154.7605           13 
  823000    1.0019674   -6.2223004    4171.5303            7 
  824000   0.99089583   -6.2479618    4165.9861            6 
  825000    1.0477469   -6.2691929     4157.065            5 
  826000    1.0008736   -6.2843893    4140.0974            7 
  827000    1.0240651   -6.2476589    4166.0011            8 
  828000    1.0273354   -6.2498388    4156.1277            3 
  829000    1.0116827   -6.2315031    4155.5993            6 
  830000    1.0067141   -6.2730235    4159.0337            9 
  831000    1.0032317   -6.2443362    4178.2269            6 
  832000    1.0236001   -6.2150294     4185.717            6 
  833000    1.0210401   -6.2136658    4174.5122            3 
  834000    1.0067197   -6.2361316    4176.0415           11 
  835000    1.0242528   -6.2289984    4170.3485            4 
  836000   0.99410242   -6.2313332    4166.4581           10 
  837000     1.009127   -6.2140681     4169.574            9 
  838000    1.0141588   -6.2272568    4161.3867            7 
  839000   0.99398236   -6.2566495    4159.1219            3 
  840000    0.9965558   -6.2405105    4163.5299            3 
  841000    1.0192052   -6.2238968    4165.8967            3 
  842000    1.0037934   -6.2536209    4163.2876            6 
  843000   0.97711488   -6.2618281    4149.4202            5 
  844000    1.0133825   -6.2513967    4174.6679            9 
  845000    1.0259137   -6.2617432    4162.1687            9 
  846000    1.0145774   -6.2626745    4164.1593            6 
  847000    1.0163465   -6.2305676    4152.5484            5 
  848000    1.0235624   -6.2435992    4170.0352            5 
  849000     1.024533   -6.2257491    4159.8935            4 
  850000     1.015269   -6.2624143    4145.4427            5 
  851000    1.0043505   -6.2518001     4167.273            3 
  852000     1.019554   -6.2670349    4165.4468            4 
  853000    1.0291699   -6.2592306    4153.3304            9 
  854000   0.99050032   -6.2667121    4155.4428            5 
  855000     1.014091   -6.2372346      4167.07            6 
  856000    1.0123227   -6.2552166    4181.0606           10 
  857000   0.99901635   -6.2624024    4158.0394            9 
  858000    1.0211398   -6.2558433    4158.7216           10 
  859000     1.008921   -6.2325007     4175.689           11 
  860000    1.0132019   -6.2222721    4163.1018            5 
  861000   0.98377492   -6.2763019    4144.9759            8 
  862000    1.0039564   -6.2639198    4153.1715            3 
  863000    1.0151231   -6.2589843    4160.0748            9 
  864000    1.0184248   -6.2174817    4163.3311            5 
  865000    1.0031474   -6.2504316     4159.187            7 
  866000    1.0094625   -6.2731978    4164.9894            7 
  867000    1.0354462   -6.2538128     4149.727            7 
  868000    1.0106518   -6.2694699    4144.5022            8 
  869000    1.0306932   -6.2355834    4183.5982            3 
  870000   0.98626244   -6.3092894     4170.243            8 
  871000     1.028859   -6.2420021    4152.5778            9 
  872000    1.0023045   -6.2512515    4161.6419            8 
  873000   0.99453073    -6.255022    4163.8061           11 
  874000   0.99971116   -6.2595084    4163.0284            9 
  875000    1.0203473   -6.2778788    4182.8602           14 
  876000    1.0069412   -6.2355997    4164.4065           11 
  877000    1.0286117   -6.2439707    4154.1129            5 
  878000    1.0127196   -6.2533183    4160.4961            8 
  879000   0.99559502   -6.2678712    4160.5593            3 
  880000     1.015142   -6.2420357     4160.627            6 
  881000     1.024659    -6.207662    4185.3888            8 
  882000    1.0117222   -6.2520031     4138.985            4 
  883000    1.0363772   -6.2317192    4147.0677            8 
  884000   0.99904942   -6.2386963    4164.8196           11 
  885000    1.0174839   -6.2910872    4160.8139            3 
  886000    1.0203787   -6.2474799    4163.2321           10 
  887000    1.0153895    -6.273844    4158.5277           10 
  888000   0.98489881   -6.2620845    4157.6898            8 
  889000    1.0191533   -6.2461179    4148.7658           10 
  890000   0.99308368     -6.26187     4145.868            9 
  891000    1.0016933   -6.2883063    4159.7271            9 
  892000     1.035809   -6.2729561    4169.3206            9 
  893000    1.0100118   -6.2681646     4162.023            9 
  894000    1.0119105   -6.2368283    4164.8186           15 
  895000    1.0358306   -6.2366198    4169.4457            7 
  896000    1.0196866   -6.2464847    4170.0808            5 
  897000    1.0164153   -6.2513466    4138.8282           15 
  898000    1.0038637   -6.2820167    4148.1127            5 
  899000    1.0177091   -6.2556449    4156.3023            6 
  900000    1.0266559   -6.2599349    4163.9245           10 
  901000    1.0189991   -6.2519818    4158.3609            8 
  902000    1.0135039   -6.2723065    4156.0601            2 
  903000    1.0010544   -6.2390182    4172.3217            6 
  904000    1.0041188   -6.2748874    4155.8394            6 
  905000    1.0082223   -6.2303932    4162.2692            6 
  906000   0.99409798    -6.203226    4170.1945            7 
  907000   0.99850612   -6.2615377     4166.056            6 
  908000   0.99515992   -6.2403347    4188.3041            5 
  909000    1.0207164   -6.2534504    4177.3254            9 
  910000    1.0137336   -6.2546773    4162.6018            5 
  911000    1.0114948   -6.2296163     4161.025            6 
  912000   0.98265544    -6.269593    4165.0353            5 
  913000    1.0132123   -6.2342672    4172.3225            4 
  914000   0.99342433   -6.2717265    4159.8023            7 
  915000   0.99730534    -6.265433    4156.3845            4 
  916000   0.98138521    -6.220033    4164.1201            4 
  917000   0.99450009    -6.246067      4160.97            7 
  918000    1.0051541   -6.2921993    4155.8323            8 
  919000    1.0284455   -6.2448791    4154.6928            4 
  920000    1.0296648   -6.2682309    4159.1419            6 
  921000    1.0312551   -6.2315485    4164.5452            5 
  922000    1.0109826   -6.2183921    4172.8169           10 
  923000    0.9989098   -6.2643237    4160.3777            7 
  924000     1.005523    -6.238889      4147.78            2 
  925000   0.99936195   -6.2285733    4158.5905            5 
  926000    1.0237149   -6.2471672    4159.2996            6 
  927000     1.027273   -6.2300219    4150.9435           11 
  928000    1.0025124   -6.2621796    4147.4537            7 
  929000    1.0137602    -6.261206    4145.2108            3 
  930000    1.0269371   -6.2404615    4170.0903            9 
  931000    1.0204604   -6.2647926     4164.568            6 
  932000    1.0197976   -6.2724921    4159.9101            7 
  933000    1.0072401   -6.2536265    4166.9405           10 
  934000    1.0163973   -6.2588437    4158.1919            5 
  935000     1.008376   -6.2342885     4143.186            7 
  936000   0.98364673   -6.2810818    4158.6728           10 
  937000   0.99693611   -6.2275381    4158.5279           12 
  938000    1.0242817   -6.2718364    4176.7427            7 
  939000    1.0035457   -6.2533991    4162.0556           13 
  940000    1.0068781   -6.2890842    4163.0673            9 
  941000    1.0121005   -6.2491785    4144.1886            7 
  942000    1.0087227   -6.2905039     4151.189            6 
  943000   0.99369396   -6.2518431    4141.4656            5 
  944000   0.98463973   -6.2610905    4178.7873            9 
  945000    1.0076648   -6.2478373     4169.728            5 
  946000     1.005367   -6.2750839    4161.9448            8 
  947000    1.0013991   -6.2660064    4168.7091            5 
  948000    1.0055771   -6.2383819    4167.9747            3 
  949000    1.0063987   -6.2401422    4157.3002            7 
  950000    1.0290794   -6.2582205    4156.1421            8 
  951000    1.0290573   -6.2515282    4152.9328            5 
  952000   0.99937196   -6.2203103    4153.6793            3 
  953000   0.99154126   -6.2501646    4155.7529            5 
  954000    1.0030275   -6.1975388     4178.242            5 
  955000    1.0462168   -6.2427782    4168.4249           14 
  956000   0.99867382   -6.2698836    4155.2185            6 
  957000    1.0020827   -6.2850987    4148.7362            5 
  958000    1.0234336   -6.2514016    4159.7904           10 
  959000    1.0002857   -6.2450587    4164.3403            9 
  960000   0.99709162   -6.2087001     4172.619            8 
  961000    1.0402165   -6.2223367    4151.7543            6 
  962000   0.99893929   -6.2454445    4159.8673            5 
  963000    1.0330689   -6.2890705    4163.8798            6 
  964000    1.0129882   -6.2673614    4167.1114            5 
  965000   0.98348937   -6.2528077    4161.8495            6 
  966000   0.99130179   -6.3151839    4144.1326           16 
  967000    1.0020132   -6.2825162    4160.8395            4 
  968000    1.0043514     -6.22077    4162.4091            7 
  969000     1.013677   -6.2564777    4160.0121            6 
  970000    1.0092675   -6.2385677    4145.9488            6 
  971000    1.0049551   -6.2502649    4163.3019            2 
  972000   0.98559566   -6.2487624    4157.9852            7 
  973000    1.0017837   -6.2668844    4150.5925            3 
  974000    1.0242639   -6.2780131    4153.6418            4 
  975000    1.0025987   -6.2265624    4175.6875            5 
  976000    1.0012408   -6.2171083     4168.199            7 
  977000    1.0073608   -6.2308193    4158.4593            5 
  978000    1.0062585   -6.2472692      4158.71            5 
  979000    1.0236274    -6.231211    4175.8353            5 
  980000   0.97702062   -6.2353028    4135.3212            4 
  981000    1.0207026   -6.2585981    4164.4291            6 
  982000    1.0234776   -6.2207446    4156.1578            7 
  983000    1.0108976   -6.2698848    4156.4483           11 
  984000    1.0018796    -6.236198    4172.6295            9 
  985000   0.99521043   -6.2794665    4143.6188            8 
  986000   0.98672092   -6.2811871    4149.9151            9 
  987000    1.0040649   -6.2425008    4163.1279            7 
  988000   0.99232878   -6.2237791    4174.3211            3 
  989000    1.0198493   -6.2800261    4164.4803           16 
  990000    1.0048748   -6.2507766    4133.1891            6 
  991000    1.0108657   -6.2201417    4171.8045            4 
  992000    1.0155039   -6.2446115     4141.687            7 
  993000     1.001452   -6.2606551     4161.766            3 
  994000    1.0201922   -6.2552596    4177.6774            4 
  995000    1.0117537   -6.2628186    4174.0504            4 
  996000   0.98930388   -6.2516106    4183.3564            6 
  997000    1.0132244   -6.2454593     4174.491            7 
  998000    1.0066115   -6.2417991    4164.8974            5 
  999000     1.024763   -6.2965732    4155.0943            4 
 1000000    1.0136662    -6.235769    4158.3562            3 
 1001000     1.016346   -6.2785902    4151.1901            7 
 1002000     1.005065   -6.2328487    4161.3158           10 
 1003000    0.9946711   -6.2553869    4150.5097            3 
 1004000    1.0453113   -6.2141593    4163.4544            8 
Loop time of 2074.13 on 48 procs for 1000000 steps with 4000 atoms

Performance: 83311.928 tau/day, 482.129 timesteps/s
99.4% CPU use with 48 MPI tasks x no OpenMP threads

MPI task timing breakdown:
Section |  min time  |  avg time  |  max time  |%varavg| %total
---------------------------------------------------------------
Pair    | 122.11     | 128.62     | 134.71     |  28.1 |  6.20
Neigh   | 14.753     | 15.001     | 15.576     |   4.4 |  0.72
Comm    | 112.58     | 121.15     | 132.42     |  38.4 |  5.84
Output  | 1.1948     | 1.196      | 1.2132     |   0.2 |  0.06
Modify  | 1776.3     | 1788.2     | 1795.4     |  11.3 | 86.22
Other   |            | 19.94      |            |       |  0.96

Nlocal:        83.3333 ave          89 max          74 min
Histogram: 1 0 2 4 8 1 14 5 9 4
Nghost:        1593.40 ave        1607 max        1580 min
Histogram: 3 3 6 2 10 10 4 4 5 1
Neighs:        9154.02 ave        9868 max        8358 min
Histogram: 3 4 5 4 6 6 6 5 5 4
FullNghs:      18308.4 ave       19635 max       16302 min
Histogram: 1 2 2 6 5 5 11 5 8 3

Total # of neighbors = 878801
Ave neighs/atom = 219.70025
Neighbor list builds = 60044
Dangerous builds = 0

#clear
#
#next RN
#
#jump SELF
Total wall time: 0:34:35
