
units lj                  # Use reduced LJ style units
atom_style atomic         # Uncharged point particles
atom_modify map hash      # Needed for indexing of clusters etc
                          # Used to be able to find where atoms are in relation to each other.

lattice fcc 1.0 spacing 1 1 1
Lattice spacing in x,y,z = 1.5874011 1.5874011 1.5874011
region box block 0 10 0 10 0 10 units lattice
create_box 2 box
Created orthogonal box = (0.0000000 0.0000000 0.0000000) to (15.874011 15.874011 15.874011)
  3 by 4 by 4 MPI processor grid
create_atoms 1 box
Created 4000 atoms
  using lattice units in orthogonal box = (0.0000000 0.0000000 0.0000000) to (15.874011 15.874011 15.874011)
  create_atoms CPU = 0.003 seconds
set type 1 type/fraction 2 0.9 78393
Setting atom values ...
  3586 settings made for type/fraction
mass 1 1.0
mass 2 1.0
pair_style lj/cut  3.5
pair_modify tail  yes
pair_coeff 1  1  1.0  1.0   # Intearaction between 1 and 1 set with epsilon = 1 and sigma = 1
pair_coeff 1  2  1.5  0.8
pair_coeff 2  2  0.5  0.88

write_data data.0
System init for write_data ...
Neighbor list info ...
  update every 1 steps, delay 10 steps, check yes
  max neighbors/atom: 2000, page size: 100000
  master list distance cutoff = 3.8
  ghost atom cutoff = 3.8
  binsize = 1.9, bins = 9 9 9
  1 neighbor lists, perpetual/occasional/extra = 1 0 0
  (1) pair lj/cut, perpetual
      attributes: half, newton on
      pair build: half/bin/atomonly/newton
      stencil: half/bin/3d
      bin: standard
WARNING: Not all mixed pair coeffs generated from mixing. Use write_data with 'pair ij' option to store all pair coeffs. (../write_data.cpp:312)


#############################
#   M E L T   S Y S T E M   #
#############################

velocity all create 2.4 5833274 mom yes dist gaussian # Assign velocities
                                                    # Temperature 2.4, random number seed, zero linear momentum
                                                                                # Gaussian distribution

timestep 0.002   # simulation timestep
thermo 1000       # output thermodynamic data every 1000 steps bf 100

# Define a fix  in this case with index 1 applied to all
# particles in the simulation. This fix is for simulations
# in the anisotropic NPT ensemble. Note that we use the MTK
# correction.
fix 1 all npt temp 2.4 2.4 0.1 iso 5.68 5.68 0.5 mtk yes tchain 5 pchain 5 # Use NPT ensemble
                                                                         # Set temperature and pressure and damping
                                                                         # Numbers of thermostats in chain and in barostat
run 10000          # run for 10000 steps
Per MPI rank memory allocation (min/avg/max) = 3.642 | 3.644 | 3.648 Mbytes
Step Temp E_pair E_mol TotEng Press Volume 
       0          2.4   -3.1995671            0   0.39953293    -2.596694         4000 
    1000    2.4445508   -2.2273772            0    1.4385323    5.9955712    3970.1771 
    2000    2.3656772   -2.2591063            0    1.2885223    5.8515105    3964.6866 
    3000    2.4417425   -2.2539937            0    1.4077045    5.8013331    3985.7711 
    4000     2.401315    -2.225629            0     1.375443      5.82248    4003.1587 
    5000    2.3696166    -2.217502            0    1.3360343    5.6763741     4023.592 
    6000    2.3890697   -2.2293004            0    1.3534083    5.6775607    4010.3369 
    7000    2.3972792   -2.2856148            0     1.309405    5.4628037     4003.047 
    8000    2.4033065   -2.2351705            0     1.368888    5.9079232    3963.3295 
    9000    2.4201601   -2.2620678            0    1.3672648    5.7319875    3988.2383 
   10000    2.4275704   -2.2624585            0    1.3779867    5.7663213     3969.548 
Loop time of 2.46455 on 48 procs for 10000 steps with 4000 atoms

Performance: 701142.084 tau/day, 4057.535 timesteps/s
99.6% CPU use with 48 MPI tasks x no OpenMP threads

MPI task timing breakdown:
Section |  min time  |  avg time  |  max time  |%varavg| %total
---------------------------------------------------------------
Pair    | 1.084      | 1.1542     | 1.2479     |   3.1 | 46.83
Neigh   | 0.20446    | 0.21288    | 0.23286    |   1.0 |  8.64
Comm    | 0.73797    | 0.84285    | 0.90637    |   3.8 | 34.20
Output  | 0.00024176 | 0.00024668 | 0.00031357 |   0.0 |  0.01
Modify  | 0.20052    | 0.23901    | 0.26634    |   3.8 |  9.70
Other   |            | 0.01534    |            |       |  0.62

Nlocal:        83.3333 ave          93 max          74 min
Histogram: 3 4 2 4 10 9 9 3 3 1
Nghost:        1649.02 ave        1676 max        1620 min
Histogram: 2 4 0 9 6 6 13 3 4 1
Neighs:        9629.27 ave       11009 max        8241 min
Histogram: 3 2 4 6 8 8 9 4 1 3

Total # of neighbors = 462205
Ave neighs/atom = 115.55125
Neighbor list builds = 898
Dangerous builds = 185

# Equilibrate just above the melting temperature to avoid step fn in T

fix 1 all npt temp 1.25 1.25 0.1 iso 5.68 5.68 0.5 mtk yes tchain 5 pchain 5
run 2000
Per MPI rank memory allocation (min/avg/max) = 3.643 | 3.645 | 3.649 Mbytes
Step Temp E_pair E_mol TotEng Press Volume 
   10000    2.4275704   -2.2624585            0    1.3779867    5.7663213     3969.548 
   11000    1.2603707   -3.3421434            0     -1.45206    5.6871084    3111.9308 
   12000    1.2465216   -3.3721635            0   -1.5028486    5.3353035    3113.4694 
Loop time of 0.603798 on 48 procs for 2000 steps with 4000 atoms

Performance: 572376.741 tau/day, 3312.365 timesteps/s
99.6% CPU use with 48 MPI tasks x no OpenMP threads

MPI task timing breakdown:
Section |  min time  |  avg time  |  max time  |%varavg| %total
---------------------------------------------------------------
Pair    | 0.26672    | 0.29233    | 0.32396    |   2.0 | 48.42
Neigh   | 0.038927   | 0.041337   | 0.044022   |   0.5 |  6.85
Comm    | 0.18813    | 0.22131    | 0.24584    |   2.5 | 36.65
Output  | 5.2009e-05 | 5.3314e-05 | 7.0345e-05 |   0.0 |  0.01
Modify  | 0.039731   | 0.04399    | 0.047764   |   0.9 |  7.29
Other   |            | 0.004773   |            |       |  0.79

Nlocal:        83.3333 ave          93 max          76 min
Histogram: 1 6 8 6 8 9 6 3 0 1
Nghost:        1942.19 ave        1964 max        1921 min
Histogram: 5 2 2 5 12 4 9 3 5 1
Neighs:        12281.0 ave       14289 max       11015 min
Histogram: 2 8 8 9 8 6 4 0 1 2

Total # of neighbors = 589486
Ave neighs/atom = 147.37150
Neighbor list builds = 143
Dangerous builds = 9

#############################
# L I N E A R  Q U E N C H  #
#############################

# Define solid atoms. This closely follows ten Wolde  Ruiz-Montero and Frenkel  Faraday Discuss  1996  104  93-110
# Compute components of the per-atom q6 vector
compute q6 all orientorder/atom degrees 1 6 components 6 nnn NULL cutoff 1.3 # compute the Q6 parameter.
                                                                             # Use all neighbours within 1.3 unit cell.

# get number of connections
compute coord_number all coord/atom orientorder q6 0.5

# An atom is solid if it has 8 or more connections (of a possible 14)
variable is_solid atom c_coord_number>=8
group solid dynamic all var is_solid    # Must be dynamic to update
dynamic group solid defined

# do clustering
compute cluster solid cluster/atom 1.3 # Create a cluster where all atoms within are solid and max 1.3 units from another member

# define chunks one chunk per cluster
compute clus_chunks solid chunk/atom c_cluster nchunk every compress yes  # Says which atoms are in which chunk

# count the size of each chunk
compute size_chunks solid property/chunk clus_chunks count


# Find the maximum entry in the vector of chunk sizes
variable max_n equal max(c_size_chunks)


# Thermo style which includes this variable
# thermo_style custom step temp pe vol v_max_n

thermo ${N}  # Print the thermo information every 100 steps
thermo 1000  

# Reset the npt fix at a lower temperature (below freezing)
fix 1  all npt temp  ${temp} ${temp}  0.1  iso  5.68  5.68  0.5  mtk yes tchain  5  pchain  5
fix 1  all npt temp  0.45 ${temp}  0.1  iso  5.68  5.68  0.5  mtk yes tchain  5  pchain  5
fix 1  all npt temp  0.45 0.45  0.1  iso  5.68  5.68  0.5  mtk yes tchain  5  pchain  5

dump dmp2 all dcd ${N} traj.dcd
dump dmp2 all dcd 1000 traj.dcd


compute msd all msd com yes
variable twopoint equal c_msd[4]/6/(step*dt+1.0e-6)
fix 9 all vector 10 c_msd[4]
variable fit equal slope(f_9)/6/(10*dt)
thermo_style custom step temp pe c_msd[4] v_twopoint v_fit v_max_n

fix 1 all npt temp 1.25 ${temp} 0.1 iso 5.68 5.68 0.5 mtk yes tchain 5 pchain 5
fix 1 all npt temp 1.25 0.45 0.1 iso 5.68 5.68 0.5 mtk yes tchain 5 pchain 5
run 5000000 # 5000000  # Run for this many steps
Neighbor list info ...
  update every 1 steps, delay 10 steps, check yes
  max neighbors/atom: 2000, page size: 100000
  master list distance cutoff = 3.8
  ghost atom cutoff = 3.8
  binsize = 1.9, bins = 8 8 8
  4 neighbor lists, perpetual/occasional/extra = 1 3 0
  (1) pair lj/cut, perpetual
      attributes: half, newton on
      pair build: half/bin/atomonly/newton
      stencil: half/bin/3d
      bin: standard
  (2) compute orientorder/atom, occasional
      attributes: full, newton on
      pair build: full/bin/atomonly
      stencil: full/bin/3d
      bin: standard
  (3) compute coord/atom, occasional
      attributes: full, newton on
      pair build: full/bin/atomonly
      stencil: full/bin/3d
      bin: standard
  (4) compute cluster/atom, occasional
      attributes: full, newton on
      pair build: full/bin/atomonly
      stencil: full/bin/3d
      bin: standard
Per MPI rank memory allocation (min/avg/max) = 9.822 | 9.828 | 9.832 Mbytes
Step Temp PotEng c_msd[4] v_twopoint v_fit v_max_n 
   12000    1.2465216   -3.3721635 2.7976952e-30 1.9428438e-32 8.3333333e+20            1 
   13000    1.2147992   -3.3302695   0.99748211 0.0063941158  0.084133715            2 
   14000    1.2433085   -3.3418047    1.9978011  0.011891673  0.084389215            3 
   15000    1.2565068   -3.3465566    3.0505441  0.016947467  0.085529098            2 
   16000    1.2733981   -3.3443959    4.2206596  0.021982601   0.08753321            3 
   17000    1.2409632   -3.3462488     5.279492  0.025879862  0.088771756            3 
   18000    1.2979164   -3.3660375    6.3348776  0.029328136  0.089211208            1 
   19000    1.2105857   -3.3493091    7.4724805  0.032774037  0.089772889            4 
   20000    1.2294869   -3.3577068    8.6055867   0.03585661  0.090282132            1 
   21000     1.254387   -3.3641403    9.7805207  0.038811589  0.090690397            1 
   22000    1.2441468   -3.3588835    10.890731  0.041252769  0.091304638            1 
   23000     1.221549   -3.3921037    12.045595   0.04364346  0.091968165            2 
   24000    1.2465886   -3.3675178    13.107812  0.045513236  0.092276758            1 
   25000    1.2602377   -3.3563735    14.225277  0.047417589  0.092469322            1 
   26000    1.2377829   -3.3820495    15.322523   0.04911065  0.092528839            2 
   27000     1.252156   -3.3371265    16.597698  0.051227461  0.092649125            1 
   28000    1.2304009    -3.355944    17.668969  0.052586215  0.092859965            2 
   29000    1.2422154   -3.3612983    18.823238  0.054089764  0.093039211            4 
   30000    1.2194695   -3.3874328    19.725363  0.054792675  0.093019997            1 
   31000    1.2490875   -3.3839495    20.823958   0.05597838  0.092889193            4 
   32000    1.2324151   -3.3647611    22.073537   0.05748317   0.09286131            1 
   33000      1.24745   -3.3648691    22.929889  0.057903758  0.092746491            2 
   34000    1.2411628   -3.3668642     23.98269  0.058781103  0.092507746            1 
   35000    1.2426225   -3.3184057    25.093552  0.059746552  0.092247892       -1e+20 
   36000    1.2443965   -3.3816464    26.160297  0.060556241  0.092120876            2 
   37000    1.2859296   -3.3690625    27.313014  0.061515797  0.092037616            2 
   38000     1.264311   -3.3633752    28.393799  0.062267102  0.091887327            3 
   39000    1.2308983   -3.3948639    29.466417  0.062962429  0.091821086            2 
   40000    1.2800167   -3.3693848    30.810085  0.064187676  0.091873823            1 
   41000    1.2616775   -3.3674937    31.957564  0.064954398  0.091957379            1 
   42000    1.2325497   -3.3341676    32.985151  0.065446727  0.091962975            1 
   43000     1.259459   -3.3698344    33.945962  0.065786747   0.09195029            3 
   44000    1.2428174   -3.3734312    35.051109  0.066384675  0.091938143            2 
   45000    1.2589476   -3.3714511    36.208124   0.06705208  0.091880403            2 
   46000    1.2537985   -3.3894787    37.265223  0.067509461  0.091843356            2 
   47000    1.2418462   -3.3332549    38.361756  0.068017297  0.091786104            1 
   48000    1.2631171   -3.3600097    39.457197  0.068502077  0.091770948            2 
   49000    1.2514811   -3.3746001    40.177857  0.068329688  0.091692133            2 
   50000    1.2537216   -3.3481546    40.909983  0.068183304  0.091513902            2 
   51000    1.2229485   -3.3872166    41.818251  0.068330475  0.091256216            3 
   52000    1.2426487   -3.3370243    42.944954  0.068822041  0.091012533            1 
   53000    1.2578668   -3.3778277    44.305576  0.069662855  0.090818313            2 
   54000    1.2413342   -3.3468325    45.320831  0.069939553  0.090699005            1 
   55000    1.2378082   -3.3656466    46.232382  0.070049063   0.09055262            2 
   56000    1.2512623   -3.3536249    47.205702  0.070246579  0.090395348            2 
   57000    1.2612197   -3.3713919    47.982249  0.070149487  0.090211072            2 
   58000    1.2431534   -3.3682029    49.502313  0.071124012  0.090054966            2 
   59000    1.2481216   -3.3332162    50.790348   0.07173778  0.089968691            2 
   60000    1.2184611   -3.3693709    51.599533  0.071666017   0.08990402            1 
   61000    1.2360717   -3.3584497     52.58297  0.071834657  0.089846476            3 
   62000    1.2603019   -3.3545588    53.859559  0.072391879  0.089806964            2 
   63000    1.2339632   -3.3279936    55.097948  0.072880882  0.089747057            1 
   64000    1.2335836   -3.3488624    56.029977  0.072955699  0.089697477            2 
   65000    1.2082104   -3.3487052     57.21383  0.073351064  0.089658332            2 
   66000    1.2297578   -3.3695585    57.822083  0.073007681  0.089607185       -1e+20 
   67000    1.2203782   -3.3746494    59.238171  0.073679316  0.089554132            2 
   68000    1.2387907   -3.3758346    60.423768  0.074048734  0.089535699            3 
   69000     1.256346   -3.3611937    61.869568    0.0747217  0.089565071            1 
   70000    1.2090151   -3.3895046    62.907999  0.074890474  0.089632243            2 
   71000    1.2297625   -3.3756053     63.64712  0.074703193  0.089663162            1 
   72000    1.2321943   -3.3805647    64.680881   0.07486213  0.089673316            1 
   73000     1.219202   -3.3765283     65.78997  0.075102705  0.089677863            2 
   74000    1.2179662   -3.3582252    67.149696  0.075619027  0.089676953            4 
   75000    1.2231873   -3.3726286    68.169907   0.07574434   0.08971449            3 
   76000    1.2450416   -3.3601325    69.366562  0.076059827  0.089734973            1 
   77000    1.2401718   -3.3484008    70.797401  0.076620564  0.089777595            2 
   78000    1.2475206   -3.3671468    71.737172  0.076642277     0.089826            1 
   79000    1.2545495   -3.3647843    72.732697  0.076722254   0.08985057            1 
   80000    1.2663236   -3.3599888    73.918829   0.07699878  0.089869278            3 
   81000    1.2466382   -3.3757832    74.358925  0.076500952  0.089863569            1 
   82000    1.2597229    -3.359749    75.330128  0.076555008  0.089838155            2 
   83000    1.2543506   -3.3724597    76.593641  0.076901245  0.089800324            1 
   84000    1.2348785   -3.3695053    77.359642  0.076745676  0.089767915            4 
   85000     1.250986   -3.3779667    78.354899  0.076818528  0.089713719            1 
   86000    1.2381168   -3.3838594    79.000483  0.076550855  0.089665402            1 
   87000    1.2326346    -3.395817    80.628942  0.077230787   0.08962349            1 
   88000     1.276564   -3.3565414    81.622213  0.077293762  0.089593934            3 
   89000    1.2216248   -3.3693393    83.043613  0.077756192  0.089572156            1 
   90000     1.227613   -3.3958494    83.368894   0.07719342  0.089550585            1 
   91000    1.2324531   -3.3949379    85.305846  0.078118906  0.089531179            1 
   92000    1.2424182   -3.3576946    85.928201  0.077833515  0.089502771            2 
   93000    1.2263581   -3.3621899    86.776813     0.077757  0.089474995            2 
   94000    1.2448626   -3.3429457    87.998886  0.078013196   0.08945289            1 
   95000     1.220867   -3.4016856    88.930066  0.078008829  0.089435534            2 
   96000    1.2422151   -3.3546725    90.110484  0.078220906  0.089405569            4 
   97000    1.2314962   -3.3227158    91.536084  0.078639247  0.089378028            3 
   98000     1.236267   -3.3899838    91.989263  0.078222162  0.089351765            3 
   99000    1.1949191   -3.4152522    93.405167  0.078623878  0.089331221            3 
  100000    1.2359177   -3.3829477    94.578452  0.078815376  0.089321515            2 
  101000     1.236755   -3.3527061    95.770528  0.079018587   0.08931664            2 
  102000    1.2356323   -3.4125529    96.459176  0.078806516  0.089307832            2 
  103000    1.2370208   -3.3623888    97.769127  0.079101235  0.089299107            2 
  104000    1.2227676   -3.3872749    98.952127  0.079288563  0.089297052            1 
  105000    1.2382544   -3.3814535    100.13742  0.079474146  0.089287082            2 
  106000    1.2480036   -3.3653472    101.32308  0.079656508   0.08928236            2 
  107000    1.2568051   -3.3639592     101.8958  0.079358099  0.089282312            1 
  108000    1.1955928   -3.3742062    102.72072  0.079259814  0.089271798            2 
  109000    1.2730373   -3.3903596    103.97234  0.079489555  0.089260468            1 
  110000    1.2375171   -3.3687699     105.1764  0.079679092  0.089244598            2 
  111000    1.2449304   -3.4079745    105.81501  0.079440695  0.089239363            2 
  112000    1.2619189   -3.3786015    107.58826   0.08005079  0.089234294            1 
  113000     1.229633   -3.4058193    108.56494  0.080062642  0.089250593            3 
  114000    1.2438036   -3.3755967    110.20314   0.08055785  0.089282027            2 
  115000    1.2344789   -3.3962695    110.99643  0.080432199  0.089317283            2 
  116000    1.2189391    -3.387322    112.67029  0.080941298  0.089348346            2 
  117000    1.2096719   -3.3732666    113.80783  0.081059708   0.08938496            1 
  118000    1.2303719    -3.368177    114.81919  0.081087001  0.089435667            1 
  119000    1.2327023   -3.3693415    116.08459   0.08129173  0.089472865            2 
  120000    1.2425944   -3.3838539    117.01104  0.081257669  0.089509275            1 
  121000    1.2408524   -3.3915597    118.50138  0.081612517  0.089553994            5 
  122000    1.2578199   -3.4063476    119.11461  0.081362438  0.089598399            1 
  123000    1.1988404   -3.3784474    120.66539  0.081751618  0.089632484            1 
  124000    1.2208748   -3.3817183    121.42229     0.081601  0.089670757            2 
  125000    1.2456837   -3.3988246     122.6906  0.081793733  0.089705682            2 
  126000    1.2300651   -3.3858256     123.8977  0.081942923  0.089735629            1 
  127000    1.2404523    -3.367772    125.07705  0.082071552  0.089772174            3 
  128000    1.2467781   -3.3568851    125.55569  0.081741987  0.089795108            1 
  129000    1.2321542   -3.4017147    126.88458  0.081966781  0.089814039            2 
  130000    1.2235928   -3.3839758    126.86045  0.081320803  0.089810099            1 
  131000    1.2269778   -3.3838775    127.82854  0.081315867  0.089797945            1 
  132000    1.2472998   -3.3859886    129.20837  0.081570938  0.089784408            1 
  133000    1.2296475   -3.3767482    129.76421  0.081305893  0.089769205            2 
  134000    1.2534558   -3.3794767    131.24848  0.081622187  0.089758024            6 
  135000    1.2055761   -3.3762118    132.08889  0.081536354  0.089740684       -1e+20 
  136000    1.2382949   -3.3807076    133.19459   0.08161433  0.089718946            2 
  137000    1.2172575   -3.3746804    134.98115  0.082105325  0.089700613            2 
  138000    1.2224579    -3.377124    135.78122  0.081993493  0.089704051            1 
  139000    1.2434068   -3.3632299    136.86418  0.082052868   0.08971027            1 
  140000    1.2107786   -3.3779882    137.81481  0.082032622  0.089706958            1 
  141000    1.2482652   -3.3988147    139.06927  0.082192241  0.089708029            1 
  142000    1.2432068   -3.4419879    139.78921  0.082035919  0.089709418            1 
  143000    1.1980452   -3.4028357     140.7482  0.082021094  0.089707744            3 
  144000     1.245984   -3.3800693    141.91444  0.082126409  0.089707762            2 
  145000    1.2042418   -3.4070512    143.54191  0.082495352  0.089710786            2 
  146000    1.2370376   -3.4014016    144.19897  0.082305349  0.089720587            2 
  147000    1.2305515   -3.3969651     145.8495  0.082681123  0.089731673            2 
  148000    1.2411396   -3.3801526    146.47715  0.082475873  0.089738705            3 
  149000    1.2357256    -3.380341    147.86833  0.082700407  0.089733755            4 
  150000    1.2423045    -3.372514      149.289  0.082938335  0.089735264            1 
  151000    1.2327668   -3.3954773    149.35056  0.082423044  0.089727053            3 
  152000    1.2446241   -3.3825872    150.27075  0.082385278   0.08971728            2 
  153000     1.213623   -3.3873519    151.40362  0.082463845  0.089698142            1 
  154000    1.2041455   -3.3711941    151.44384  0.081950127  0.089676531            5 
  155000    1.2456151   -3.4116459    152.87992  0.082193507  0.089654853            2 
  156000    1.2179552   -3.3690377    154.57859  0.082574033  0.089635826            3 
  157000    1.2412192   -3.3885218    154.34732  0.081925326   0.08960925            1 
  158000    1.2085302   -3.4009434    156.96286  0.082786318  0.089584838            1 
  159000    1.2519803   -3.3559788    157.52841  0.082562058  0.089566545            2 
  160000    1.2061343   -3.3694319    158.29258   0.08244405  0.089544327            1 
  161000    1.2382494   -3.3995182    159.02519  0.082311174  0.089513116            2 
  162000    1.2228396   -3.3792473    159.38716  0.081989278  0.089484465            2 
  163000     1.221949   -3.3990651    160.79727  0.082207194  0.089442991            1 
  164000    1.2139206   -3.4241401    160.87565  0.081745757  0.089410398            2 
  165000    1.2114732   -3.4071086    163.25955  0.082454319  0.089382509            3 
  166000    1.2233111   -3.3653366    165.18934  0.082926375  0.089360042            1 
  167000    1.1943019   -3.4008016    165.81604  0.082742534  0.089346033            1 
  168000    1.2383363   -3.4069223    166.97893   0.08282685  0.089320163            1 
  169000    1.2347045   -3.3891157    167.72856  0.082706393  0.089292933            2 
  170000    1.2030558   -3.4107242    167.53281  0.082123924   0.08926789            2 
  171000    1.2244428   -3.3638409    169.87156  0.082783409  0.089243054            2 
  172000    1.2243281   -3.3918343    171.34883  0.083017843  0.089225332            2 
  173000    1.2435896    -3.399125    172.13095  0.082914714  0.089210819            1 
  174000    1.2241009   -3.3971693    173.23611  0.082967485  0.089193534            2 
  175000    1.1999335   -3.4201418    172.94676  0.082355599  0.089171799            2 
  176000    1.2366903   -3.3828377    175.01013  0.082864645  0.089147565            1 
  177000    1.2095293    -3.391096    175.54156  0.082646687  0.089124449            2 
  178000    1.2319818   -3.4388836    176.07864  0.082433821  0.089097861            2 
  179000    1.2072825   -3.3767679    178.46519  0.083084354  0.089082349            7 
  180000    1.2201998   -3.3758781    179.83977  0.083259151  0.089074347            3 
  181000    1.2568774   -3.3766922    181.14254  0.083398959  0.089062497            1 
  182000    1.2106266   -3.3601287    181.89532  0.083285404  0.089052255            3 
  183000    1.2330223   -3.3847491    183.65949  0.083633649  0.089041555            3 
  184000    1.1889314   -3.4179116     184.5413  0.083578487  0.089041127            1 
  185000    1.2214827   -3.3715714    186.01989  0.083792744   0.08904568            2 
  186000    1.1918573   -3.4091725    185.73187  0.083213203  0.089039753            2 
  187000    1.2348572   -3.4069215     186.5379  0.083127405  0.089031519            2 
  188000    1.2203915   -3.3715351    188.09001  0.083373231  0.089019764            1 
  189000    1.2262194   -3.3781112    188.77551  0.083234352  0.089009598            2 
  190000    1.2364365   -3.4015921    190.63241  0.083610707  0.088997119            1 
  191000    1.2153447   -3.3823082    190.87317  0.083277999  0.088985511            2 
  192000    1.2423024    -3.367215    192.84912  0.083701876  0.088980326            2 
  193000    1.1856006   -3.4118616    193.59478  0.083590145  0.088976017            2 
  194000    1.2557041   -3.3857275     194.5503  0.083569714  0.088969801            1 
  195000    1.2361408   -3.3791123    195.27063  0.083448987  0.088959477            3 
  196000    1.2308267   -3.3992565    196.08741  0.083370498  0.088941585            1 
  197000    1.2330044   -3.3985594    197.84629  0.083691325  0.088928374            2 
  198000    1.2170337    -3.417045    198.10176   0.08337616  0.088909976            1 
  199000    1.2133549    -3.411469    197.97173  0.082902735  0.088884571            2 
  200000    1.2164298   -3.3896635    198.43248    0.0826802  0.088855055            4 
  201000    1.2142852   -3.3804872    200.27968  0.083034692  0.088822433            1 
  202000    1.1991929   -3.3909344     200.5075  0.082717614  0.088789493            1 
  203000    1.2212081   -3.3963303    202.91459  0.083298272  0.088764601            2 
  204000    1.2232708   -3.4069163    203.25613  0.083029465   0.08874495            2 
  205000    1.1970154   -3.4397098    204.10137  0.082968037  0.088722218            1 
  206000    1.1929213   -3.3688644    206.02925  0.083345167    0.0886915            2 
  207000    1.2252622   -3.4052122    206.63133  0.083184916  0.088660731            3 
  208000    1.2400427   -3.4028299    207.88791  0.083288424  0.088631379            2 
  209000    1.2226996   -3.4188011    208.00211  0.082935449  0.088602981            2 
  210000    1.2150056   -3.4020467    210.16443  0.083398585  0.088579467            3 
  211000    1.2311237   -3.3978522    210.71942  0.083222518  0.088554196            2 
  212000    1.2288074   -3.3934421    211.66508  0.083201683  0.088529309            2 
  213000    1.1965005   -3.3947463     212.9269  0.083304735  0.088509471            2 
  214000    1.1990756   -3.4058759    213.62127  0.083185853  0.088488462            1 
  215000    1.2171794   -3.4230527    215.40562  0.083490552  0.088467213            2 
  216000    1.2033736   -3.4394608    214.87222  0.082898234  0.088440402            3 
  217000    1.2166349   -3.4261593    216.56906  0.083167841   0.08840895            2 
  218000    1.1788038   -3.4045178    216.46395  0.082746159  0.088382377            1 
  219000    1.2265841   -3.4264751    217.51448  0.082768069  0.088349338            1 
  220000    1.2310024   -3.4051341    218.60022  0.082803114   0.08831921            3 
  221000    1.2182122   -3.4426779    219.33703  0.082706272  0.088283774            4 
  222000     1.237055   -3.4262315    220.89063  0.082916903  0.088252564            2 
  223000    1.2165768   -3.4090408    221.20961  0.082664278  0.088222982            5 
  224000    1.1832343   -3.3925489    222.48281  0.082768901  0.088188833            5 
  225000    1.2115746    -3.408351    223.34116  0.082718948  0.088157199            2 
  226000     1.214463   -3.3740271    225.60659  0.083188272  0.088123586            3 
  227000     1.210285   -3.4115119    226.18162  0.083032899  0.088092152            1 
  228000    1.1869659   -3.4240592    227.29668  0.083076272  0.088061621            1 
  229000     1.241113   -3.4201615    227.34787  0.082732121  0.088036414            1 
  230000    1.1984393   -3.3838449    230.40562  0.083480299  0.088009579            4 
  231000    1.2249803     -3.40024    229.27381  0.082710609  0.087981859            1 
  232000    1.2163837   -3.3936803    232.73225  0.083596353  0.087956886            1 
  233000    1.2078259   -3.4139109    232.44199   0.08313376  0.087935377            1 
  234000    1.2427999   -3.4434211    232.30172  0.082728534  0.087909189            3 
  235000    1.2395604   -3.3715143     235.5193  0.083517482  0.087887406            1 
  236000     1.206364   -3.4073424    235.23911  0.083064659  0.087866958            1 
  237000    1.2034221   -3.3728372    237.17904  0.083396286  0.087844999            1 
  238000    1.2103744   -3.3947213    237.31717  0.083094247  0.087824662            3 
  239000    1.2039451   -3.4185975    236.86808  0.082589984  0.087797606            4 
  240000    1.1908922   -3.3970268    238.49933  0.082812266  0.087767215            2 
  241000    1.2381872   -3.3853836     239.5725   0.08283973  0.087735794            1 
  242000    1.2136679   -3.3929913    240.69383  0.082883549  0.087705979            2 
  243000    1.2043129   -3.4026333    241.57574  0.082844903  0.087678737            1 
  244000    1.2219834   -3.3791976     241.6873  0.082543477  0.087644493            2 
  245000    1.2260326   -3.3966291    243.19905  0.082720765  0.087612678            6 
  246000    1.2273857   -3.3752583    243.69238  0.082551619  0.087581631            3 
  247000    1.2037133   -3.3745935    245.41215  0.082797621  0.087548782            2 
  248000    1.2000179   -3.4009475     246.0951  0.082693247  0.087515437            2 
  249000       1.2203   -3.4529266    245.88625  0.082291247  0.087482733            2 
  250000     1.249172   -3.4414009    247.84961  0.082616537  0.087448096            2 
  251000    1.2149328   -3.4126181    248.74387  0.082584286  0.087416108            2 
  252000    1.2453799    -3.432598    250.06463  0.082693331  0.087386007            2 
  253000    1.2202513   -3.4327238    251.81688  0.082943636  0.087354809            1 
  254000     1.191169    -3.426567    251.85391  0.082629234  0.087328201            3 
  255000    1.2136369   -3.4481316    252.19222  0.082415758  0.087299103            1 
  256000    1.1998769   -3.3793782    254.70803   0.08291277  0.087272002            1 
  257000     1.218202   -3.4150096    254.24929  0.082441403  0.087242853            1 
  258000    1.2146364   -3.4509256    254.19868  0.082105518  0.087212922            2 
  259000    1.2126112   -3.4226963    257.11173  0.082725783  0.087178201            2 
  260000    1.2364906   -3.3845847    257.00888  0.082374642  0.087144917            3 
  261000    1.2087716   -3.4201452    257.80843  0.082314315  0.087109886            4 
  262000    1.2197432   -3.3945516    259.91402  0.082669852  0.087072798            1 
  263000    1.2278655   -3.4026919    260.83445  0.082647164  0.087038049            1 
  264000    1.1927984   -3.4155206    260.34375  0.082179214   0.08700378            1 
  265000    1.2036319   -3.3855828    262.50677  0.082549298  0.086968371            3 
  266000    1.2203399   -3.3782819    263.03814  0.082405433  0.086932542            4 
  267000    1.1982173   -3.3945557    263.04335  0.082098425  0.086891251            1 
  268000    1.2181299   -3.4216578    264.30432  0.082184178  0.086847988            2 
  269000    1.2021595   -3.4278841    264.47322  0.081930986  0.086804908            1 
  270000    1.1756682   -3.4181368    266.06586  0.082119093  0.086764345            3 
  271000    1.1864567   -3.4458941    266.60288  0.081981204  0.086723317            2 
  272000    1.2096919   -3.3915518    267.17333  0.081854575   0.08668396            2 
  273000     1.184467   -3.4192607    269.64391  0.082308886  0.086647959            3 
  274000     1.202233   -3.4190825    270.01302  0.082120748  0.086609325            1 
  275000    1.2087259   -3.3989225     271.4436  0.082255635  0.086574934            2 
  276000    1.1997674   -3.3917214    272.20425  0.082187275  0.086542813            2 
  277000     1.214751   -3.4381931    273.37501  0.082242784  0.086509723            2 
  278000    1.2205624   -3.4026107    273.98041  0.082128419  0.086474522            2 
  279000    1.1973869   -3.4144682    276.90173  0.082706611  0.086440561            1 
  280000    1.2313438   -3.4250051    278.15065   0.08278293  0.086409019            2 
  281000    1.2023924   -3.4120978    277.12096  0.082182966   0.08637961            2 
  282000    1.1974498    -3.413885    278.63714  0.082339581   0.08635027            2 
  283000    1.2087286   -3.4217112    278.70628  0.082068988  0.086319669            1 
  284000    1.2086704   -3.4121162    280.07023  0.082180232  0.086288235            2 
  285000     1.221116   -3.4173767    282.22061  0.082520647   0.08625808            3 
  286000    1.2116241   -3.4099393    282.58907  0.082339473  0.086225674            2 
  287000    1.2048255   -3.4161769    283.13569  0.082211291  0.086197639            1 
  288000    1.2177093   -3.3940261     283.7631  0.082107377  0.086166593            1 
  289000    1.2085884    -3.405658    285.42944  0.082303759  0.086137259            4 
  290000    1.2011779   -3.4226729    285.56967  0.082060249   0.08610658            1 
  291000    1.1985013   -3.4057047    287.75469  0.082403976  0.086075998            1 
  292000    1.1971241   -3.4286676    288.08481  0.082215986  0.086049382            2 
  293000    1.2174899   -3.4356701    288.84633  0.082151969   0.08602519            1 
  294000    1.1686265    -3.408786    290.93834  0.082465517  0.086003462            2 
  295000    1.2022777   -3.4154158    291.23987  0.082271148  0.085982862            2 
  296000      1.21243   -3.4008015    294.10001  0.082798427  0.085961792            1 
  297000    1.2248356   -3.4442438    294.59739    0.0826592  0.085943199            1 
  298000    1.2113408   -3.4276638    294.30505  0.082300071  0.085924327            2 
  299000    1.2103382   -3.4159275    296.61664  0.082669073  0.085905809            1 
  300000    1.1972221    -3.391132    298.19395  0.082831654  0.085889116            1 
  301000    1.2094467   -3.3874626    298.99247  0.082777538  0.085870006            2 
  302000     1.186558   -3.4180979    299.21124  0.082563807  0.085852689            1 
  303000    1.1962194   -3.4243819    300.08053  0.082530397  0.085833519            4 
  304000    1.2015784   -3.4224558    301.76214  0.082719886  0.085816512            1 
  305000    1.1812415   -3.4032429    301.96146  0.082503132  0.085797611            1 
  306000    1.2039691   -3.4376444    303.80491  0.082735542   0.08578035            2 
  307000    1.2100421   -3.4091296    305.59521  0.082952012  0.085765112            3 
  308000    1.2108299    -3.415102     305.6509  0.082697755  0.085748751            1 
  309000    1.2051939   -3.4246107      306.316  0.082609492  0.085731695            3 
  310000    1.1745718   -3.3736802    306.37456  0.082358752  0.085713267            1 
  311000    1.2051926   -3.3996042    307.77894  0.082470241  0.085693454            1 
  312000    1.2245846   -3.4299219    307.10814  0.082026748  0.085673251            5 
  313000    1.1586304   -3.4230544    309.24592  0.082333845  0.085652496            1 
  314000     1.189026   -3.4479216    310.06382  0.082288699  0.085628728            1 
  315000    1.1906477   -3.4291443     312.3936   0.08264381  0.085609557            1 
  316000    1.1906965   -3.4156799    313.66173    0.0827167  0.085588457            3 
  317000    1.1975447    -3.413404    313.47716  0.082407245  0.085569678            2 
  318000    1.1730089   -3.4473148    313.68643  0.082202942  0.085549993            1 
  319000    1.2082299   -3.4095647    315.62367  0.082451325   0.08552715            3 
  320000    1.1881153   -3.4086378    315.34914  0.082122171  0.085507634            1 
  321000    1.2330491   -3.3995572     319.0313  0.082822247  0.085489043            2 
  322000    1.1961928    -3.400391    318.23948  0.082360114  0.085472941            6 
  323000    1.2024626    -3.424545    319.51959  0.082435394  0.085454744            1 
  324000    1.2046242   -3.4118539    320.69453   0.08248316  0.085436497            1 
  325000    1.2112496   -3.4372794    321.05326  0.082321348  0.085419541            2 
  326000    1.1984655    -3.451307    323.12014  0.082597172  0.085400879            2 
  327000    1.1919782   -3.4650684    321.42635  0.081912934  0.085380481            3 
  328000    1.1997639    -3.406835    323.55402  0.082203766  0.085359439            1 
  329000    1.1816781   -3.4179236     324.8659  0.082286195   0.08534012            2 
  330000    1.2013669   -3.4118735    325.74591  0.082259067  0.085319889            4 
  331000    1.1705712   -3.4274673    325.62424   0.08197992  0.085296589            1 
  332000    1.2104844   -3.4519707    325.38602  0.081673197  0.085270842            1 
  333000    1.1754631   -3.4294048     327.3329   0.08191514   0.08524501            2 
  334000    1.2268794   -3.4714619    328.06471  0.081852473  0.085219145            5 
  335000    1.2001652   -3.4171505    329.15638  0.081879696  0.085191747            1 
  336000    1.1934214    -3.429274    330.22265  0.081900458  0.085167001            2 
  337000    1.1847238   -3.4362679    330.31667  0.081680681  0.085141164            1 
  338000    1.1966725   -3.4303546    331.82484  0.081810859  0.085115072            3 
  339000    1.1979636   -3.4373456    331.68295  0.081534647  0.085090623            2 
  340000    1.1870928   -3.4327368    332.81651  0.081572673  0.085061829            1 
  341000    1.2186711   -3.4359661    334.07662  0.081641403  0.085032211            1 
  342000    1.1987682   -3.4411457    335.22108  0.081681549  0.085003564            3 
  343000    1.1945068   -3.4383577    335.68838  0.081556943  0.084977602            1 
  344000    1.1937144    -3.419565    338.19935  0.081928137  0.084951797            1 
  345000    1.2061771   -3.3977572    338.37356  0.081732744  0.084926757            1 
  346000    1.1831262   -3.4339224    337.44096  0.081271907  0.084899947            3 
  347000    1.2093376   -3.4190549    339.17077  0.081453116  0.084871289            1 
  348000    1.1821494   -3.4230477    340.67848  0.081580096  0.084844911            4 
  349000    1.1889231   -3.3979491    341.87634  0.081632363   0.08481771            1 
  350000    1.1978042   -3.4164036    343.45085  0.081774013  0.084792873            2 
  351000    1.1875552   -3.4151429    344.31918  0.081747193  0.084768064            2 
  352000    1.1961233    -3.385008    345.21468  0.081726961   0.08474468            3 
  353000    1.2023591   -3.4458348    345.12778  0.081474924  0.084719857            3 
  354000    1.2062791   -3.4397769      347.367  0.081771894  0.084695266            4 
  355000    1.1641826    -3.427048     349.1295  0.081955283  0.084670521            4 
  356000    1.2038676   -3.4262937    349.52553  0.081817774  0.084648798            2 
  357000    1.1874793    -3.447401    349.63108  0.081613231   0.08462421            2 
  358000    1.2018416   -3.4208289    353.00095  0.082169682  0.084601713            2 
  359000    1.2074238   -3.4279324    352.11885  0.081736037  0.084583044            3 
  360000    1.1777252   -3.4448465    353.33666  0.081790894  0.084564014            1 
  361000    1.1978812   -3.4044433    355.26453  0.082009357  0.084546047            4 
  362000    1.2009191   -3.4094804    355.39183  0.081812117  0.084530113            1 
  363000    1.1850419   -3.4412516    354.44097   0.08136845  0.084510152            2 
  364000    1.1853998   -3.4193011    358.34552  0.082038809    0.0844896            1 
  365000    1.2076938   -3.4461524    357.28258  0.081571366  0.084467226            2 
  366000    1.1983611   -3.4405352    359.37112  0.081824025  0.084444993            2 
  367000    1.1777346   -3.4242702    360.78344  0.081921761  0.084425004            1 
  368000    1.1703721   -3.4202924     360.9146  0.081728849  0.084405324            2 
  369000    1.1873102   -3.4690821    361.23144  0.081578916  0.084385805            3 
  370000    1.1743336   -3.4038139     362.5163  0.081647816  0.084366214            5 
  371000    1.2045452   -3.4312392    363.84025  0.081725123  0.084349246            2 
  372000    1.1767868    -3.418961     366.7399  0.082154995  0.084332306            3 
  373000    1.1889152   -3.4342936    365.62666  0.081686028  0.084316205            2 
  374000    1.1944067   -3.4495993    369.74386  0.082384996   0.08430101            2 
  375000    1.2326318   -3.4252436     368.5916  0.081909245    0.0842844            5 
  376000    1.1862527   -3.4474044    369.45216  0.081882127  0.084269948            1 
  377000    1.2150835   -3.4605316    370.38285  0.081870657  0.084253232            2 
  378000     1.180831   -3.4309131    371.06628  0.081804736  0.084237574            1 
  379000    1.1780873   -3.4742904    373.08773  0.082033362  0.084224715            2 
  380000    1.1640123   -3.4126312    374.62966  0.082155627  0.084210623            1 
  381000    1.1797762   -3.4334119     375.2746  0.082081058  0.084195697            2 
  382000    1.1939327   -3.4158634     376.1294  0.082052661  0.084183797            4 
  383000    1.1879802   -3.4352057    377.18876  0.082068922  0.084169645            3 
  384000    1.1898892   -3.4167001    378.70051  0.082183269  0.084159656            2 
  385000      1.19574   -3.4173525    378.86686  0.082005813  0.084151124            2 
  386000    1.1765251   -3.4604615    380.55238  0.082157249  0.084140726            4 
  387000    1.1810156   -3.4300296    380.99606  0.082040494  0.084132029            1 
  388000    1.1794485   -3.4258924    385.11081  0.082712802   0.08412328            2 
  389000     1.210868    -3.453624    384.34516  0.082336153  0.084116716            4 
  390000    1.2191612   -3.4341994    385.12495  0.082291656   0.08410899            2 
  391000    1.1808961     -3.42188    386.04874  0.082278076  0.084104906            1 
  392000    1.1745917   -3.4499469    388.09398  0.082502971  0.084098512            4 
  393000    1.1794052   -3.4566307    387.49451  0.082165927   0.08409205            2 
  394000    1.1720151   -3.4598901    390.09156  0.082506676  0.084084278            2 
  395000    1.2107381   -3.4103078    391.73542  0.082644603  0.084078208            2 
  396000    1.1873172   -3.4339814    389.70485  0.082008596  0.084070687            2 
  397000     1.192212   -3.4261197    394.14726  0.082734521  0.084067526            1 
  398000    1.1782411     -3.42127    393.78044  0.082449841  0.084061379            1 
  399000     1.174033   -3.4035318    393.98875  0.082286707  0.084052867            1 
  400000    1.1673204   -3.4406184    392.78379  0.081829956  0.084044639            1 
  401000    1.2000432   -3.4548233    393.40696  0.081755395  0.084034519            1 
  402000    1.1820862    -3.441969    396.08657  0.082107498  0.084023896            2 
  403000    1.1990313    -3.446443    396.37545  0.081963493  0.084014626            1 
  404000    1.1929718   -3.4525768    395.94323  0.081671459  0.084005738            2 
  405000    1.1897899   -3.4123548    398.93665  0.082085731  0.083996459            1 
  406000     1.170793   -3.4572096    398.93086   0.08188236  0.083983811            1 
  407000    1.1852341   -3.4718591    400.55537  0.082013795  0.083971335            1 
  408000     1.177885   -3.4725744    401.70518  0.082047626  0.083959554            2 
  409000    1.2000751   -3.4052675    402.15746  0.081939173  0.083947519            3 
  410000    1.1589345   -3.4312833    404.83682  0.082283907  0.083933279            1 
  411000    1.1972783   -3.4281479    403.20359  0.081752553  0.083921521            1 
  412000    1.1651461   -3.3815201    405.53378   0.08202544  0.083908052            2 
  413000    1.1858321   -3.4177698    406.87949  0.082098364  0.083894415            2 
  414000    1.1895353   -3.4186433    407.51967  0.082028919  0.083881998            1 
  415000    1.1672012   -3.4660058    407.66784  0.081861012  0.083868825            2 
  416000    1.1908151   -3.4456221    407.84572  0.081699863  0.083856502            2 
  417000    1.1930658   -3.4517301    407.61241  0.081457317  0.083845001            4 
  418000    1.1734612   -3.4443973    409.07994  0.081555012  0.083831695            1 
  419000    1.1768024   -3.4284961    412.63381  0.082067187   0.08381924            2 
  420000     1.190727   -3.4462427    412.59215  0.081863522  0.083807649            2 
  421000    1.1778539   -3.4238164    413.82712  0.081913523  0.083795943            2 
  422000    1.1951185   -3.4555284    416.13005  0.082174181  0.083784726            3 
  423000    1.1865764   -3.4324539    416.64041  0.082080458   0.08377309            3 
  424000     1.190304   -3.4198446    418.56394  0.082264924  0.083762127            1 
  425000    1.1833626   -3.4661408    418.60425  0.082079265  0.083753275            2 
  426000    1.1848194   -3.4509296    420.49483  0.082256421  0.083744378            3 
  427000    1.1782655   -3.4302521    420.43097  0.082051321  0.083735219            2 
  428000    1.1966107   -3.4445394    422.00954  0.082166966  0.083726837            1 
  429000    1.1975295    -3.452007    422.67589  0.082104873  0.083718266            3 
  430000    1.1723166   -3.4449354    422.38435  0.081857432  0.083709228            3 
  431000    1.1694089   -3.4308633    423.72392  0.081926512  0.083699255            2 
  432000    1.1939759    -3.431228    423.56717   0.08170663  0.083688097            2 
  433000     1.182493   -3.4332743    425.55458  0.081900419  0.083678763            2 
  434000    1.1431992   -3.4482293    426.21004  0.081837565  0.083667607            3 
  435000     1.173263   -3.4494977    428.33431  0.082056381  0.083657274            1 
  436000    1.2006597   -3.4536275    427.70102  0.081747138  0.083647083            1 
  437000    1.1723147    -3.451018    428.22722  0.081660416   0.08363448            2 
  438000    1.1944559   -3.4532327    429.42868  0.081702564  0.083621255       -1e+20 
  439000      1.18271    -3.433536    430.70549  0.081758825  0.083607211            2 
  440000    1.1861432   -3.4537509    433.61191  0.082123469  0.083595245            5 
  441000    1.1884507   -3.4100961    434.83081  0.082167576  0.083583649            4 
  442000    1.1924001   -3.4489375    432.89945  0.081617543  0.083566951            2 
  443000    1.1956033    -3.444631    433.24436  0.081498186  0.083551786            5 
  444000    1.1910589   -3.4486368     432.9265  0.081254974  0.083534534            2 
  445000    1.1804947   -3.4451436    435.63083  0.081578807  0.083516478            2 
  446000    1.1844336     -3.45413    435.99821  0.081464538  0.083501831            1 
  447000    1.2081046   -3.4527759    435.03007  0.081101803  0.083486023            4 
  448000    1.2071807   -3.4218605    436.05806   0.08111199  0.083467934            1 
  449000    1.1576033   -3.4154869    439.19442   0.08151344  0.083451784            2 
  450000      1.17937   -3.4578817    437.64504  0.081045378  0.083435688            3 
  451000    1.1703432   -3.4225474    438.70619  0.081061751  0.083417648            1 
  452000      1.16341   -3.4373498     443.2299  0.081716427  0.083402547            6 
  453000      1.18565   -3.4372434    440.70109  0.081070841  0.083386251            2 
  454000     1.220441    -3.457587     442.6794  0.081255397  0.083371053            3 
  455000    1.1887103    -3.466067    446.25826  0.081732282  0.083354991            2 
  456000    1.1794093   -3.4693455    442.55524  0.080876323  0.083338053            2 
  457000    1.1578869   -3.4388617    444.88532  0.081124238  0.083319916            4 
  458000    1.1527757   -3.4666729    446.01789  0.081153182  0.083304665            2 
  459000     1.171243   -3.4456282    448.34348  0.081398599  0.083289655            1 
  460000    1.1896609    -3.461498    448.32854  0.081218938  0.083275311            3 
  461000    1.1719295   -3.4795666    450.02652  0.081349697  0.083261379            2 
  462000     1.174447   -3.4824227    450.22648  0.081209682  0.083245962            2 
  463000    1.1830054   -3.4446841    451.46553  0.081257294  0.083231405            1 
  464000    1.1749369   -3.4870228    451.09132  0.081014964  0.083215759            2 
  465000    1.1611499   -3.4538505    452.27911  0.081053604  0.083202398            2 
  466000    1.1800645   -3.4676046    456.22305  0.081584952  0.083189363            1 
  467000    1.1503069   -3.4287052    458.90991  0.081889705  0.083175888            1 
  468000    1.1786048   -3.4680884    457.31439  0.081430625  0.083163715            3 
  469000    1.1875374   -3.4183035    458.99924  0.081556368  0.083151862            2 
  470000      1.21617    -3.443734      459.478  0.081467731  0.083139924            1 
  471000     1.187552   -3.4370521    458.76907  0.081169333  0.083127773            1 
  472000     1.176358   -3.4478071    460.02034  0.081218281  0.083115229            1 
  473000    1.1445486   -3.4513232    459.61295  0.080974798  0.083101364            2 
  474000    1.1583803   -3.4542867    462.50208  0.081311899  0.083087762            1 
  475000    1.1670428   -3.4436436    465.12013  0.081600023  0.083074816            1 
  476000    1.1723278   -3.4848681     462.6363   0.08099375   0.08306033            4 
  477000    1.1716449    -3.447306    464.17858  0.081093392  0.083046186            1 
  478000     1.168263   -3.4554772    463.97564  0.080888361  0.083031208            3 
  479000    1.1636442   -3.4429568    466.45278  0.081150448   0.08301624            1 
  480000    1.1947147   -3.4330159    466.40349  0.080972828  0.083001241            2 
  481000    1.1597199   -3.4674224     468.0752   0.08109411  0.082985243            1 
  482000    1.1469409   -3.4594403    469.05498  0.081095259   0.08296964            3 
  483000    1.1415173    -3.447265     471.4847  0.081346566  0.082954708            2 
  484000    1.1806456   -3.4519352    473.18407  0.081471086  0.082941195            2 
  485000     1.191064   -3.4439623    472.85411  0.081246411  0.082926213            2 
  486000    1.1758907   -3.4467075    472.21192  0.080969121  0.082912926            1 
  487000    1.1929075   -3.4333479    474.82685  0.081250317  0.082898727            1 
  488000     1.184401    -3.448664    471.95921  0.080594128  0.082882353            2 
  489000    1.1538795    -3.464967    476.78338  0.081251428  0.082867231            2 
  490000    1.1633827   -3.4642189    475.52601   0.08087177  0.082851699            2 
  491000    1.1807617   -3.4368495    477.23939  0.080997859  0.082836909            3 
  492000     1.152197   -3.4656345    475.73511  0.080578439  0.082820986            2 
  493000    1.1602536   -3.4707298    479.13332  0.080989405  0.082805982            2 
  494000    1.1485547   -3.4394981    479.43985  0.080877168  0.082791891            3 
  495000    1.1707283   -3.4347655    481.34704  0.081034855  0.082777758            1 
  496000    1.1479167   -3.4536076    483.07133  0.081161177  0.082763291            2 
  497000    1.1946811   -3.4743614    484.11008  0.081172045  0.082748778            2 
  498000    1.1701106    -3.463988    483.64523  0.080931264  0.082735122            4 
  499000    1.1692812   -3.4910538    483.02519  0.080665529   0.08271922            6 
  500000    1.1499239   -3.4875688    485.31136  0.080885226  0.082702816            2 
  501000    1.1681264   -3.4716238    485.09963   0.08068856  0.082688377            3 
  502000    1.1490994   -3.5314423    484.43822  0.080418032  0.082672827            2 
  503000    1.1701402   -3.4650997    486.64282  0.080623397  0.082657609            2 
  504000    1.1390244   -3.4859968     489.2236  0.080890145   0.08264325            2 
  505000    1.1665058   -3.4704729    490.72946  0.080978459  0.082628138            1 
  506000    1.1941958   -3.4532023    490.52204  0.080784263  0.082613368            2 
  507000    1.1773221   -3.4212672    493.55055  0.081122708  0.082598044            2 
  508000    1.1681728   -3.4849583    492.36418  0.080768402  0.082583571            2 
  509000    1.1711558   -3.4724384    491.69798  0.080500651  0.082567428            2 
  510000    1.1802318   -3.4687254    494.65807  0.080826482  0.082551626            3 
  511000    1.1826983   -3.4217827    494.31365   0.08061214    0.0825357            2 
  512000    1.1698793   -3.4870894    496.12644  0.080749746  0.082518535            1 
  513000    1.2037183   -3.4725936     495.6589  0.080516391  0.082501164            1 
  514000    1.1522827   -3.4650365    496.72741  0.080532979  0.082484222            1 
  515000    1.1545888   -3.4755652    495.98479  0.080256438  0.082466304            2 
  516000    1.1533693   -3.4542778    501.37148  0.080970846  0.082450164            1 
  517000    1.1855336     -3.47915    497.96106  0.080264517  0.082434418            2 
  518000     1.158869   -3.4601422    501.00493  0.080599249   0.08241758            2 
  519000    1.1684862   -3.4600683    502.36721  0.080662687  0.082400427            3 
  520000    1.1932722   -3.4724429    502.71652  0.080563545  0.082384149            1 
  521000    1.1753672   -3.4861263    501.92562  0.080282409  0.082367173            3 
  522000    1.1694619   -3.4351867    505.16302  0.080645438  0.082351537            2 
  523000    1.1717512   -3.4607149    506.00881  0.080626005   0.08233511            2 
  524000    1.1674932    -3.467923     506.5557  0.080559113  0.082320383            1 
  525000    1.1766458   -3.4566874    505.51928  0.080241155  0.082304775            2 
  526000    1.1838251   -3.4470205    509.54624  0.080726591  0.082288941            1 
  527000    1.1571039   -3.4579757    510.42682  0.080712653  0.082274047            4 
  528000    1.1394747    -3.455073    511.94845  0.080799944  0.082259512            2 
  529000    1.1804534   -3.4689803    513.78411  0.080936376  0.082245008            3 
  530000    1.1644453   -3.4764527    512.20006  0.080534601  0.082229449            5 
  531000    1.1412478   -3.4573607    516.34078  0.081032765  0.082217731            2 
  532000    1.1735584   -3.4931518    513.90482  0.080498875  0.082204474            3 
  533000    1.1636171   -3.4640511    514.68925   0.08047049  0.082189815            1 
  534000    1.1636909   -3.4599639    515.39398  0.080429773  0.082175889            3 
  535000    1.1407094    -3.474727    517.03846  0.080535586  0.082161258            3 
  536000     1.164034   -3.4936787    517.83797  0.080509634  0.082146894            1 
  537000    1.1749596   -3.4669905    519.78803  0.080662327  0.082130922            3 
  538000    1.1726845   -3.4453311    518.86271  0.080369069  0.082116639            1 
  539000    1.1868605   -3.4559144    520.21313  0.080428746  0.082101518            2 
  540000    1.1608688   -3.4507829     521.6041   0.08049446  0.082087574            1 
  541000    1.1610659   -3.4620074    522.39703  0.080467812  0.082072415            1 
  542000    1.1771722   -3.4609018    525.32238  0.080769124  0.082058227            2 
  543000    1.1732366   -3.4709069    522.96049  0.080257902  0.082043245            3 
  544000    1.1454758    -3.464088    526.31573  0.080624346  0.082028419            1 
  545000    1.1633255   -3.4781773    526.83378  0.080555625  0.082013978            2 
  546000    1.1792117   -3.4948086    526.70466  0.080388378  0.081999847            5 
  547000      1.16936   -3.4144688    528.81136  0.080562364  0.081986323            2 
  548000    1.1568626   -3.4815974    529.75336  0.080558602   0.08197301            3 
  549000    1.1446721   -3.4740228    530.82566  0.080574629  0.081959107            2 
  550000    1.1843708   -3.4634314    528.69345  0.080105068  0.081945134            5 
  551000     1.160779   -3.4885928    532.25299  0.080498032  0.081932154            1 
  552000    1.1607841   -3.4600793    534.48284  0.080688835  0.081918968            2 
  553000    1.1583003   -3.4916193    533.93111  0.080459782  0.081906275            3 
  554000     1.154991   -3.4477931    536.64504  0.080722779  0.081892292            1 
  555000    1.1419984   -3.4930039    533.46901  0.080100451  0.081878179            2 
  556000    1.1620836   -3.4834609    535.60642  0.080276741  0.081865256            3 
  557000    1.1288114   -3.4579008     539.0596  0.080649252  0.081852692            1 
  558000    1.1617493    -3.465777    540.33769  0.080695592  0.081840961            2 
  559000    1.1652715   -3.4800088    542.25826  0.080837546  0.081830426            2 
  560000    1.1790986   -3.4898126    540.79612  0.080475613  0.081819213            4 
  561000    1.1719519   -3.4741355    541.24747  0.080399208  0.081809911            2 
  562000    1.1688446   -3.4600929    545.07661  0.080823933  0.081799431            2 
  563000    1.1655585   -3.4915386    545.16087  0.080692847  0.081790428            2 
  564000    1.1704097   -3.4953566    547.58272  0.080907612  0.081779676            2 
  565000     1.167326   -3.4881431     547.1665  0.080703023  0.081769487            1 
  566000    1.1645432   -3.4719234    547.18513  0.080563181  0.081759788            3 
  567000    1.1615415   -3.4746074    548.52457  0.080617956    0.0817505            2 
  568000    1.1460779   -3.4879945    549.76671  0.080658261  0.081740297            2 
  569000    1.1527309    -3.464878    551.81235  0.080816103  0.081731928            1 
  570000    1.1338723   -3.4622156    552.47461  0.080771142  0.081723172            1 
  571000    1.1766125   -3.4752801    553.13604  0.080726217  0.081713839            4 
  572000    1.1666716   -3.4934539    553.00641  0.080566202  0.081702567            2 
  573000    1.1753219   -3.5043271    552.84998  0.080402848  0.081693207            3 
  574000     1.128309    -3.459308    556.56192  0.080801672   0.08168409            1 
  575000    1.1553849   -3.4771281    558.97984  0.081011571  0.081674016            3 
  576000    1.1573832   -3.4658005    559.05112  0.080881239  0.081665063            1 
  577000    1.1630066   -3.4645502    560.68495  0.080977029  0.081655965            1 
  578000    1.1718663   -3.4787815    558.38887  0.080505892  0.081647511            3 
  579000    1.1493027   -3.4857401    559.94082  0.080590216    0.0816388            3 
  580000    1.1622905    -3.494772    559.60867  0.080403545  0.081628876            2 
  581000    1.1775916   -3.4726863    563.94753  0.080887483  0.081621365            1 
  582000    1.1559304   -3.4940073    565.10657  0.080914458  0.081613764            3 
  583000    1.1655706   -3.4681682    566.21634  0.080934297  0.081605701            2 
  584000    1.1600492   -3.4525535     566.7135  0.080866652  0.081597815            2 
  585000    1.1504051   -3.4684639    568.27579  0.080950967  0.081589977            4 
  586000    1.1795121   -3.4954972    568.77354  0.080883609  0.081584612            2 
  587000    1.1549179   -3.4673556    568.83631  0.080754729  0.081578867            2 
  588000    1.1531414   -3.4969613    568.33486  0.080546324   0.08157141            5 
  589000     1.153378   -3.4783359    572.67813   0.08102407  0.081565559            2 
  590000    1.1610627   -3.5238557    570.79848  0.080621254  0.081558673            3 
  591000     1.169983   -3.5153039    570.57449  0.080453256  0.081552364            2 
  592000    1.1720416   -3.5029158    572.69796  0.080616267  0.081543894            1 
  593000    1.1637526   -3.4661781     575.0392  0.080809332  0.081537895       -1e+20 
  594000    1.1396799   -3.4629076    573.17436  0.080411666  0.081529809            4 
  595000    1.1347092   -3.4889483    577.02933  0.080816432  0.081521887            1 
  596000    1.1669361   -3.4561549    578.46876  0.080882098  0.081515041            3 
  597000    1.1426165   -3.4727895    579.79802  0.080932164  0.081509215            4 
  598000    1.1539258    -3.455368    579.57644  0.080765948  0.081503879            1 
  599000    1.1337554   -3.4651345    580.01889  0.080692667  0.081495987            4 
  600000    1.1568513   -3.4877586    577.54431  0.080214488  0.081489117            2 
  601000    1.1393893   -3.4831957    583.84463  0.080954607  0.081482401            5 
  602000    1.1462593   -3.4788315    586.21157  0.081147781   0.08147675            2 
  603000    1.1420953   -3.4828776    582.42504  0.080489918  0.081470483            1 
  604000    1.1603316   -3.4844778    583.86606  0.080555471  0.081463874            1 
  605000    1.1496482   -3.4748166    587.21726   0.08088392  0.081456964            2 
  606000    1.1551288   -3.5081629    584.49456   0.08037604  0.081450457            2 
  607000    1.1508515   -3.4824657    587.52626  0.080659838  0.081443878            2 
  608000    1.1291742   -3.4899659    586.81751  0.080430031   0.08143571            4 
  609000     1.165076   -3.4832849    585.00823  0.080050388  0.081426761            2 
  610000    1.1580725    -3.507483    585.36903  0.079968447  0.081417514            3 
  611000    1.1439281   -3.4920218    588.94468  0.080325243  0.081407709            2 
  612000    1.1400505   -3.4642505    591.13154  0.080491767   0.08139712            2 
  613000    1.1350756    -3.472405    589.19113  0.080096673  0.081386801            3 
  614000    1.1353701   -3.4420231    591.56653  0.080288617  0.081376293            2 
  615000    1.1337713   -3.4797736    590.22385  0.079976131  0.081366516            2 
  616000    1.1270555   -3.5099781    593.53993  0.080294903  0.081356865            2 
  617000    1.1653066    -3.482059    594.23659  0.080258858  0.081347895            2 
  618000    1.1514029   -3.4766507    594.84494  0.080211022  0.081336222            1 
  619000    1.1616011   -3.4904831    594.12375   0.07998435  0.081325547            2 
  620000    1.1329248     -3.49528    598.98461  0.080508684  0.081313155            3 
  621000    1.1489587   -3.5316267    593.56319  0.079651528  0.081299562            2 
  622000    1.1603238   -3.4667598    595.76394   0.07981832  0.081286647            3 
  623000    1.1567559   -3.4696749    596.13525  0.079739868  0.081272029            2 
  624000    1.1281471   -3.5042138    596.93625   0.07971905  0.081257597            1 
  625000     1.173574   -3.5114025    598.26514  0.079768685  0.081243309            2 
  626000    1.1648986   -3.4396205    601.98574  0.080136546  0.081228046            3 
  627000     1.166881   -3.4834091     600.8135  0.079852937  0.081214438            1 
  628000     1.163813   -3.4634534     602.5074  0.079950558  0.081200555            2 
  629000    1.1586222   -3.4829232    599.34763  0.079404826  0.081185574            3 
  630000    1.1405346   -3.4584447    604.47991   0.07995766  0.081171116            2 
  631000    1.1829205   -3.5113005    603.40505  0.079688992  0.081156319            2 
  632000    1.1484831    -3.488029    604.07739  0.079651554  0.081141887            1 
  633000    1.1558104   -3.4835479     604.5183  0.079583768  0.081127321            3 
  634000    1.1371278   -3.4530151    609.89473  0.080164923   0.08111286            3 
  635000    1.1604799   -3.4960061    607.52913  0.079728233  0.081098554            2 
  636000    1.1407785   -3.4775928    608.61109  0.079744639  0.081085463            1 
  637000    1.1535403   -3.4842993     606.9596  0.079403402  0.081072568            2 
  638000    1.1494905   -3.4670363    610.25808  0.079709781  0.081059122            3 
  639000    1.1386771   -3.5006131    609.82892  0.079529072  0.081044488            1 
  640000    1.1480532   -3.4898199    612.41937  0.079742106  0.081029863            3 
  641000    1.1687557    -3.475058    613.87826  0.079807367   0.08101743            2 
  642000    1.1658897   -3.4731485    615.20953  0.079855858   0.08100581            3 
  643000    1.1610531   -3.4886181    616.17987  0.079857422  0.080993399            1 
  644000    1.1534223   -3.4539201    619.37349  0.080146673  0.080982531            2 
  645000     1.169225    -3.471581    619.42164  0.080028636  0.080972955            2 
  646000    1.1647421   -3.5315702    617.22334  0.079621173  0.080963238            3 
  647000    1.1425606   -3.4914887    621.92932   0.08010424  0.080953445            1 
  648000    1.1263902   -3.4489351    623.66923  0.080204376  0.080942967            2 
  649000    1.1548833    -3.496774    624.56496  0.080195809  0.080932347            2 
  650000    1.1326525   -3.5054261    619.09465  0.079371109  0.080921301            4 
  651000    1.1384646   -3.4821038    625.42052  0.080058951  0.080910191            3 
  652000    1.1624109   -3.4849379    623.58905  0.079702077  0.080898203            2 
  653000    1.1272392   -3.5059385    621.48947  0.079312081  0.080885138            2 
  654000    1.1536036   -3.5068224    626.59247  0.079841038  0.080873315            2 
  655000    1.1397758   -3.4845751    626.76114  0.079740603  0.080861573            2 
  656000    1.1478712   -3.5062767     628.5653  0.079848234  0.080850732            3 
  657000    1.1655874   -3.5338561    626.02317  0.079404258  0.080840215            1 
  658000    1.1379472   -3.4646965    631.50113  0.079977347  0.080829276            2 
  659000    1.1489083   -3.4480486    635.37123  0.080345376  0.080819635            2 
  660000     1.130623   -3.5017401    633.22313  0.079952415  0.080810274            2 
  661000      1.14108   -3.4743468    632.74384  0.079771034  0.080800959            1 
  662000    1.1381497   -3.4932424    636.26813  0.080094176  0.080791134            1 
  663000    1.1431376   -3.5159889    632.63553  0.079516784   0.08078133            2 
  664000     1.177865   -3.5292858    634.86024  0.079676235   0.08077084            2 
  665000    1.1274129    -3.502077    636.44311  0.079754775  0.080759327            2 
  666000    1.1589109   -3.4864705    635.26251    0.0794873  0.080749051            1 
  667000    1.1288535   -3.5052247    639.10143  0.079847754  0.080739092            3 
  668000    1.1603838   -3.4790613    645.13169  0.080480501   0.08073035            1 
  669000    1.1403967   -3.4731871    641.53142  0.079911736  0.080722431            1 
  670000    1.1322828   -3.5259514    642.00836  0.079851786  0.080713313            4 
  671000     1.171859   -3.4960651    642.09798  0.079743912  0.080703973            2 
  672000    1.1288711   -3.4702444     643.8918  0.079847694  0.080694486            3 
  673000    1.1814719   -3.4806132    645.21795  0.079893258   0.08068382            2 
  674000     1.126658   -3.5002502    645.63836  0.079826701  0.080674371            1 
  675000    1.1242113   -3.5022598    647.39888  0.079925787  0.080664725            1 
  676000    1.1698091   -3.5200571    647.04612  0.079764068   0.08065503            4 
  677000    1.1382492    -3.534009     645.0264  0.079397637  0.080643657            1 
  678000      1.13362    -3.474686    649.66435  0.079850583  0.080633122            2 
  679000    1.1240487   -3.4988888    648.89103  0.079638074  0.080622327            3 
  680000    1.1666236   -3.4747428    648.97727  0.079531528  0.080611645            3 
  681000    1.1433481   -3.4778688    651.71147  0.079749323  0.080601618            2 
  682000    1.1441006   -3.5064015    650.12908  0.079439037  0.080592305            4 
  683000    1.1473484   -3.4849674    655.93799  0.080031478  0.080582432            2 
  684000    1.1501475   -3.4742158    655.85683  0.079904585  0.080571772            6 
  685000    1.1433315   -3.4846357    654.89895  0.079671405  0.080561601            1 
  686000    1.1426974   -3.5162593    653.37221  0.079369802  0.080550546            6 
  687000    1.1659351   -3.4843888    657.24533  0.079724082  0.080539051            3 
  688000    1.1219982   -3.5022035    653.45561  0.079149177  0.080526834            2 
  689000    1.1539708   -3.5130147    657.62054  0.079538042  0.080514566            2 
  690000    1.1339443   -3.5218292    656.46792  0.079283566  0.080502883            3 
  691000    1.1477453   -3.4775104    659.26998  0.079506751  0.080492088            2 
  692000    1.1838553   -3.5085825    656.69049  0.079081225  0.080480644            2 
  693000    1.1648572   -3.5032513    659.46995  0.079301341  0.080468337            3 
  694000    1.1283717   -3.4902232    658.82325   0.07910942  0.080455952            2 
  695000    1.1299592   -3.5116889    660.55816  0.079203616   0.08044304            2 
  696000    1.1333601   -3.5109245    661.09808  0.079154464  0.080430298            1 
  697000    1.1560889   -3.5064683    664.65143  0.079465738  0.080416945            1 
  698000    1.1510982   -3.5118658    664.19106  0.079296927  0.080404652            3 
  699000    1.1385751   -3.5160765    664.91765  0.079270106  0.080391768            3 
  700000    1.1755504   -3.4954635    664.90736  0.079155638  0.080380512            2 
  701000    1.1373626   -3.4990507    667.18011    0.0793129   0.08036814            2 
  702000    1.1448552   -3.5108732    669.49626  0.079474865  0.080356285            2 
  703000     1.114163    -3.522939    669.83317  0.079401751  0.080344876            3 
  704000    1.1336277    -3.527525    670.33654  0.079348549  0.080333172            5 
  705000    1.1135267   -3.5013259    668.46111  0.079014316  0.080320663            5 
  706000    1.1409667   -3.5252421    667.59719  0.078800423   0.08030731            1 
  707000    1.1407332   -3.5416173    669.19423  0.078877208  0.080293286            1 
  708000    1.1286989   -3.4787121    670.28276  0.078893921  0.080280063            3 
  709000    1.1509836   -3.4877341    673.54953  0.079166611  0.080267292            1 
  710000    1.1647153   -3.4976407     669.9881  0.078637101  0.080252834            4 
  711000      1.14578   -3.5103572    672.13335  0.078777936  0.080238258            1 
  712000    1.1252885   -3.5025046    675.03998  0.079007488  0.080222815            2 
  713000    1.1366494   -3.4995778    673.98686  0.078773592  0.080208562            1 
  714000    1.1416617     -3.49016    677.76366  0.079104068  0.080194166            2 
  715000     1.152164    -3.531173    677.83769  0.079002062  0.080180725            1 
  716000    1.1685634   -3.4935623    679.27541  0.079059056   0.08016824            6 
  717000    1.1319695    -3.507299    677.47602  0.078739658  0.080155142            2 
  718000    1.1504156   -3.5086335     682.0175  0.079157091  0.080142659            2 
  719000    1.1267991   -3.5020355    681.71981  0.079012495  0.080129591            2 
  720000    1.1634428   -3.5037057     684.4619  0.079220128  0.080115383            2 
  721000    1.1322203   -3.4929077    683.23544  0.078968497  0.080101997            4 
  722000    1.1420474   -3.4917728    686.00554  0.079178848  0.080088837            2 
  723000    1.1258969   -3.5263637    684.17735  0.078858616  0.080075914            1 
  724000    1.1311839   -3.5292037    684.43863  0.078779769  0.080061416            1 
  725000    1.1418535   -3.4906401    685.81811  0.078829668  0.080047314            3 
  726000    1.1476808   -3.5265049    684.88421   0.07861389  0.080032373            2 
  727000    1.1421173   -3.5220458    687.75897  0.078835278  0.080018935            4 
  728000    1.1341581   -3.5022367    689.11433  0.078882134  0.080004592            3 
  729000     1.126907   -3.5488886     688.3648  0.078688249  0.079990411            2 
  730000    1.1271425   -3.5009541    689.88957  0.078754518  0.079976738            2 
  731000    1.1561863   -3.5410661    688.05356  0.078437478  0.079962746            2 
  732000    1.1402591   -3.5460017    691.27119   0.07869663  0.079948469            4 
  733000    1.1348416   -3.4956862    691.26876   0.07858899  0.079933818            3 
  734000    1.1224496   -3.4900552    694.11034  0.078804535  0.079920419            2 
  735000     1.138786   -3.5438781    691.86096  0.078442285  0.079906296            3 
  736000    1.1401792   -3.4948198    695.47549  0.078744961  0.079892245            4 
  737000    1.1279227    -3.528431    695.73016  0.078666911   0.07987834            1 
  738000    1.1335089   -3.4882429    695.29609  0.078511302  0.079864077            3 
  739000    1.1425618   -3.5017035    694.85215  0.078355001  0.079848773            2 
  740000    1.1418251   -3.5101299    699.93746  0.078821786  0.079834379            1 
  741000    1.0981529   -3.5253074    699.76783  0.078696337  0.079819843            2 
  742000    1.1419182   -3.5060324    701.85798  0.078825021  0.079805327            1 
  743000    1.1541439   -3.5192571    703.87665  0.078945339  0.079791849            1 
  744000    1.1435095   -3.5225414    699.81932   0.07838478  0.079778543            2 
  745000    1.1354276   -3.5476415     700.5945  0.078366275  0.079764028            2 
  746000    1.1681475   -3.5215993     701.8241  0.078398582  0.079749717            3 
  747000    1.1416685   -3.5008649    702.07856  0.078322017  0.079735626            1 
  748000    1.1487667   -3.5201902    706.23511  0.078680382  0.079721558            3 
  749000    1.1121093   -3.5181761    705.27197  0.078468177  0.079708055            2 
  750000    1.1223774   -3.5330351    704.47779   0.07827531  0.079693489            4 
  751000    1.1428277   -3.5427278    706.65692  0.078412885  0.079678821            2 
  752000    1.1350082   -3.4963394    710.03292  0.078682726  0.079665032            1 
  753000    1.1564167   -3.5068693    710.35061  0.078613392    0.0796519            1 
  754000    1.1480182   -3.4917162    711.83287  0.078672952  0.079639306            2 
  755000    1.1282439   -3.5200899    712.59435  0.078652798  0.079626285            1 
  756000    1.1351403   -3.5543521    709.95011  0.078257287  0.079613576            2 
  757000    1.0955352   -3.5361002    714.14568  0.078615772  0.079600144            2 
  758000    1.1215631   -3.5313356    710.83922  0.078148551  0.079587651            2 
  759000    1.1603458   -3.5030133    715.64384  0.078573104  0.079575015            2 
  760000    1.1253868   -3.5313441    718.31545  0.078762659  0.079563456            2 
  761000    1.1349708   -3.5006656     720.2227  0.078868014  0.079550906            3 
  762000     1.113115   -3.5077335    720.26159  0.078768765  0.079539666            4 
  763000    1.1254569   -3.5143914    719.74052  0.078608619  0.079529578            4 
  764000    1.1148743   -3.5042026    722.44114  0.078800299  0.079519149            5 
  765000    1.1264731   -3.5339849    720.84557  0.078523482  0.079508141            1 
  766000     1.126108   -3.5280642    725.52038  0.078929545  0.079498182            1 
  767000    1.1160408   -3.5232363    724.27106  0.078690902  0.079486993            1 
  768000    1.1497563   -3.4833529    728.16831  0.079011318  0.079478077            2 
  769000    1.1156481   -3.5671057    726.91716   0.07877299  0.079469282            3 
  770000    1.1227028   -3.5459429    725.20359  0.078485237  0.079460021            1 
  771000    1.1345903   -3.5100515    731.00981  0.079011004  0.079450603            1 
  772000    1.1294437   -3.5275956     729.7123  0.078768598  0.079440839            2 
  773000    1.1210581   -3.4802785    730.17649  0.078716741  0.079431399            3 
  774000    1.1231714   -3.5003919    734.03614  0.079030593  0.079422734            3 
  775000      1.12232   -3.4996544    736.05523  0.079145723  0.079413458            2 
  776000    1.1119528   -3.5237623    732.71373  0.078684894  0.079404508            2 
  777000    1.1098075   -3.5053707    735.28972  0.078859901  0.079394991            2 
  778000    1.1338519   -3.5493028    734.64557  0.078689543  0.079385877            2 
  779000    1.1537941   -3.5280624    736.23618  0.078758685  0.079376679            1 
  780000    1.1412382   -3.4801294    741.89476  0.079262261  0.079368128            3 
  781000    1.1354383   -3.5163975    739.92026  0.078950091  0.079359335            2 
  782000    1.1184169   -3.5144549    740.05901  0.078863918  0.079351292            3 
  783000     1.145591   -3.5230639    738.89316  0.078639119  0.079343045            2 
  784000    1.1101705   -3.5148086    742.56721  0.078929338  0.079334778            2 
  785000    1.1659035   -3.5041068     742.4349  0.078814745  0.079326207            3 
  786000     1.135628   -3.5095265    746.90457  0.079188355   0.07931721            2 
  787000    1.1015003   -3.5314118    741.56736  0.078522592  0.079308935            2 
  788000    1.1165998     -3.52674    744.03089  0.078683469  0.079300812            3 
  789000     1.125786   -3.5303357     749.0261  0.079111332  0.079293092            1 
  790000     1.119321   -3.5477968    751.13751  0.079233915  0.079285198            1 
  791000    1.1339114   -3.5766325     746.6675  0.078662822  0.079277425            1 
  792000    1.1221762   -3.5382429    748.91436  0.078799911  0.079268525            1 
  793000     1.138927   -3.5186228    752.04259  0.079029276  0.079261088            3 
  794000    1.1343543   -3.5153813    752.47473  0.078975097  0.079253734            3 
  795000    1.1200982   -3.5290183    754.84017  0.079123708  0.079246952            1 
  796000    1.1145227   -3.4840414    757.35068  0.079287131  0.079239702            1 
  797000    1.1223845    -3.515293    753.96106  0.078833235  0.079233064            2 
  798000    1.1254869   -3.5180803    758.02092  0.079158408  0.079227277            1 
  799000    1.1197166   -3.5172302    753.68658  0.078607278   0.07921991            2 
  800000    1.1366219   -3.4932814    761.17273  0.079288826    0.0792147            2 
  801000     1.132338    -3.502561     758.4677  0.078908417  0.079209452            2 
  802000    1.1064795   -3.5014387    761.99156   0.07917618  0.079203285            2 
  803000     1.126066   -3.5418005    759.64943  0.078834519  0.079197575            4 
  804000     1.133978   -3.5180738     763.9662  0.079183893  0.079192196            3 
  805000    1.1250162   -3.5394137    762.29327  0.078912347  0.079185234            3 
  806000    1.1203006   -3.5123096    761.55036  0.078737631   0.07917874            3 
  807000    1.1054449   -3.5188398    765.65618  0.079064041  0.079172065            3 
  808000    1.1141258   -3.5226573    763.28266  0.078721396  0.079166057            1 
[...]
 4800000   0.47774815   -4.6291003    2100.9266   0.03647442  0.034925241           14 
 4801000   0.48066778   -4.6323074    2100.7452  0.036463673  0.034916284           19 
 4802000   0.48134216   -4.6418421    2105.2506  0.036534268  0.034907369           62 
 4803000   0.48409238   -4.6239086    2109.6665  0.036603277  0.034898455           28 
 4804000   0.48753321   -4.6437857    2097.7756   0.03638939  0.034889534           76 
 4805000   0.48188699   -4.6258942    2104.9327  0.036505943   0.03488061           39 
 4806000   0.48802054   -4.6221713    2100.1285  0.036415045  0.034871695           24 
 4807000   0.48728039   -4.6300231    2104.9443  0.036490956   0.03486276           15 
 4808000   0.48920929    -4.626896    2099.9998  0.036397667  0.034853863           15 
 4809000   0.48056445   -4.6350529    2098.5075  0.036364239  0.034844949           11 
 4810000   0.48764625   -4.6259883    2106.7209  0.036498977  0.034836044           27 
 4811000   0.48952513   -4.6191828    2104.7921  0.036457981  0.034827147           14 
 4812000   0.48044666   -4.6228856    2102.0671  0.036403213  0.034818263           12 
 4813000   0.48772904   -4.6270363    2101.7979  0.036390988  0.034809368           18 
 4814000   0.47661447   -4.6412065    2107.2599   0.03647798  0.034800488           47 
 4815000    0.4744976   -4.6431149    2101.2418  0.036366247   0.03479159           33 
 4816000   0.49032649   -4.6169188    2097.8758  0.036300453  0.034782693           43 
 4817000   0.47219764   -4.6386595    2101.1089   0.03634885  0.034773793           39 
 4818000   0.49089793     -4.64082    2106.6537  0.036437209  0.034764919           20 
 4819000   0.48304809   -4.6407182     2098.688    0.0362919  0.034756014           21 
 4820000   0.49113149   -4.6526784    2104.5441  0.036385618  0.034747115           12 
 4821000    0.4822374   -4.6610007    2106.8408  0.036417769  0.034738226           13 
 4822000   0.47942164     -4.62701    2100.7122  0.036304302  0.034729315           45 
 4823000   0.48236661   -4.6346817    2100.5797  0.036294486  0.034720414           22 
 4824000   0.47736709   -4.6303634    2102.8906  0.036326883  0.034711513           10 
 4825000   0.47537229   -4.6347665     2104.956  0.036355026  0.034702619           17 
 4826000   0.47873053   -4.6558677    2099.2179   0.03624841   0.03469376           24 
 4827000   0.48855089      -4.6458    2101.4791  0.036279938  0.034684862           31 
 4828000   0.48121471   -4.6297312    2106.0421  0.036351183  0.034675983           44 
 4829000   0.47346492   -4.6452782    2102.1569  0.036276609  0.034667085           19 
 4830000   0.47921377   -4.6582664    2101.0049  0.036249222  0.034658154           28 
 4831000   0.47696936   -4.6336223     2102.209  0.036262489  0.034649234           22 
 4832000   0.48062182   -4.6429901    2098.5651  0.036192141  0.034640334           16 
 4833000   0.47522202   -4.6488334    2104.3586  0.036284547  0.034631434           23 
 4834000   0.48825651     -4.65967    2104.0639  0.036271961  0.034622541           38 
 4835000   0.47787623   -4.6663503    2101.1931  0.036214979  0.034613638           23 
 4836000   0.48204267   -4.6584979    2105.0665  0.036274237  0.034604742           35 
 4837000   0.47187328   -4.6486881    2101.2029  0.036200174    0.0345959           18 
 4838000   0.47652737   -4.6378943    2099.7515  0.036167692  0.034587044           33 
 4839000   0.47464004   -4.6476914    2102.7102  0.036211169  0.034578193           31 
 4840000   0.49115183   -4.6397497    2100.2178  0.036160775  0.034569329           36 
 4841000    0.4761437   -4.6567906    2102.7757  0.036197338  0.034560476           25 
 4842000   0.46747076    -4.640409    2099.9314  0.036140909  0.034551611           17 
 4843000   0.48098962   -4.6419185    2100.2516  0.036138957   0.03454276           24 
 4844000   0.47192079   -4.6494456    2106.2553  0.036234781  0.034533882           27 
 4845000   0.47168086   -4.6491156    2100.9036  0.036135253  0.034525031           18 
 4846000   0.47142585   -4.6605651    2101.1816  0.036132577  0.034516172           28 
 4847000    0.4852651   -4.6626559    2097.0144  0.036053477  0.034507291           15 
 4848000   0.47775164   -4.6517876    2101.4269  0.036121887  0.034498425           38 
 4849000   0.48402717   -4.6557799    2100.6719  0.036101463   0.03448955           57 
 4850000   0.47850269   -4.6394045     2099.053  0.036066203  0.034480709           36 
 4851000    0.4762833   -4.6476067    2099.4112  0.036064921  0.034471878           34 
 4852000    0.4723295   -4.6435348    2102.9706  0.036118621  0.034463049           33 
 4853000   0.47251233   -4.6424433    2100.4889  0.036068563  0.034454214           50 
 4854000   0.46339524   -4.6583265    2099.4657  0.036043567  0.034445365           39 
 4855000   0.47418567   -4.6598371    2100.8041  0.036059115  0.034436519           29 
 4856000    0.4726556    -4.662432    2102.0297  0.036072722  0.034427674           30 
 4857000    0.4733627   -4.6572878    2099.8767  0.036028356  0.034418789           42 
 4858000   0.46887552   -4.6699743     2099.279  0.036010686  0.034409922           29 
 4859000   0.48649331   -4.6427299    2098.2155  0.035985037  0.034401085           17 
 4860000   0.47000769   -4.6466946    2101.8179  0.036039402  0.034392258           15 
 4861000   0.47463429   -4.6658174    2098.0705  0.035967745  0.034383437           18 
 4862000   0.47003373    -4.668054    2101.2881  0.036015496  0.034374585           16 
 4863000   0.46727072   -4.6533138    2101.1386  0.036005529  0.034365739           17 
 4864000   0.47834319    -4.651027    2105.6529  0.036075468   0.03435688           18 
 4865000   0.46681064   -4.6468538    2100.9176   0.03598694   0.03434804           41 
 4866000   0.46474536   -4.6596297    2100.5237  0.035972799  0.034339205           33 
 4867000   0.47899293   -4.6594137    2103.2416  0.036011945  0.034330397           11 
 4868000   0.47516553   -4.6574974    2102.0506  0.035984158  0.034321581           22 
 4869000   0.46593345   -4.6433492    2104.8445  0.036024585  0.034312756           15 
 4870000   0.47190092    -4.655276    2102.6814  0.035980175  0.034303943           16 
 4871000   0.47341284   -4.6641386    2102.1257  0.035963282   0.03429512           23 
 4872000   0.47327716   -4.6571537    2100.5099  0.035928261    0.0342863           26 
 4873000   0.48146929   -4.6814963    2098.4623  0.035885872  0.034277468           20 
 4874000   0.47799314   -4.6716199    2101.0328   0.03592246  0.034268646           37 
 4875000   0.46497055   -4.6780509    2100.8533  0.035912023  0.034259829           43 
 4876000    0.4733971   -4.6578862    2102.8704   0.03593913  0.034251005           44 
 4877000   0.47040326     -4.65407      2101.46  0.035907661  0.034242194           51 
 4878000   0.48115662   -4.6665643    2101.8953  0.035907737  0.034233408           37 
 4879000   0.47098891   -4.6529049    2104.2779  0.035941073   0.03422464           61 
 4880000   0.47670832   -4.6476421    2101.6436  0.035888723  0.034215865           45 
 4881000   0.47353023    -4.658799     2102.888  0.035902616  0.034207088          100 
 4882000   0.47447389   -4.6628174     2107.323  0.035970965   0.03419832           88 
 4883000   0.46175737   -4.6722544     2099.317  0.035826968  0.034189565          136 
 4884000    0.4786149      -4.6601    2101.9002  0.035863708  0.034180798          144 
 4885000   0.47291795   -4.6802731    2099.4039  0.035813782  0.034172005          125 
 4886000   0.46406901   -4.6742747      2096.64  0.035759312  0.034163211          141 
 4887000   0.46636999   -4.6646845     2102.863   0.03585811   0.03415439           98 
 4888000   0.48016494   -4.6650383    2099.1114  0.035786815  0.034145606           87 
 4889000     0.469378   -4.6663935    2098.1999  0.035763958  0.034136825          113 
 4890000   0.46026053    -4.671436    2096.3456  0.035725045  0.034128035          112 
 4891000   0.47441935   -4.6713307    2098.9073  0.035761386  0.034119262           88 
 4892000   0.45707304   -4.6852355    2101.4779  0.035797865  0.034110468          122 
 4893000   0.46925113   -4.6726057    2099.0148  0.035748601  0.034101683          138 
 4894000   0.46434402   -4.6681173    2102.8238  0.035806154  0.034092919          171 
 4895000   0.46585839   -4.6756644    2099.3724  0.035740082  0.034084138          124 
 4896000   0.46804883   -4.6756475    2096.7899  0.035688826   0.03407536          218 
 4897000   0.47382548   -4.6718104    2100.6644  0.035747472  0.034066581          240 
 4898000   0.47238984   -4.6842535    2098.7971  0.035708404  0.034057786           93 
 4899000   0.47169695   -4.6840274    2097.9012  0.035685874     0.034049          160 
 4900000   0.46986381   -4.6755767    2098.0126  0.035680487  0.034040192          137 
 4901000   0.45829873   -4.6716614    2100.9259  0.035722743  0.034031412          154 
 4902000   0.47029422    -4.675016    2096.8999  0.035647014  0.034022623           87 
 4903000   0.47311518   -4.6762971    2097.8106  0.035655222   0.03401385          138 
 4904000    0.4719616   -4.6826117    2095.6979   0.03561205   0.03400508          128 
 4905000   0.45783818   -4.6592058    2104.9637  0.035762211  0.033996339           62 
 4906000   0.46324271     -4.67456    2099.0923  0.035655189  0.033987596          102 
 4907000   0.47015471   -4.6677906     2103.095  0.035715898  0.033978844          109 
 4908000   0.46789006   -4.6707979    2098.2086  0.035625656  0.033970092           94 
 4909000   0.46724814   -4.6781207    2100.3897  0.035655424  0.033961307           90 
 4910000   0.45939421    -4.677349    2095.5564  0.035566131  0.033952539           76 
 4911000   0.46200589   -4.6577939    2102.7135  0.035680334  0.033943799           65 
 4912000   0.47050776   -4.6642598    2103.7363  0.035690423  0.033935067           88 
 4913000   0.46146758   -4.6644271    2098.6022  0.035596075  0.033926324           65 
 4914000   0.46854891   -4.6716699    2095.5203  0.035536567  0.033917593           75 
 4915000   0.46127326   -4.6479909    2099.9036  0.035603655  0.033908865           76 
 4916000   0.46843413   -4.6717936    2102.7292  0.035644311   0.03390014           76 
 4917000   0.46844453   -4.6608418    2097.5203  0.035548781  0.033891414           83 
 4918000   0.46057346   -4.6734789    2098.8302  0.035563749  0.033882687           93 
 4919000   0.45963869   -4.6793843    2096.4145  0.035515594  0.033873953           60 
 4920000   0.45372669   -4.6865005    2100.7473  0.035581763  0.033865205          110 
 4921000   0.44560289   -4.6807246    2096.7065  0.035506105  0.033856438           59 
 4922000   0.46798308   -4.6746863    2100.6293  0.035565307  0.033847687           63 
 4923000   0.45511783   -4.6929206    2098.0249  0.035513997  0.033838941           73 
 4924000   0.46185165   -4.6947521    2100.2207  0.035543946   0.03383017           80 
 4925000   0.46497857   -4.6776407    2102.8025  0.035580414  0.033821418           59 
 4926000   0.47233035   -4.6865691    2098.6169  0.035502384  0.033812665           66 
 4927000   0.45978018   -4.6795529    2101.0783  0.035536809  0.033803931           88 
 4928000   0.46794736   -4.6825908    2096.6513  0.035454736  0.033795182           65 
 4929000   0.46442025   -4.6937546    2096.2338  0.035440484  0.033786439           77 
 4930000   0.47628592   -4.6853434    2099.7915  0.035493432  0.033777708           88 
 4931000   0.46997968   -4.6719897    2099.2169  0.035476525  0.033768997           63 
 4932000   0.46275591   -4.6839061     2101.725  0.035511709  0.033760296           55 
 4933000    0.4543875   -4.6663397     2095.258  0.035395262  0.033751605           67 
 4934000   0.46550304   -4.6956322    2098.8281  0.035448386  0.033742891           69 
 4935000   0.44933686   -4.6801348    2100.1198  0.035463015  0.033734175           94 
 4936000   0.45496527   -4.6883282    2101.7883     0.035484  0.033725467           21 
 4937000   0.46227438   -4.6729555    2101.7943  0.035476913  0.033716795           92 
 4938000   0.46785023    -4.689555     2098.895  0.035420802  0.033708117           30 
 4939000   0.44879313   -4.6757449    2100.5065  0.035440819  0.033699452           47 
 4940000   0.46824803   -4.6865604     2099.175  0.035411184  0.033690758           42 
 4941000    0.4628539   -4.6796843    2100.3767  0.035424286  0.033682085           31 
 4942000   0.46049018   -4.6780951    2101.3397  0.035433354  0.033673437           44 
 4943000   0.46216828   -4.6804393    2105.0958   0.03548951  0.033664788           45 
 4944000   0.45227216   -4.6783043    2099.1298  0.035381773  0.033656126           48 
 4945000   0.46184664   -4.6853264     2099.503  0.035380907  0.033647439           32 
 4946000   0.45674721   -4.6755626    2101.8532   0.03541335  0.033638756           20 
 4947000    0.4567207   -4.6728283    2103.1175   0.03542749  0.033630086           27 
 4948000   0.45472564   -4.6802632    2098.6678  0.035345388  0.033621414           45 
 4949000   0.46155858   -4.6938699    2097.7628  0.035323008  0.033612742           73 
 4950000   0.46237224   -4.6728178    2101.0618   0.03537141  0.033604062           20 
 4951000    0.4570241     -4.68199    2104.2041  0.035417157  0.033595428           37 
 4952000   0.46880127   -4.6836948    2100.0783  0.035340574  0.033586793           28 
 4953000   0.45329479   -4.6734134    2098.9237  0.035314014  0.033578131           53 
 4954000   0.45959016   -4.6825577    2097.0711  0.035275722  0.033569475           75 
 4955000   0.44962276   -4.6887453    2100.1047  0.035319622  0.033560828           69 
 4956000   0.46045008   -4.6900306    2099.9727  0.035310275  0.033552183           96 
 4957000   0.45757056   -4.6944073    2102.0574  0.035338198  0.033543541           42 
 4958000   0.46394506   -4.6842013    2101.3027  0.035318385  0.033534885           42 
 4959000   0.45559629   -4.6829429    2099.2037  0.035275992  0.033526236           22 
 4960000   0.45289648   -4.6864092    2099.6898  0.035277046  0.033517586           45 
 4961000   0.46647029   -4.6929404    2097.3155  0.035230052  0.033508923           27 
 4962000   0.45676587   -4.6851169    2102.9804  0.035318091  0.033500275           31 
 4963000   0.46248526   -4.6893807    2102.4736  0.035302464  0.033491655           36 
 4964000   0.46117305   -4.6870865    2093.0861  0.035137761  0.033483023           37 
 4965000   0.46617102   -4.6792029    2098.4724  0.035221088  0.033474385           39 
 4966000   0.46646247    -4.688322    2098.5387  0.035215108  0.033465748           36 
 4967000   0.46543224   -4.6889737    2101.9522  0.035265287  0.033457097           18 
 4968000   0.46184599   -4.6828231    2100.0361  0.035226049  0.033448477           33 
 4969000   0.45411335   -4.6692708    2102.2389  0.035255901  0.033439869           18 
 4970000   0.44957601   -4.6895076    2097.3041  0.035166065  0.033431265           41 
 4971000   0.44870164   -4.6879976    2100.0772  0.035205478  0.033422658           42 
 4972000   0.45563188   -4.6886667    2100.1755  0.035200046  0.033414048           41 
 4973000   0.45063607   -4.6877693     2095.525  0.035115037  0.033405421           64 
 4974000   0.45196561   -4.6857452    2098.1644  0.035152198    0.0333968           60 
 4975000   0.45611121   -4.6973693    2100.4255  0.035183007  0.033388178           50 
 4976000   0.46352473   -4.6769731    2103.2259  0.035222835  0.033379561           53 
 4977000   0.45626149   -4.6845967    2098.6527  0.035139185  0.033370935           47 
 4978000   0.45767095   -4.6881542     2097.658  0.035115475  0.033362292           40 
 4979000   0.44623395   -4.7144596     2097.641  0.035108138  0.033353665           50 
 4980000   0.44769284   -4.6961421     2100.785  0.035153698  0.033345024           41 
 4981000   0.45869519   -4.6930301     2095.848  0.035064043  0.033336405           40 
 4982000   0.45328442   -4.6877918    2101.4456  0.035150636  0.033327777           17 
 4983000   0.45942037    -4.704275    2096.9881  0.035069037  0.033319173           12 
 4984000   0.45515852   -4.7036988    2098.4326  0.035086152  0.033310546           17 
 4985000   0.45294748   -4.6745198    2098.2248  0.035075641  0.033301939           21 
 4986000   0.45856167    -4.700893    2096.8296  0.035045286  0.033293329           32 
 4987000   0.44439588   -4.6971839    2097.0448  0.035041856  0.033284709           30 
 4988000   0.45977035   -4.6939332    2092.6826  0.034961952  0.033276079           73 
 4989000   0.45577665   -4.7274877    2097.8553  0.035041346  0.033267463           45 
 4990000    0.4494649   -4.6916199    2099.0369  0.035054057  0.033258858           65 
 4991000   0.45183046   -4.6957036    2097.9312  0.035028571  0.033250249           42 
 4992000   0.45495751   -4.7042093    2091.5704  0.034915372  0.033241622           44 
 4993000   0.44950681   -4.7029431    2098.5689  0.035025183  0.033233003           48 
 4994000   0.45667423   -4.6950939    2098.1881  0.035011816  0.033224388           70 
 4995000   0.46517102   -4.7139406    2100.1844  0.035038111  0.033215762          108 
 4996000    0.4541846   -4.7120415    2101.9213   0.03506007  0.033207122          133 
 4997000   0.44720982   -4.7064869     2094.373  0.034927173   0.03319849           74 
 4998000   0.44785925   -4.6969103    2095.3916  0.034937169  0.033189847           88 
 4999000   0.44933631   -4.6947293    2096.3516  0.034946183  0.033181222          110 
 5000000   0.43815958    -4.720339    2095.7174  0.034928623  0.033172587          119 
 5001000   0.44451691    -4.708437    2100.4982  0.035001303  0.033163943          249 
 5002000   0.45483409   -4.7041624    2091.4532  0.034843615  0.033155309          253 
 5003000   0.45288671   -4.7218128    2098.0387  0.034946344  0.033146666          230 
 5004000   0.45429235   -4.7024144    2099.8781  0.034969992  0.033138041          204 
 5005000   0.44802896   -4.7079591    2095.9004  0.034896776   0.03312942          250 
 5006000   0.45675464   -4.7179213    2095.7328  0.034887015  0.033120832          228 
 5007000   0.45786087   -4.7188214     2096.323  0.034889871   0.03311223          309 
 5008000   0.44520635   -4.7145658    2097.8862  0.034908916  0.033103626          279 
 5009000   0.45086478   -4.7297187    2094.1287  0.034839435  0.033095019          308 
 5010000   0.44765294    -4.722415    2092.9341   0.03481261  0.033086374          274 
 5011000   0.45133458   -4.7215966     2094.916  0.034838622   0.03307775          322 
 5012000   0.45131373   -4.7327788    2096.6087  0.034859815  0.033069116          391 
Loop time of 12371.4 on 48 procs for 5000000 steps with 4000 atoms

Performance: 69838.539 tau/day, 404.158 timesteps/s
99.4% CPU use with 48 MPI tasks x no OpenMP threads

MPI task timing breakdown:
Section |  min time  |  avg time  |  max time  |%varavg| %total
---------------------------------------------------------------
Pair    | 854.63     | 914.94     | 993.44     | 114.6 |  7.40
Neigh   | 83.135     | 86.618     | 90.305     |  18.4 |  0.70
Comm    | 784.62     | 861.47     | 934.99     | 120.9 |  6.96
Output  | 19.671     | 19.675     | 19.757     |   0.3 |  0.16
Modify  | 10352      | 10377      | 10406      |  12.9 | 83.88
Other   |            | 111.7      |            |       |  0.90

Nlocal:        83.3333 ave          89 max          78 min
Histogram: 3 7 5 7 4 5 0 9 5 3
Nghost:        2260.90 ave        2278 max        2241 min
Histogram: 2 2 3 4 10 8 6 5 7 1
Neighs:        15203.2 ave       17074 max       13290 min
Histogram: 1 2 3 8 13 6 7 4 1 3
FullNghs:      30405.9 ave       32903 max       28226 min
Histogram: 3 6 4 11 3 4 4 9 2 2

Total # of neighbors = 1459485
Ave neighs/atom = 364.87125
Neighbor list builds = 270293
Dangerous builds = 0

#clear
#
#next RN
#
#jump SELF
Total wall time: 3:26:14
