
units lj                  # Use reduced LJ style units
atom_style atomic         # Uncharged point particles
atom_modify map hash      # Needed for indexing of clusters etc
                          # Used to be able to find where atoms are in relation to each other.

lattice fcc 1.0 spacing 1 1 1
Lattice spacing in x,y,z = 1.5874011 1.5874011 1.5874011
region box block 0 10 0 10 0 10 units lattice
create_box 2 box
Created orthogonal box = (0.0000000 0.0000000 0.0000000) to (15.874011 15.874011 15.874011)
  3 by 4 by 4 MPI processor grid
create_atoms 1 box
Created 4000 atoms
  using lattice units in orthogonal box = (0.0000000 0.0000000 0.0000000) to (15.874011 15.874011 15.874011)
  create_atoms CPU = 0.002 seconds
set type 1 type/fraction 2 0.75 78393
Setting atom values ...
  3002 settings made for type/fraction
mass 1 1.0
mass 2 1.0
pair_style lj/cut  3.5
pair_modify tail  yes
pair_coeff 1  1  1.0  1.0   # Intearaction between 1 and 1 set with epsilon = 1 and sigma = 1
pair_coeff 1  2  1.5  0.8
pair_coeff 2  2  0.5  0.88

write_data data.0
System init for write_data ...
Neighbor list info ...
  update every 1 steps, delay 10 steps, check yes
  max neighbors/atom: 2000, page size: 100000
  master list distance cutoff = 3.8
  ghost atom cutoff = 3.8
  binsize = 1.9, bins = 9 9 9
  1 neighbor lists, perpetual/occasional/extra = 1 0 0
  (1) pair lj/cut, perpetual
      attributes: half, newton on
      pair build: half/bin/atomonly/newton
      stencil: half/bin/3d
      bin: standard
WARNING: Not all mixed pair coeffs generated from mixing. Use write_data with 'pair ij' option to store all pair coeffs. (../write_data.cpp:312)


#############################
#   M E L T   S Y S T E M   #
#############################

velocity all create 2.4 6583654 mom yes dist gaussian # Assign velocities
                                                    # Temperature 2.4, random number seed, zero linear momentum
                                                                                # Gaussian distribution

timestep 0.002   # simulation timestep
thermo 1000       # output thermodynamic data every 1000 steps bf 100

# Define a fix  in this case with index 1 applied to all
# particles in the simulation. This fix is for simulations
# in the anisotropic NPT ensemble. Note that we use the MTK
# correction.
fix 1 all npt temp 2.4 2.4 0.1 iso 5.68 5.68 0.5 mtk yes tchain 5 pchain 5 # Use NPT ensemble
                                                                         # Set temperature and pressure and damping
                                                                         # Numbers of thermostats in chain and in barostat
run 10000          # run for 10000 steps
Per MPI rank memory allocation (min/avg/max) = 3.642 | 3.644 | 3.648 Mbytes
Step Temp E_pair E_mol TotEng Press Volume 
       0          2.4    -3.937065            0  -0.33796495   -3.5201857         4000 
    1000    2.3797952   -3.4360114            0     0.132789    5.5786665    3723.8866 
    2000    2.3875813   -3.4270362            0   0.15344037    5.7113256    3725.1838 
    3000    2.3952695   -3.4092014            0   0.18280468    5.7506095    3716.3706 
    4000     2.385421   -3.4722594            0   0.10497762    5.6644452    3686.5929 
    5000     2.467368   -3.3949925            0   0.30513423    5.8867724    3719.8269 
    6000    2.4228803   -3.4030944            0   0.23031742    6.0378772    3693.9553 
    7000    2.4170993   -3.4387609            0    0.1859817    5.7214307    3713.9052 
    8000    2.3439258   -3.4463947            0  0.068615002    5.7251955    3706.2596 
    9000    2.3624762   -3.4564669            0  0.086361581    5.6880023    3697.8753 
   10000    2.4119772   -3.4945693            0   0.12249197     5.534381     3699.399 
Loop time of 2.86267 on 48 procs for 10000 steps with 4000 atoms

Performance: 603631.520 tau/day, 3493.238 timesteps/s
99.4% CPU use with 48 MPI tasks x no OpenMP threads

MPI task timing breakdown:
Section |  min time  |  avg time  |  max time  |%varavg| %total
---------------------------------------------------------------
Pair    | 1.1878     | 1.2391     | 1.318      |   2.6 | 43.28
Neigh   | 0.21479    | 0.22252    | 0.23989    |   0.9 |  7.77
Comm    | 0.87527    | 0.93571    | 0.99786    |   3.9 | 32.69
Output  | 0.00025999 | 0.00026659 | 0.00035037 |   0.0 |  0.01
Modify  | 0.40899    | 0.44931    | 0.49906    |   4.0 | 15.70
Other   |            | 0.01577    |            |       |  0.55

Nlocal:        83.3333 ave          96 max          70 min
Histogram: 1 1 1 12 7 13 6 2 3 2
Nghost:        1732.40 ave        1766 max        1713 min
Histogram: 7 5 6 12 7 4 3 2 1 1
Neighs:        10321.8 ave       12168 max        8731 min
Histogram: 1 3 7 10 7 8 4 4 2 2

Total # of neighbors = 495447
Ave neighs/atom = 123.86175
Neighbor list builds = 908
Dangerous builds = 219

# Equilibrate just above the melting temperature to avoid step fn in T

fix 1 all npt temp 1.25 1.25 0.1 iso 5.68 5.68 0.5 mtk yes tchain 5 pchain 5
run 2000
Per MPI rank memory allocation (min/avg/max) = 3.644 | 3.646 | 3.649 Mbytes
Step Temp E_pair E_mol TotEng Press Volume 
   10000    2.4119772   -3.4945693            0   0.12249197     5.534381     3699.399 
   11000    1.2550514   -5.0994741            0   -3.2173677    5.5979392    2835.5364 
   12000    1.2527554   -5.1079511            0   -3.2292878    5.7656295     2826.053 
Loop time of 0.645252 on 48 procs for 2000 steps with 4000 atoms

Performance: 535604.496 tau/day, 3099.563 timesteps/s
99.6% CPU use with 48 MPI tasks x no OpenMP threads

MPI task timing breakdown:
Section |  min time  |  avg time  |  max time  |%varavg| %total
---------------------------------------------------------------
Pair    | 0.29387    | 0.31646    | 0.33934    |   2.1 | 49.04
Neigh   | 0.041128   | 0.043592   | 0.046007   |   0.7 |  6.76
Comm    | 0.21124    | 0.23486    | 0.26075    |   2.8 | 36.40
Output  | 5.3311e-05 | 5.4887e-05 | 7.2244e-05 |   0.0 |  0.01
Modify  | 0.042389   | 0.045445   | 0.048501   |   0.9 |  7.04
Other   |            | 0.004844   |            |       |  0.75

Nlocal:        83.3333 ave          91 max          78 min
Histogram: 6 5 6 12 5 2 4 2 3 3
Nghost:        2082.35 ave        2102 max        2064 min
Histogram: 2 1 7 8 9 10 3 1 3 4
Neighs:        13509.9 ave       15067 max       12316 min
Histogram: 4 6 5 6 10 5 4 5 1 2

Total # of neighbors = 648475
Ave neighs/atom = 162.11875
Neighbor list builds = 144
Dangerous builds = 11

#############################
# L I N E A R  Q U E N C H  #
#############################

# Define solid atoms. This closely follows ten Wolde  Ruiz-Montero and Frenkel  Faraday Discuss  1996  104  93-110
# Compute components of the per-atom q6 vector
compute q6 all orientorder/atom degrees 1 6 components 6 nnn NULL cutoff 1.3 # compute the Q6 parameter.
                                                                             # Use all neighbours within 1.3 unit cell.

# get number of connections
compute coord_number all coord/atom orientorder q6 0.5

# An atom is solid if it has 8 or more connections (of a possible 14)
variable is_solid atom c_coord_number>=8
group solid dynamic all var is_solid    # Must be dynamic to update
dynamic group solid defined

# do clustering
compute cluster solid cluster/atom 1.3 # Create a cluster where all atoms within are solid and max 1.3 units from another member

# define chunks one chunk per cluster
compute clus_chunks solid chunk/atom c_cluster nchunk every compress yes  # Says which atoms are in which chunk

# count the size of each chunk
compute size_chunks solid property/chunk clus_chunks count


# Find the maximum entry in the vector of chunk sizes
variable max_n equal max(c_size_chunks)


# Thermo style which includes this variable
# thermo_style custom step temp pe vol v_max_n

thermo ${N}  # Print the thermo information every 100 steps
thermo 1000  

# Reset the npt fix at a lower temperature (below freezing)
fix 1  all npt temp  ${temp} ${temp}  0.1  iso  5.68  5.68  0.5  mtk yes tchain  5  pchain  5
fix 1  all npt temp  0.45 ${temp}  0.1  iso  5.68  5.68  0.5  mtk yes tchain  5  pchain  5
fix 1  all npt temp  0.45 0.45  0.1  iso  5.68  5.68  0.5  mtk yes tchain  5  pchain  5

dump dmp2 all dcd ${N} traj.dcd
dump dmp2 all dcd 1000 traj.dcd


compute msd all msd com yes
variable twopoint equal c_msd[4]/6/(step*dt+1.0e-6)
fix 9 all vector 10 c_msd[4]
variable fit equal slope(f_9)/6/(10*dt)
thermo_style custom step temp pe c_msd[4] v_twopoint v_fit v_max_n

fix 1 all npt temp 1.25 ${temp} 0.1 iso 5.68 5.68 0.5 mtk yes tchain 5 pchain 5
fix 1 all npt temp 1.25 0.45 0.1 iso 5.68 5.68 0.5 mtk yes tchain 5 pchain 5
run 500000 # 5000000  # Run for this many steps
Neighbor list info ...
  update every 1 steps, delay 10 steps, check yes
  max neighbors/atom: 2000, page size: 100000
  master list distance cutoff = 3.8
  ghost atom cutoff = 3.8
  binsize = 1.9, bins = 8 8 8
  4 neighbor lists, perpetual/occasional/extra = 1 3 0
  (1) pair lj/cut, perpetual
      attributes: half, newton on
      pair build: half/bin/atomonly/newton
      stencil: half/bin/3d
      bin: standard
  (2) compute orientorder/atom, occasional
      attributes: full, newton on
      pair build: full/bin/atomonly
      stencil: full/bin/3d
      bin: standard
  (3) compute coord/atom, occasional
      attributes: full, newton on
      pair build: full/bin/atomonly
      stencil: full/bin/3d
      bin: standard
  (4) compute cluster/atom, occasional
      attributes: full, newton on
      pair build: full/bin/atomonly
      stencil: full/bin/3d
      bin: standard
Per MPI rank memory allocation (min/avg/max) = 9.843 | 9.847 | 9.853 Mbytes
Step Temp PotEng c_msd[4] v_twopoint v_fit v_max_n 
   12000    1.2527554   -5.1079511 8.3500927e-31 5.7986752e-33 8.3333333e+20            1 
   13000    1.2758201   -5.1132118   0.67374351 0.0043188685  0.056677853            1 
   14000    1.2590063   -5.1072821     1.349967 0.0080355177  0.056091617            1 
   15000    1.2282685   -5.0741687    2.0295358  0.011275199  0.056294518            3 
   16000    1.2655481   -5.0928481    2.8014958  0.014591124  0.057681088            3 
   17000    1.2385453   -5.0917586    3.4278516  0.016803194  0.057528478            3 
   18000    1.2543336   -5.1400043    4.1337345  0.019137659  0.057425123            3 
   19000    1.2491339   -5.0940017    4.8512754  0.021277523  0.057671855            3 
   20000    1.2113505   -5.1490383    5.5076429  0.022948512  0.057692322            2 
   21000    1.2292409   -5.1215661    6.2318212  0.024729449  0.057721997            3 
   22000    1.2485469   -5.1651634    6.8703815  0.026024172  0.057521955            1 
   23000    1.2295894   -5.1466171    7.6006495  0.027538585  0.057448836            2 
   24000    1.2425769     -5.11468    8.3008441  0.028822375   0.05757364            2 
   25000    1.2161369   -5.1602605    9.0576377  0.030192125  0.057812879            3 
   26000     1.272369   -5.0961488    9.7084895  0.031116953   0.05790782            3 
   27000    1.2069176   -5.1122809    10.296745  0.031780075  0.057810319            2 
   28000    1.1772075   -5.1394462    10.835649  0.032248955  0.057538823            1 
   29000    1.2565375   -5.1317708    11.494171  0.033029227  0.057215313            2 
   30000    1.2077898   -5.1767391    12.058211  0.033495029  0.056843819            2 
   31000    1.2412317   -5.1726578    12.809712  0.034434709  0.056559165            6 
   32000    1.2286802   -5.1419779    13.514676  0.035194467  0.056388975            2 
   33000    1.2185198   -5.1986502    14.135287  0.035695169  0.056230809            2 
   34000     1.219028   -5.1980997    14.631782  0.035862211  0.056011914            3 
   35000    1.2419854     -5.15933     15.28905  0.036402499    0.0557588            2 
   36000     1.199605    -5.159418    15.989044  0.037011676  0.055592777            5 
   37000    1.2009027   -5.1598745    16.626078  0.037446121  0.055438305            3 
   38000    1.2019345   -5.1446235    17.403642  0.038165882  0.055310754            1 
   39000    1.2068496     -5.15217    18.143705    0.0387686  0.055255645            4 
   40000    1.2044311   -5.1729934    18.584279  0.038717248  0.055175578            2 
   41000    1.2214537   -5.1707264    19.184605  0.038993099  0.055062594            3 
   42000     1.193898   -5.1958059    19.768238  0.039222695  0.054916788            3 
   43000    1.2077748   -5.2102446    20.411708  0.039557574  0.054812483            2 
   44000    1.2160957   -5.2017371    20.998258  0.039769427  0.054675451            6 
   45000    1.2085137   -5.2218144    21.654888  0.040101644  0.054567187            3 
   46000    1.1692122   -5.2510069    22.098008  0.040032624  0.054446366            2 
   47000    1.1897162   -5.2348416    22.672944  0.040200255  0.054284913            2 
   48000    1.1938295   -5.2292915     23.16947  0.040224774  0.054111372            3 
   49000    1.1728642   -5.2428681    23.782062  0.040445683  0.053939285            5 
   50000    1.1836185   -5.2462965    24.319528  0.040532546  0.053742749            3 
   51000    1.1866239   -5.2249128    24.729139   0.04040709  0.053513533            4 
   52000    1.1836373   -5.2218813    25.251886  0.040467766  0.053301905            2 
   53000    1.1775061   -5.2356506    25.790845  0.040551642   0.05306312            4 
   54000     1.217679   -5.2251683     26.29853  0.040584151  0.052821278            4 
   55000    1.1759466   -5.2097672    26.808264  0.040618582  0.052570331            2 
   56000    1.1723137   -5.2572296    27.194402  0.040467859  0.052327499            5 
   57000    1.1739499   -5.2313606    27.931828  0.040836006  0.052096271            4 
   58000    1.1355772    -5.263414    28.356236  0.040741718  0.051879736            4 
   59000     1.151679   -5.2639335    28.919417  0.040846634  0.051672364            3 
   60000    1.1584164   -5.2827673    29.404206  0.040839174  0.051469767            3 
   61000    1.1744205   -5.1858866    30.171822  0.041218335   0.05127004            1 
   62000    1.1488684   -5.2555802    30.867305  0.041488313  0.051105661            3 
   63000     1.162492   -5.3030782    31.324248  0.041434191  0.050975912            2 
   64000    1.1756617   -5.2689408    31.934567  0.041581468  0.050861311            4 
   65000    1.1689329   -5.2579219    32.490623  0.041654645   0.05074571            6 
   66000    1.1464854   -5.2708095    33.162967  0.041872432  0.050641757            5 
   67000    1.1876106   -5.2719644    33.591053  0.041779917  0.050531823            2 
   68000    1.1629179   -5.2192399    34.309725  0.042046231  0.050433915            2 
   69000    1.1322413   -5.3127713     34.68831  0.041894094  0.050332029            1 
   70000    1.1543542   -5.2800924    35.264594   0.04198166  0.050209933            3 
   71000    1.1482972   -5.2832399    35.605461  0.041790447  0.050091665            2 
   72000    1.1434693   -5.2734197    36.239609  0.041943992  0.049968127            2 
   73000    1.1610721   -5.2944531    36.734764  0.041934662  0.049856147            5 
   74000    1.1158037   -5.3373006    37.260784  0.041960343  0.049740458            2 
   75000    1.1391953   -5.2970283     37.71476  0.041905289  0.049627656            3 
   76000    1.1581385   -5.2874887    38.104771  0.041781547  0.049513545            2 
   77000    1.1666151   -5.2942802    39.131377  0.042349975  0.049406996            3 
   78000     1.146068   -5.3132537    39.778311  0.042498196  0.049335484            5 
   79000    1.1600211   -5.2829028    40.464011  0.042683556  0.049267803            2 
   80000     1.128767   -5.3172823    40.636986  0.042330193  0.049202243            2 
   81000    1.1467479   -5.3498338    41.266489  0.042455235  0.049128159            3 
   82000    1.1413784   -5.2901248    42.146631  0.042831941  0.049070719            3 
   83000    1.1194758   -5.2815876    42.769458  0.042941223  0.049030628            4 
   84000    1.1186565   -5.3055194    43.261285  0.042917941  0.048993889            2 
   85000    1.1265358   -5.3354994     43.49605  0.042643186  0.048939211            3 
   86000    1.1360808   -5.3106619    44.061774  0.042695517  0.048868337            3 
   87000    1.1114053   -5.3397589    44.530047  0.042653301  0.048795366            1 
   88000    1.1230043   -5.3705834    44.873814  0.042494142  0.048720137            3 
   89000    1.1093077   -5.3483402    45.487913  0.042591678   0.04864501            4 
   90000    1.1278525   -5.3591836    45.866088    0.0424686  0.048559795            3 
   91000    1.1287633   -5.3406888    46.150782   0.04226262  0.048468982            3 
   92000    1.1111149   -5.3286864    46.863249  0.042448595  0.048380076            3 
   93000    1.1295868   -5.3657623    47.261618   0.04234912  0.048289668            2 
   94000    1.1368632   -5.3856199     47.80083  0.042376622  0.048202442            2 
   95000    1.1165127    -5.344248    48.087768  0.042182252  0.048103589            6 
   96000    1.1085596   -5.3594716    48.666443  0.042245176  0.048004362            3 
   97000    1.1119691   -5.3407466    49.321306  0.042372256  0.047917322            2 
   98000    1.1313957   -5.3610223    49.657948  0.042226146  0.047825747            2 
   99000     1.107502   -5.3816363    50.209922  0.042264244  0.047731797            4 
  100000    1.1150221   -5.3985967    50.740329  0.042283607  0.047641122            3 
  101000     1.108608   -5.3608686    51.539047  0.042523966  0.047554384            1 
  102000    1.1063179   -5.3944445     51.67613   0.04221906  0.047469606            4 
  103000    1.1119712   -5.4026327     51.97336  0.042049643  0.047385183            4 
  104000    1.1230133   -5.3901243    52.783857  0.042294757  0.047295158            1 
  105000    1.0831264   -5.4220682    53.066613  0.042116359  0.047211428            2 
  106000    1.1267896   -5.4061442    53.877879  0.042356823  0.047129764            3 
  107000    1.0945527    -5.403611    54.058559  0.042101682  0.047055355            4 
  108000    1.0567903   -5.3889367    54.666295  0.042180783  0.046974616            2 
  109000    1.1028794     -5.36809    55.216388  0.042214364   0.04689379            2 
  110000    1.0831366   -5.3990234     55.57034  0.042098742  0.046813467            3 
  111000    1.1011348   -5.4249418    56.197558  0.042190358  0.046734254            5 
  112000    1.1004607   -5.3986457    56.821223  0.042277696  0.046655186            3 
  113000    1.1001957   -5.3975616    57.345365  0.042290092  0.046585788            4 
  114000    1.0825222   -5.4454813    57.426768  0.041978631  0.046515553            3 
  115000    1.0675093   -5.4233591    58.022892  0.042045574  0.046445479            3 
  116000    1.0577329   -5.4277595    58.691077   0.04216313  0.046373103            2 
  117000    1.0977886   -5.3853065    59.148415    0.0421285  0.046303745            4 
  118000    1.0589435   -5.4255422    59.560615  0.042062581   0.04623039            6 
  119000    1.0972972   -5.4492877    59.743456  0.041837154  0.046151402            3 
  120000    1.0904093   -5.4395055    60.148897  0.041770067  0.046071074            3 
  121000    1.0591633   -5.4668081    60.435258  0.041622078   0.04598544            6 
  122000    1.0492515   -5.4619318     61.06413  0.041710471  0.045899432            2 
  123000    1.0957175   -5.4385306    61.438545   0.04162503  0.045809143            3 
  124000    1.0651221   -5.4673738    61.678704  0.041450741  0.045720563            2 
  125000    1.0752232   -5.4656549    61.958015  0.041305343  0.045628473            4 
  126000    1.0523243    -5.467661    62.387092  0.041261304  0.045531458            3 
  127000    1.0665901   -5.4638518    62.494228  0.041006711  0.045431235            3 
  128000    1.0659766   -5.4511636    63.113257   0.04108936  0.045330862            3 
  129000    1.0652092   -5.4528378    63.710713  0.041156791  0.045231179            2 
  130000    1.0546458   -5.4838964    63.920463  0.040974656  0.045131294            2 
  131000    1.0614648   -5.5008527    64.581754  0.041082541  0.045037938            5 
  132000    1.0556517    -5.456899    64.839242  0.040933865  0.044949728            4 
  133000    1.0483383   -5.4950213    65.360831  0.040952901  0.044856017            3 
  134000    1.0500011   -5.4698672    66.043438   0.04107179  0.044766125            3 
  135000    1.0558788   -5.4777241    66.279827  0.040913473  0.044680089            2 
  136000    1.0764877   -5.4977096    66.755562  0.040904143  0.044590225            2 
  137000    1.0365886   -5.5394579    67.004225  0.040756828  0.044498259            3 
  138000    1.0477862    -5.512243    67.456741  0.040734747  0.044403823            2 
  139000    1.0250707   -5.4948592    67.643971  0.040553939  0.044308758            5 
  140000    1.0416848   -5.5181274    67.914789  0.040425469  0.044211888            3 
  141000    1.0299717    -5.502717    68.210074  0.040313283  0.044111862            3 
  142000    1.0460865   -5.5205208    68.766861  0.040356139  0.044011734            3 
  143000     1.036729   -5.5750215    69.091474  0.040263096  0.043914317            3 
  144000    1.0184292   -5.5138954    69.512519  0.040227152   0.04381688            3 
  145000    1.0150501    -5.566752    69.875562  0.040158369  0.043721557            4 
  146000    1.0313376   -5.4943721    70.708759  0.040358881  0.043630925            3 
  147000    1.0435212   -5.5182035      70.7294  0.040096032   0.04353918            3 
  148000    1.0478634   -5.5539483    71.097536  0.040032396  0.043443989            5 
  149000    1.0318012   -5.5677147    71.374574  0.039918665  0.043348575            3 
  150000    1.0262675   -5.5691084    71.960189  0.039977883  0.043256748            7 
  151000    1.0118586   -5.5712932    72.323802  0.039913798  0.043168143            3 
  152000    1.0402806   -5.5654209     72.68645  0.039850027  0.043078962            3 
  153000    1.0213558   -5.5880948    72.942217  0.039728876  0.042987926            7 
  154000    1.0076481   -5.6027687    73.326404   0.03967879  0.042892224            3 
  155000    1.0393207    -5.587825    73.776421  0.039664742   0.04280219            2 
  156000    1.0326613   -5.5782559    73.785885  0.039415536  0.042708382            5 
  157000    1.0232661   -5.5689739    74.574315  0.039582969  0.042612306            2 
  158000    1.0096549   -5.5678425    74.750247  0.039425235  0.042517991            3 
  159000     1.002395   -5.5773527     74.97988  0.039297631  0.042423508            6 
  160000   0.97418086   -5.6107459    75.060382  0.039093949  0.042327352            5 
  161000    1.0043318   -5.5756313    75.702559  0.039183519  0.042227602            4 
  162000    1.0208882   -5.5393019    75.950549  0.039069212  0.042131316            3 
  163000   0.99832964   -5.5441444    76.498915  0.039109875  0.042036453            6 
  164000    1.0208768   -5.5832091    76.954981  0.039103141  0.041945655            5 
  165000    1.0004923   -5.5602183    77.532315  0.039157735  0.041857351            3 
  166000   0.98094748   -5.6266004    77.587386  0.038949491   0.04176915            5 
  167000    1.0358335    -5.614119    77.807151  0.038825923  0.041679513            6 
  168000    1.0124711   -5.5982469    78.407019   0.03889237   0.04159133            6 
  169000    1.0006055   -5.6500655    78.493175  0.038704721  0.041501568            6 
  170000    1.0034739   -5.6499581    78.932404  0.038692355  0.041410378           11 
  171000   0.98460286   -5.6016545      79.3078  0.038649025   0.04131979            4 
  172000   0.99226777   -5.5981556    79.715414  0.038621809  0.041231737            6 
  173000   0.99669437   -5.6220189    79.832361  0.038454894  0.041143114            4 
  174000   0.99266803   -5.6136362    80.290391  0.038453252  0.041057206            4 
  175000    1.0144674   -5.6283729     81.07543  0.038607348  0.040971957            4 
  176000     0.996324   -5.6461259    80.801699   0.03825838  0.040885971            4 
  177000   0.97189704   -5.6299576     81.48381  0.038363376  0.040798675            4 
  178000   0.98890525   -5.6094546    82.211048  0.038488318  0.040717084            5 
  179000   0.96763199   -5.6486269    82.118858  0.038230381   0.04063646            3 
  180000   0.99733699   -5.6814262    82.204502   0.03805764  0.040554221            3 
  181000   0.97633271   -5.6419731    83.224339  0.038316915  0.040471985            3 
  182000   0.98160936   -5.6883403    82.734605  0.037882145  0.040389812            4 
  183000   0.98902163   -5.6627464     83.39469  0.037975724  0.040304017            4 
  184000   0.98044528   -5.6704406    83.431536  0.037786022  0.040216374            2 
  185000   0.98117352   -5.6547244    83.726853  0.037714799  0.040130375            7 
  186000   0.97730428   -5.6539824    83.887745  0.037584115  0.040045736            3 
  187000   0.96912938     -5.67077    84.283133  0.037559328  0.039958835            7 
  188000   0.95045572   -5.6882755    84.693777  0.037541568  0.039872026           10 
  189000   0.95202646   -5.6549267    84.823404   0.03740009  0.039787313            3 
  190000   0.93712046   -5.6400687    85.856936  0.037656551  0.039702641           10 
  191000   0.94412054   -5.6826567    85.596167  0.037345622  0.039617798            3 
  192000   0.94630418   -5.7141921    85.943972  0.037302071   0.03953242            2 
  193000   0.96015533   -5.6597585    86.212151   0.03722459  0.039444237           10 
  194000    0.9733007   -5.7113025    86.346131  0.037090262  0.039357275            7 
  195000   0.93593693     -5.73086    86.258396  0.036862562  0.039267487            4 
  196000   0.95965586   -5.6929063    86.639566   0.03683655  0.039174377            8 
  197000   0.95803736    -5.693393     87.17473  0.036875943  0.039085106            7 
  198000   0.96096864    -5.722008    87.561948  0.036852671  0.038994444            6 
  199000   0.95051906   -5.6943751    87.886733   0.03680349   0.03890635            8 
  200000   0.95118202   -5.7126538    88.092826  0.036705344  0.038819296           10 
  201000   0.93243726   -5.7443787    88.276455  0.036598862   0.03873349            4 
  202000   0.93537634   -5.7138544    88.909056  0.036678653  0.038646447            3 
  203000   0.93266376    -5.753132    88.654045  0.036393286  0.038557741            3 
  204000   0.95166183   -5.7605781    88.953971  0.036337406  0.038469327            7 
  205000   0.93232058   -5.7222628    89.380052  0.036333354  0.038383065            3 
  206000   0.93958407   -5.7618346    89.448869  0.036184818  0.038294048            6 
  207000   0.96831859    -5.769342    89.817084  0.036158246  0.038205347            3 
  208000   0.96133852   -5.7577808    90.026608  0.036068352  0.038117029            5 
  209000   0.93016712   -5.7769486    90.186556  0.035959552  0.038029242            4 
  210000   0.95614978   -5.7512749    90.885173  0.036065545  0.037939708            7 
  211000   0.95336943   -5.7377996    90.663087  0.035806906  0.037851248            4 
  212000   0.91912593   -5.7515739    90.928194  0.035742214  0.037760099            3 
  213000   0.92746498   -5.7846317    90.819363  0.035531832  0.037668874            8 
  214000   0.93348486   -5.7772097    91.521881  0.035639362  0.037577429            3 
  215000   0.91534727   -5.8054246    91.662592  0.035528136  0.037488685            4 
  216000   0.92936663   -5.7614199     92.13791  0.035547033  0.037400787           13 
  217000   0.91323443   -5.7814242    92.247714  0.035425389  0.037312643            3 
  218000   0.92981875   -5.7834936    92.457049  0.035342908  0.037225265            8 
  219000   0.90074102    -5.817835    92.790528   0.03530842   0.03713809            5 
  220000    0.9106158   -5.8068412     93.05399  0.035247723  0.037051647            4 
  221000   0.91488167   -5.7876404    93.079949   0.03509802  0.036963511            5 
  222000      0.89411   -5.8131686    93.162091  0.034970755  0.036874615            7 
  223000   0.89758004   -5.8110518    93.636704  0.034991294  0.036786314            6 
  224000    0.9186401   -5.8045446    93.841893  0.034911419  0.036699138            5 
  225000   0.90995974    -5.818368    93.694896  0.034701813  0.036610357            7 
  226000   0.89863502   -5.8635594    94.020062  0.034668164  0.036518966            2 
  227000   0.91273928   -5.8033664    94.243286  0.034597388  0.036429749            4 
  228000    0.9231546   -5.8056162    94.638959  0.034590263  0.036341883            7 
  229000    0.8819803   -5.8209216    94.886423  0.034529266   0.03625418            8 
  230000   0.92225732   -5.8483202    95.320614  0.034536454  0.036167461            3 
  231000   0.92315697   -5.8282811    95.435076  0.034428238  0.036082266            6 
  232000   0.89923383   -5.8259033    95.781571    0.0344043  0.035996621            3 
  233000    0.8967717   -5.8318546     96.22424  0.034414964  0.035910979           14 
  234000   0.87792528   -5.8493856    96.420787  0.034337887   0.03582703            3 
  235000   0.89622348   -5.8356559    96.563615  0.034242417  0.035744177            5 
  236000   0.89442482   -5.8729709    96.739155  0.034159306  0.035659864            8 
  237000   0.90592554   -5.8402546     97.00231  0.034107704  0.035575088            3 
  238000   0.89446326   -5.8329305    97.254155  0.034052575  0.035489459            2 
  239000   0.88104486   -5.8716459     97.44367  0.033976175  0.035403931            3 
  240000   0.87150173   -5.8980532    97.578494  0.033881421  0.035318684            6 
  241000   0.88136449   -5.8844488    97.809806  0.033820818  0.035235197            5 
  242000   0.87723538   -5.8697499    97.873439  0.033702975  0.035150237            4 
  243000   0.86960379   -5.8671275    97.819071  0.033545635  0.035065212            7 
  244000    0.8848556   -5.8863952    97.993035  0.033467566  0.034980415            7 
  245000   0.87286664    -5.875766    98.182398  0.033395373  0.034895004            3 
  246000    0.8885762   -5.8967199    98.453719  0.033351531  0.034809207            6 
  247000   0.86686264   -5.9051349    98.569942  0.033255716  0.034722752            8 
  248000   0.86284566   -5.8751224    99.221698  0.033340624  0.034637399            4 
  249000   0.87027136   -5.8984697    99.229824  0.033209446  0.034552751            4 
  250000   0.87904918   -5.8914809    99.051046  0.033017015  0.034466152            5 
  251000   0.87898138   -5.9235764    99.043874  0.032883092  0.034379057            6 
  252000   0.86830274   -5.9278773    99.280125  0.032830729  0.034290367            6 
  253000    0.8816855   -5.9203862     98.98195   0.03260275  0.034202336           10 
  254000   0.85416794   -5.9203452     99.62365  0.032684924  0.034114636            8 
  255000    0.8753665   -5.9486822    99.385604  0.032478955  0.034027642            7 
  256000   0.87629923   -5.9262729    100.33476  0.032661054  0.033941831            4 
  257000   0.83504519   -5.9571035    100.17135  0.032480984  0.033857101            9 
  258000    0.8427719   -5.9611704    100.54725  0.032476503  0.033771565            5 
  259000   0.83858795   -5.9586375    100.73407   0.03241122  0.033687694            9 
  260000   0.84591561   -5.9666974    100.79092  0.032304783  0.033603847            7 
  261000   0.84463779   -5.9353531    101.27385  0.032335202  0.033519802            7 
  262000   0.86771908   -5.9705695    100.98675  0.032120467  0.033435777            4 
  263000   0.83182478   -5.9503056    101.44443  0.032143355  0.033351153            7 
  264000   0.85763174   -5.9669284     101.3829  0.032002178  0.033265424            6 
  265000   0.82506157   -5.9721091    101.53228   0.03192839  0.033179779            6 
  266000   0.84865614   -5.9844374    101.68153  0.031855116  0.033093989           10 
  267000    0.8260086   -5.9531365    101.96753  0.031825071  0.033008122            7 
  268000   0.84225757   -5.9754415    102.15022  0.031763127  0.032923516            9 
  269000   0.83662127    -5.996532    101.83211  0.031546503  0.032839055            6 
  270000   0.82634244   -6.0079312     102.2564  0.031560617  0.032755245            7 
  271000   0.82935006   -5.9391196    103.04156  0.031685598  0.032672155           12 
  272000   0.82678075   -6.0136059    102.92923  0.031534691  0.032589776            7 
  273000   0.83448928   -6.0133539    102.74357  0.031362507  0.032507297           10 
  274000   0.83072934   -6.0095973    102.97451   0.03131828  0.032424326            4 
  275000   0.83403744   -6.0225609    103.19709  0.031271847  0.032341343            9 
  276000   0.82741727   -6.0063635    103.48432  0.031245264  0.032259702            3 
  277000    0.8290095   -6.0100369    103.59141  0.031164685  0.032177858           13 
  278000   0.82188708   -6.0146318    103.61884  0.031060803  0.032096582            4 
  279000   0.80193448   -6.0380018    103.75876  0.030991268  0.032016077            9 
  280000   0.83169944   -6.0168712    103.83989   0.03090473  0.031935505            7 
  281000   0.80762149   -6.0329793    104.13571  0.030882475  0.031854706            5 
  282000   0.82234438   -6.0355217    104.58749  0.030906468  0.031774713            5 
  283000   0.83920269   -6.0476398    104.36201  0.030730862  0.031694293           11 
  284000   0.80919481    -6.033595    104.60387  0.030693622  0.031614185           10 
  285000   0.79633465   -6.0580843    104.80833  0.030645712  0.031534296            5 
  286000   0.81729607   -6.0395777    105.17452  0.030645257  0.031454536            6 
  287000   0.82213308   -6.0676046    104.72057  0.030406671  0.031374859            8 
  288000   0.81728601   -6.0422003     104.9414   0.03036499  0.031294466            6 
  289000   0.79178046   -6.0484651     105.2644  0.030353056  0.031214641            5 
  290000   0.78725447   -6.0752145    105.35161   0.03027345  0.031134478            5 
  291000   0.78718903   -6.0660943    105.59961  0.030240439  0.031054998            7 
  292000   0.81015884   -6.0694032    105.95447  0.030238149  0.030976486           12 
  293000   0.80928745   -6.1080217    105.64134  0.030045887   0.03089802           10 
  294000   0.79871499    -6.063185    105.90667  0.030018898  0.030817946            7 
  295000   0.77891409   -6.0778354    105.98511  0.029939297  0.030738446            6 
  296000   0.79778912     -6.09538    106.01202  0.029845726  0.030659116            7 
  297000   0.79469501   -6.0835307    106.32439  0.029832881  0.030579607            7 
  298000   0.80320306   -6.0948627    106.50605  0.029783571  0.030501426           10 
  299000   0.78039644   -6.0881256    106.38102  0.029649113    0.0304222           11 
  300000   0.77378541    -6.110815    106.43343  0.029564842  0.030343088           11 
  301000   0.79016238    -6.126589    106.63192  0.029521573  0.030264295            5 
  302000   0.80168693   -6.1046068    106.86762  0.029488858  0.030185425            4 
  303000   0.79714754   -6.1390219    106.90569  0.029402006   0.03010696           10 
  304000   0.77587271   -6.0950641    106.94993  0.029317416  0.030028228           10 
  305000   0.78454722   -6.1441453    107.23183  0.029298313  0.029948924            6 
  306000   0.78113365   -6.0905721    107.66039  0.029319277  0.029870431            7 
  307000   0.77630671   -6.1074139    107.76082  0.029251038   0.02979295            5 
  308000   0.79315393   -6.1529896    107.62938  0.029120504   0.02971596            8 
  309000   0.78632082   -6.1332825    107.28414  0.028933154  0.029637855           11 
  310000    0.7760334   -6.1486904    107.52284  0.028903988  0.029559655            8 
  311000   0.78918687   -6.1369583     107.4831  0.028800403  0.029481319           11 
  312000   0.76771349   -6.1364812    107.64969  0.028752587  0.029403558            7 
  313000    0.7807773   -6.1331424    107.50653  0.028622612  0.029325312           13 
  314000   0.76926167   -6.1263777    107.75736  0.028598027  0.029247312           11 
  315000   0.76307713   -6.1437727    108.14716  0.028610361  0.029169645            6 
  316000   0.75117884   -6.1446756    107.95923   0.02847026  0.029092631           10 
  317000   0.75442478   -6.1754739    108.19754  0.028443098  0.029015786            8 
  318000   0.76006047   -6.1597659    108.34979  0.028393551  0.028939013           16 
  319000   0.74598762   -6.1442881    108.49072  0.028341357  0.028863435            5 
  320000   0.75580937   -6.1438221    108.79412  0.028331803  0.028787949            6 
  321000   0.75603334   -6.1664711    108.60954  0.028195622  0.028712368           14 
  322000   0.75755339   -6.1776809    109.02642  0.028215948  0.028636918           14 
  323000   0.74496093   -6.1672016    108.91139  0.028098914  0.028561603           10 
  324000   0.75706515   -6.1965092    108.95691  0.028023896   0.02848665            7 
  325000   0.74072617   -6.1960672    109.09257  0.027972454   0.02841153            4 
  326000   0.74122965   -6.2198571    109.03107  0.027870927  0.028336442            7 
  327000   0.74085283   -6.1852405    109.14459  0.027814626  0.028260245            6 
  328000   0.73683438   -6.2052645    108.95484  0.027681616   0.02818456            9 
  329000   0.73904152   -6.2037671    109.00001  0.027608919  0.028108785            8 
  330000   0.73286171   -6.2319358    109.35564  0.027615061  0.028032906            5 
  331000   0.74095564   -6.2345968      109.222  0.027497986   0.02795655           12 
  332000   0.73596728   -6.2508028    109.39553  0.027458717  0.027880715           11 
  333000   0.73076839   -6.1986866    109.60043  0.027427536  0.027805137            6 
  334000   0.73529418   -6.2434376    109.60551  0.027346683  0.027730262            9 
  335000   0.75345432   -6.2505876    109.69112  0.027286347  0.027656118            8 
  336000   0.71744424   -6.2338395    109.81403  0.027235624  0.027581556            7 
  337000   0.73026242   -6.2240019    109.80066  0.027151499  0.027507633           13 
  338000   0.72836656   -6.2058421    109.71332  0.027049636  0.027434024            9 
  339000    0.7207111   -6.2503255    109.92644  0.027022233  0.027359888            6 
  340000   0.71814078   -6.2326094    109.75318  0.026900289  0.027285324            7 
  341000   0.72438762   -6.2678202    109.69336  0.026806784  0.027210849           14 
  342000   0.71919768   -6.2558925    109.87316  0.026772213  0.027136258            9 
  343000   0.69928219    -6.281991    109.97878   0.02671982  0.027062265           10 
  344000   0.72651887   -6.2762819    109.78372  0.026594893    0.0269878           10 
  345000   0.71315584   -6.2610894    110.18324   0.02661431  0.026913624           21 
  346000   0.70913881   -6.2812855    110.12409  0.026523143  0.026840207            9 
  347000   0.70884131   -6.2754711    110.21394  0.026468284  0.026767107            9 
  348000   0.69409459   -6.2558696     111.0014  0.026580795  0.026694853           23 
  349000   0.69982041   -6.3035244    110.79756  0.026455961  0.026623353           11 
  350000     0.715824   -6.3140601    110.52007  0.026314303  0.026551824           17 
  351000   0.70134353   -6.2837685    111.06174  0.026367933  0.026480562            8 
  352000   0.68322012   -6.3027757    111.02314  0.026283887  0.026409861           11 
  353000   0.71584848   -6.3138438    110.71727  0.026137222  0.026338881           14 
  354000   0.68954672   -6.3091092    111.04357  0.026140201  0.026268219            5 
  355000    0.7071467   -6.2999255    111.18543  0.026099867  0.026197214           16 
  356000   0.69251415   -6.3096931    111.02416  0.025988802  0.026125674           10 
  357000   0.69433795   -6.3331803    111.02665  0.025916584  0.026054592           13 
  358000   0.68898656   -6.3171774    111.24717  0.025895525   0.02598367           12 
  359000   0.69989902    -6.324594    110.99265  0.025764311  0.025912717           15 
  360000   0.68991852   -6.3398155    111.11937  0.025722076  0.025841781           15 
  361000   0.69589619   -6.3493181    111.02153  0.025628239  0.025771198           16 
  362000   0.68474606   -6.3167049     111.2352   0.02560663   0.02570011            8 
  363000   0.68444359   -6.3459386    111.07459  0.025499217  0.025629002           12 
  364000   0.68182005   -6.3409844    111.26333  0.025472375  0.025557866           16 
  365000   0.68614124    -6.346666    111.28864  0.025408365   0.02548688           13 
  366000   0.68338858   -6.3636925    111.03106  0.025280295  0.025416163           12 
  367000   0.68762919   -6.3645213    111.32533  0.025278232  0.025345155           10 
  368000    0.6744329   -6.3704132     111.5492  0.025260235  0.025274469           11 
  369000   0.68492991   -6.3693165    111.34816  0.025146377  0.025204105           13 
  370000   0.67886965   -6.3859662    111.33167    0.0250747  0.025133733           10 
  371000    0.6754201   -6.3710369    111.71895  0.025094105  0.025063291           12 
  372000   0.67098399   -6.3821679    111.13777  0.024896454  0.024993422           37 
  373000   0.66426452   -6.3622261    111.71656  0.024959017  0.024923431           11 
  374000   0.66341002   -6.3933629    111.52468  0.024849528  0.024853559            7 
  375000    0.6752094   -6.4052008     111.5294  0.024784311  0.024784103           19 
  376000   0.66464081   -6.3807296    111.64902  0.024744908  0.024714904            6 
  377000   0.68061414   -6.3909313    111.64319  0.024677981  0.024646092           13 
  378000   0.66054043   -6.3910729    111.91629  0.024672904  0.024577523            9 
  379000   0.66034492   -6.4184074    111.58601  0.024535183  0.024508861           36 
  380000   0.67215792   -6.4162518    111.78481  0.024514214  0.024440028           22 
  381000   0.64811322   -6.4295411    111.84543  0.024463129   0.02437146           14 
  382000   0.64084453   -6.4231459    111.99278  0.024431234  0.024302972           34 
  383000   0.66956736   -6.4425589    111.78413  0.024322047  0.024234899           18 
  384000    0.6581101   -6.4368619    112.13612  0.024335095  0.024167233           11 
  385000   0.64974275   -6.4259855    112.21379  0.024288699  0.024099898           16 
  386000   0.64316948   -6.4377332    112.12287  0.024206147   0.02403242           13 
  387000   0.65575879   -6.4438866    112.03523  0.024124727  0.023965407           17 
  388000   0.65148599   -6.4442588    112.02941  0.024061299  0.023898304           20 
  389000   0.64901547   -6.4624553    111.91725  0.023975418  0.023831017           31 
  390000   0.64444281   -6.4716246    111.91054  0.023912509  0.023763888           32 
  391000   0.63148543   -6.4897359    112.24495  0.023922624  0.023697095           21 
  392000   0.63593996   -6.4757733    112.28785  0.023870717  0.023630609           27 
  393000   0.62667346   -6.4630315    112.35544  0.023824309  0.023564478           33 
  394000   0.63299535   -6.4650972     112.7031  0.023837372  0.023498786           33 
  395000   0.62892318   -6.4602444    112.51328   0.02373698   0.02343315           23 
  396000   0.62952601   -6.4765302     112.3733   0.02364758  0.023367699           25 
  397000   0.63435704   -6.5005757    112.39372    0.0235923  0.023302637           40 
  398000    0.6123277   -6.4922375    112.48723  0.023552603  0.023237333           28 
  399000   0.62189568   -6.4833038    112.53908  0.023504403  0.023172292           21 
  400000   0.62769725   -6.5012204    112.53478  0.023444746  0.023106923           28 
  401000   0.62857651   -6.5063439    112.22394  0.023321683  0.023041444           12 
  402000   0.62041142   -6.5260283     112.4815   0.02331706  0.022976112           12 
  403000   0.62469399   -6.5195036    112.36938  0.023236017  0.022911079           19 
  404000   0.63731866   -6.5140478    112.02276  0.023107005  0.022846018           34 
  405000   0.62872537   -6.5404999    112.50325  0.023148817  0.022781128           32 
  406000   0.61780638   -6.5258716    112.50121  0.023091381  0.022716488           33 
  407000   0.61147576   -6.5375689    112.09799  0.022952086  0.022651664           17 
  408000   0.60756826   -6.5541826    111.98936  0.022873643  0.022586941           19 
  409000   0.60523158   -6.5413919    112.20545  0.022861746  0.022522141           18 
  410000   0.59068289   -6.5645171     112.1126  0.022787113  0.022457631           35 
  411000   0.60219731   -6.5532876     112.3109  0.022771877  0.022393267           25 
  412000   0.60881031   -6.5397818    112.17922  0.022689972  0.022329019           35 
  413000   0.62072318   -6.5364348    112.35734  0.022670973  0.022265001           27 
  414000   0.62028483   -6.5663374    112.58553  0.022662145  0.022201235           26 
  415000   0.61355152   -6.5695391    112.30254   0.02255071   0.02213747           47 
  416000   0.58449068   -6.5956419    112.04417  0.022444745  0.022073499           28 
  417000   0.59817439   -6.5631268    112.22242  0.022426543  0.022009617           64 
  418000   0.58944835   -6.5584562     112.0584  0.022340191  0.021946225           16 
  419000   0.61759453   -6.5777239    112.26284  0.022327533  0.021882854           21 
  420000   0.58569207   -6.5631747    112.24259  0.022270355   0.02181939           35 
  421000   0.59957455   -6.5657474    112.18676  0.022206406  0.021756314           29 
  422000   0.58984937   -6.5894191    112.12357  0.022141305   0.02169336           24 
  423000   0.59648575   -6.5982318    112.29334  0.022122407   0.02163007           20 
  424000   0.58297996   -6.6257115    112.01509  0.022015544  0.021566965           34 
  425000   0.57659882   -6.6161599    112.13556  0.021987365  0.021504141           46 
  426000   0.58810354   -6.5885739    112.23463   0.02195513  0.021441366           56 
  427000   0.59373958   -6.6016521    112.21771  0.021900411  0.021378765           79 
  428000   0.58287277   -6.6326576    112.15039  0.021836135  0.021316435           79 
  429000   0.57924354   -6.6027409    112.22152  0.021799052  0.021254191           76 
  430000   0.57395652   -6.6052023    112.14989  0.021734476  0.021192049           53 
  431000   0.57416561   -6.6433011    111.89149  0.021634085  0.021129969          104 
  432000   0.58051715   -6.6365038    112.04457  0.021613536  0.021067942          137 
  433000   0.57191821   -6.6439165    112.07459  0.021569398  0.021006038           97 
  434000   0.58597551   -6.6368664    112.16377  0.021536823  0.020944381          104 
  435000   0.57236462   -6.6557785    111.95817  0.021447925   0.02088309          100 
  436000   0.56544835   -6.6583422    112.14424  0.021434297    0.0208217           91 
  437000   0.57007012   -6.6557102    111.97984  0.021353897  0.020760352          163 
  438000   0.57496867   -6.6480041     112.1223  0.021332249  0.020699053          136 
  439000   0.55900318   -6.6712858    111.65506  0.021194962  0.020637895           84 
  440000   0.57121008   -6.6868127      111.635  0.021142992  0.020576601          135 
  441000   0.57406244   -6.6808002    111.58605  0.021085799  0.020515329          192 
  442000    0.5503109   -6.6806517    111.86696  0.021091055  0.020454246           91 
  443000   0.56183746   -6.6760469    111.73509   0.02101864  0.020393284          216 
  444000   0.55991665   -6.6979659     111.5809  0.020942362  0.020332311          208 
  445000   0.55982755   -6.6923221    111.66915  0.020911825  0.020271649          132 
  446000   0.55474163   -6.7052309     111.5772  0.020847758  0.020211082          177 
  447000   0.54473828   -6.7019256    111.46684  0.020780544  0.020150533          142 
  448000   0.55062095   -6.7237471     111.3818  0.020718341   0.02009004          111 
  449000   0.54209261   -6.7017968    111.32069  0.020660855  0.020029626          201 
  450000   0.54640974   -6.7262989    111.39963  0.020629562  0.019969118          211 
  451000   0.56006392   -6.7264659    111.28928  0.020563429  0.019908894          311 
  452000   0.53862115    -6.721458    111.53622  0.020563463   0.01984907          216 
  453000   0.54845758   -6.7332347     111.6705  0.020542771  0.019789453          206 
  454000   0.55931063   -6.7318388    111.72693   0.02050788  0.019730063          258 
  455000   0.54838385   -6.7352967    111.72823  0.020463045  0.019670869           90 
  456000   0.54716884    -6.751041    111.45261  0.020367802  0.019611672          127 
  457000   0.54470399   -6.7167785    111.32522  0.020300004  0.019552753          176 
  458000   0.53085054   -6.7406434    111.32923   0.02025641   0.01949402          104 
  459000   0.53686013   -6.7365356    111.55922  0.020254035  0.019435474          268 
  460000   0.54066683   -6.7663014    111.38027  0.020177585  0.019377026          180 
  461000   0.52636296   -6.7469233     111.4898  0.020153616  0.019318854          134 
  462000   0.51911905   -6.7588381    111.48704  0.020109495  0.019260833          144 
  463000   0.53469571   -6.7504937    111.34366  0.020040256   0.01920289          121 
  464000    0.5201812   -6.7537514    111.32753  0.019994169  0.019144976           88 
  465000   0.52962665   -6.7769052    111.49549   0.01998127  0.019087362          246 
  466000   0.52792147   -6.7590562    111.14195  0.019875169  0.019029707           85 
  467000   0.52550428   -6.7666453    111.09696  0.019824582  0.018972176          127 
  468000   0.52500145   -6.7678258     111.3743  0.019831607  0.018914954          202 
  469000   0.52182987   -6.7762351    111.22746  0.019763231  0.018857816          266 
  470000   0.51598935   -6.7600312    111.06424  0.019692242  0.018800883          273 
  471000   0.50480315   -6.7871314    111.07733  0.019652748  0.018743985          151 
  472000   0.51717267   -6.8008272    111.18998  0.019630999  0.018687243          141 
  473000   0.50840729   -6.7917908    110.96474  0.019549813  0.018630674          141 
  474000   0.50369435   -6.7928678    110.94763   0.01950556   0.01857418          162 
  475000   0.51389675   -6.7882465     111.0551  0.019483351   0.01851782          121 
  476000   0.50296358   -6.7897837    110.97379  0.019428184  0.018461748          351 
  477000   0.50850608   -6.7932108     110.8783  0.019370773  0.018405674          156 
  478000   0.50526877   -6.8075377    110.85975  0.019327013  0.018349776          171 
  479000   0.50957804   -6.8113507     110.7605  0.019269398  0.018294165          304 
  480000   0.50499892   -6.8080238    110.87111  0.019248456  0.018238651          390 
  481000   0.49502938   -6.7904799    111.04856  0.019239183  0.018183381          310 
  482000   0.49693905   -6.7992804    110.79672  0.019155727  0.018128274          370 
  483000    0.5008812   -6.8089631    110.62101  0.019085751   0.01807323          377 
  484000   0.49335483   -6.8311539    110.77308    0.0190725  0.018018485          434 
  485000   0.49820361   -6.8134766    110.84145  0.019044922   0.01796376          415 
  486000   0.49197915   -6.8298939    110.74324  0.018988896  0.017909144          510 
  487000    0.4964083   -6.8327656    110.70958  0.018944144   0.01785481          415 
  488000    0.4872601   -6.8356984    110.71524   0.01890629  0.017800596          240 
  489000   0.49034037   -6.8437078    110.72022  0.018868477  0.017746513          487 
  490000   0.48436283   -6.8452093     110.8582  0.018853436  0.017692703          452 
  491000     0.476843   -6.8532996     110.6827  0.018785251  0.017638931          349 
  492000   0.48738624   -6.8488716    110.68031  0.018746665   0.01758536          524 
  493000   0.46902453   -6.8528278    110.63575  0.018701108  0.017531935          459 
  494000   0.47883626   -6.8576254    110.82909  0.018695865  0.017478737          241 
  495000   0.48129284    -6.850562    110.77201  0.018648487  0.017425786          557 
  496000   0.48138626   -6.8547875    110.64251  0.018589131  0.017372976          445 
  497000   0.46662383   -6.8613913    110.60374  0.018545229  0.017320284          363 
  498000   0.46824421   -6.8821728    110.56745  0.018501917    0.0172678          596 
  499000   0.46732331   -6.8647384    110.38032  0.018433587  0.017215454          401 
  500000   0.47182977    -6.884609    110.45888  0.018409813  0.017163232          440 
  501000   0.46666098   -6.8756024    110.42363  0.018367204  0.017111186          198 
  502000   0.46704697   -6.8796674    110.28253  0.018307193   0.01705934          260 
  503000   0.45972197    -6.885487    110.37185  0.018285595  0.017007628          235 
  504000   0.46260087   -6.8809584     110.3601  0.018247372  0.016956186          480 
  505000   0.44765285   -6.8930944    110.51951  0.018237543   0.01690493          627 
  506000   0.46356786   -6.8880876    110.41592   0.01818444  0.016853935          317 
  507000   0.46508444    -6.889969    110.27556  0.018125503  0.016803076          268 
  508000   0.45891552   -6.8916945    110.19443  0.018076515  0.016752302          229 
  509000   0.45095655   -6.8905259    110.41869  0.018077716  0.016701735          193 
  510000   0.46407636   -6.8949698    110.40347  0.018039782  0.016651304          364 
  511000   0.44242899   -6.8950624     110.0967  0.017954452  0.016601052          503 
  512000   0.45234691   -6.8919796    110.23183  0.017941378  0.016550939          502 
Loop time of 1289.93 on 48 procs for 500000 steps with 4000 atoms

Performance: 66980.572 tau/day, 387.619 timesteps/s
99.4% CPU use with 48 MPI tasks x no OpenMP threads

MPI task timing breakdown:
Section |  min time  |  avg time  |  max time  |%varavg| %total
---------------------------------------------------------------
Pair    | 89.802     | 96.924     | 101.93     |  28.4 |  7.51
Neigh   | 8.9003     | 9.2238     | 9.5228     |   5.5 |  0.72
Comm    | 84.781     | 90.372     | 98.236     |  31.7 |  7.01
Output  | 0.9724     | 0.97332    | 1.0074     |   0.5 |  0.08
Modify  | 1077.6     | 1080.3     | 1084.3     |   5.2 | 83.75
Other   |            | 12.17      |            |       |  0.94

Nlocal:        83.3333 ave          90 max          76 min
Histogram: 2 2 8 1 7 10 4 7 4 3
Nghost:        2394.21 ave        2424 max        2371 min
Histogram: 1 2 7 10 12 8 5 2 0 1
Neighs:        16497.5 ave       19303 max       14248 min
Histogram: 2 6 7 10 4 6 6 2 3 2
FullNghs:      32994.8 ave       35633 max       29882 min
Histogram: 2 1 7 4 6 8 7 5 5 3

Total # of neighbors = 1583748
Ave neighs/atom = 395.93700
Neighbor list builds = 26799
Dangerous builds = 0

#clear
#
#next RN
#
#jump SELF
Total wall time: 0:21:33
