
units lj                  # Use reduced LJ style units
atom_style atomic         # Uncharged point particles
atom_modify map hash      # Needed for indexing of clusters etc
                          # Used to be able to find where atoms are in relation to each other.

lattice fcc 1.0 spacing 1 1 1
Lattice spacing in x,y,z = 1.5874011 1.5874011 1.5874011
region box block 0 10 0 10 0 10 units lattice
create_box 2 box
Created orthogonal box = (0.0000000 0.0000000 0.0000000) to (15.874011 15.874011 15.874011)
  3 by 4 by 4 MPI processor grid
create_atoms 1 box
Created 4000 atoms
  using lattice units in orthogonal box = (0.0000000 0.0000000 0.0000000) to (15.874011 15.874011 15.874011)
  create_atoms CPU = 0.002 seconds
set type 1 type/fraction 2 0.94 78393
Setting atom values ...
  3760 settings made for type/fraction
mass 1 1.0
mass 2 1.0
pair_style lj/cut  3.5
pair_modify tail  yes
pair_coeff 1  1  1.0  1.0   # Intearaction between 1 and 1 set with epsilon = 1 and sigma = 1
pair_coeff 1  2  1.5  0.8
pair_coeff 2  2  0.5  0.88

write_data data.0
System init for write_data ...
Neighbor list info ...
  update every 1 steps, delay 10 steps, check yes
  max neighbors/atom: 2000, page size: 100000
  master list distance cutoff = 3.8
  ghost atom cutoff = 3.8
  binsize = 1.9, bins = 9 9 9
  1 neighbor lists, perpetual/occasional/extra = 1 0 0
  (1) pair lj/cut, perpetual
      attributes: half, newton on
      pair build: half/bin/atomonly/newton
      stencil: half/bin/3d
      bin: standard
WARNING: Not all mixed pair coeffs generated from mixing. Use write_data with 'pair ij' option to store all pair coeffs. (../write_data.cpp:312)


#############################
#   M E L T   S Y S T E M   #
#############################

velocity all create 2.4 1741580 mom yes dist gaussian # Assign velocities
                                                    # Temperature 2.4, random number seed, zero linear momentum
                                                                                # Gaussian distribution

timestep 0.002   # simulation timestep
thermo 1000       # output thermodynamic data every 1000 steps bf 100

# Define a fix  in this case with index 1 applied to all
# particles in the simulation. This fix is for simulations
# in the anisotropic NPT ensemble. Note that we use the MTK
# correction.
fix 1 all npt temp 2.4 2.4 0.1 iso 5.68 5.68 0.5 mtk yes tchain 5 pchain 5 # Use NPT ensemble
                                                                         # Set temperature and pressure and damping
                                                                         # Numbers of thermostats in chain and in barostat
run 10000          # run for 10000 steps
Per MPI rank memory allocation (min/avg/max) = 3.642 | 3.644 | 3.648 Mbytes
Step Temp E_pair E_mol TotEng Press Volume 
       0          2.4   -2.9877486            0    0.6113514   -2.2401145         4000 
    1000    2.4055528   -1.9131928            0    1.6942343      5.61124    4096.7747 
    2000    2.3937192   -1.8847103            0    1.7049709    5.7174013    4111.4219 
    3000    2.3815356   -1.8880899            0    1.6833203    5.7198915    4105.0343 
    4000    2.4074485   -1.9511597            0    1.6591103    5.6079862    4066.4655 
    5000    2.4264166   -1.9464202            0    1.6922948    5.6881987    4076.2607 
    6000    2.4185824   -1.8565372            0    1.7704295      5.72026    4133.7507 
    7000    2.4300906   -1.9069105            0    1.7373142    5.6615756    4107.8883 
    8000    2.4233338   -1.9007166            0    1.7333753    6.0489537     4047.997 
    9000     2.488034   -1.9321793            0    1.7989387    5.6915462    4075.0008 
   10000    2.4295781   -1.9047862            0    1.7386698    5.7360713    4095.2379 
Loop time of 2.44605 on 48 procs for 10000 steps with 4000 atoms

Performance: 706446.232 tau/day, 4088.231 timesteps/s
99.7% CPU use with 48 MPI tasks x no OpenMP threads

MPI task timing breakdown:
Section |  min time  |  avg time  |  max time  |%varavg| %total
---------------------------------------------------------------
Pair    | 1.0696     | 1.1277     | 1.2094     |   3.3 | 46.10
Neigh   | 0.20433    | 0.21229    | 0.22046    |   1.0 |  8.68
Comm    | 0.75206    | 0.8366     | 0.93024    |   4.2 | 34.20
Output  | 0.00024315 | 0.0002482  | 0.00033133 |   0.0 |  0.01
Modify  | 0.2266     | 0.25428    | 0.28171    |   2.6 | 10.40
Other   |            | 0.01496    |            |       |  0.61

Nlocal:        83.3333 ave          93 max          72 min
Histogram: 1 2 4 6 6 9 8 7 4 1
Nghost:        1613.31 ave        1644 max        1595 min
Histogram: 6 8 11 3 5 5 4 2 3 1
Neighs:        9305.29 ave       10232 max        7765 min
Histogram: 2 1 2 1 8 8 8 3 6 9

Total # of neighbors = 446654
Ave neighs/atom = 111.66350
Neighbor list builds = 907
Dangerous builds = 213

# Equilibrate just above the melting temperature to avoid step fn in T

fix 1 all npt temp 1.25 1.25 0.1 iso 5.68 5.68 0.5 mtk yes tchain 5 pchain 5
run 2000
Per MPI rank memory allocation (min/avg/max) = 3.643 | 3.645 | 3.649 Mbytes
Step Temp E_pair E_mol TotEng Press Volume 
   10000    2.4295781   -1.9047862            0    1.7386698    5.7360713    4095.2379 
   11000    1.2410852   -2.8512484            0  -0.99008599    5.7425826    3201.3379 
   12000     1.249742   -2.8668614            0  -0.99271715    5.8183221    3183.2628 
Loop time of 0.588821 on 48 procs for 2000 steps with 4000 atoms

Performance: 586935.828 tau/day, 3396.619 timesteps/s
99.7% CPU use with 48 MPI tasks x no OpenMP threads

MPI task timing breakdown:
Section |  min time  |  avg time  |  max time  |%varavg| %total
---------------------------------------------------------------
Pair    | 0.26366    | 0.28461    | 0.30515    |   1.7 | 48.34
Neigh   | 0.039257   | 0.040982   | 0.043142   |   0.5 |  6.96
Comm    | 0.19306    | 0.21488    | 0.23707    |   2.0 | 36.49
Output  | 5.2149e-05 | 5.4121e-05 | 6.8687e-05 |   0.0 |  0.01
Modify  | 0.038841   | 0.043686   | 0.049334   |   1.5 |  7.42
Other   |            | 0.004604   |            |       |  0.78

Nlocal:        83.3333 ave          92 max          75 min
Histogram: 1 2 10 4 12 3 4 7 4 1
Nghost:        1920.73 ave        1941 max        1897 min
Histogram: 2 2 1 4 14 5 7 7 2 4
Neighs:        11994.2 ave       13592 max       10310 min
Histogram: 2 0 6 8 10 4 6 7 3 2

Total # of neighbors = 575723
Ave neighs/atom = 143.93075
Neighbor list builds = 144
Dangerous builds = 13

#############################
# L I N E A R  Q U E N C H  #
#############################

# Define solid atoms. This closely follows ten Wolde  Ruiz-Montero and Frenkel  Faraday Discuss  1996  104  93-110
# Compute components of the per-atom q6 vector
compute q6 all orientorder/atom degrees 1 6 components 6 nnn NULL cutoff 1.3 # compute the Q6 parameter.
                                                                             # Use all neighbours within 1.3 unit cell.

# get number of connections
compute coord_number all coord/atom orientorder q6 0.5

# An atom is solid if it has 8 or more connections (of a possible 14)
variable is_solid atom c_coord_number>=8
group solid dynamic all var is_solid    # Must be dynamic to update
dynamic group solid defined

# do clustering
compute cluster solid cluster/atom 1.3 # Create a cluster where all atoms within are solid and max 1.3 units from another member

# define chunks one chunk per cluster
compute clus_chunks solid chunk/atom c_cluster nchunk every compress yes  # Says which atoms are in which chunk

# count the size of each chunk
compute size_chunks solid property/chunk clus_chunks count


# Find the maximum entry in the vector of chunk sizes
variable max_n equal max(c_size_chunks)


# Thermo style which includes this variable
# thermo_style custom step temp pe vol v_max_n

thermo ${N}  # Print the thermo information every 100 steps
thermo 1000  

# Reset the npt fix at a lower temperature (below freezing)
fix 1  all npt temp  ${temp} ${temp}  0.1  iso  5.68  5.68  0.5  mtk yes tchain  5  pchain  5
fix 1  all npt temp  0.45 ${temp}  0.1  iso  5.68  5.68  0.5  mtk yes tchain  5  pchain  5
fix 1  all npt temp  0.45 0.45  0.1  iso  5.68  5.68  0.5  mtk yes tchain  5  pchain  5

dump dmp2 all dcd ${N} traj.dcd
dump dmp2 all dcd 1000 traj.dcd


compute msd all msd com yes
variable twopoint equal c_msd[4]/6/(step*dt+1.0e-6)
fix 9 all vector 10 c_msd[4]
variable fit equal slope(f_9)/6/(10*dt)
thermo_style custom step temp pe c_msd[4] v_twopoint v_fit v_max_n

fix 1 all npt temp 1.25 ${temp} 0.1 iso 5.68 5.68 0.5 mtk yes tchain 5 pchain 5
fix 1 all npt temp 1.25 0.45 0.1 iso 5.68 5.68 0.5 mtk yes tchain 5 pchain 5
run 2000000 # 5000000  # Run for this many steps
Neighbor list info ...
  update every 1 steps, delay 10 steps, check yes
  max neighbors/atom: 2000, page size: 100000
  master list distance cutoff = 3.8
  ghost atom cutoff = 3.8
  binsize = 1.9, bins = 8 8 8
  4 neighbor lists, perpetual/occasional/extra = 1 3 0
  (1) pair lj/cut, perpetual
      attributes: half, newton on
      pair build: half/bin/atomonly/newton
      stencil: half/bin/3d
      bin: standard
  (2) compute orientorder/atom, occasional
      attributes: full, newton on
      pair build: full/bin/atomonly
      stencil: full/bin/3d
      bin: standard
  (3) compute coord/atom, occasional
      attributes: full, newton on
      pair build: full/bin/atomonly
      stencil: full/bin/3d
      bin: standard
  (4) compute cluster/atom, occasional
      attributes: full, newton on
      pair build: full/bin/atomonly
      stencil: full/bin/3d
      bin: standard
Per MPI rank memory allocation (min/avg/max) = 9.818 | 9.825 | 9.831 Mbytes
Step Temp PotEng c_msd[4] v_twopoint v_fit v_max_n 
   12000     1.249742   -2.8668614 9.0180607e-30 6.2625419e-32 8.3333333e+20            1 
   13000    1.2315169   -2.8675638    1.1000631 0.0070516864  0.093713103            1 
   14000    1.2347407   -2.8793017    2.2458729  0.013368291  0.095032642            2 
   15000    1.2340084   -2.8436755    3.4636445  0.019242469  0.096763535            2 
   16000     1.227315   -2.8969498    4.6309263  0.024119407  0.097486535            1 
   17000    1.2187974   -2.8751178    5.7796036  0.028331389   0.09751799            4 
   18000    1.2466245   -2.8323724    7.0791845  0.032774001  0.098261653            2 
   19000    1.2333266   -2.8659284    8.2601825   0.03622887  0.098641601            2 
   20000    1.2337231   -2.8535288    9.4562339  0.039400974  0.098973071            2 
   21000    1.2551127    -2.886337    10.700618   0.04246277  0.099506913            3 
   22000    1.2638907   -2.8496453     11.91411  0.045129204  0.099813696            1 
   23000    1.2075188   -2.8857284     13.27253  0.048088875   0.10025305            2 
   24000    1.2447498   -2.8905601    14.616817  0.050752836   0.10115812            1 
   25000    1.2560228    -2.842573    15.801707  0.052672354   0.10178155            1 
   26000     1.245545   -2.8948188     17.03607  0.054602788   0.10222158            4 
   27000    1.2414315   -2.8325375    18.375559  0.056714688   0.10251065            2 
   28000    1.2539914   -2.8757614    19.438684  0.057853225    0.1026113            1 
   29000    1.2216178   -2.8706607    20.535499  0.059010053   0.10237106            1 
   30000    1.2119872   -2.8823998    21.636918   0.06010255   0.10214487            1 
   31000    1.2644136   -2.8647306    22.919867  0.061612545   0.10192569            2 
   32000    1.2705744   -2.8844875    24.283779  0.063239008   0.10183678            2 
   33000    1.2523299   -2.8483719    25.425589  0.064206031    0.1018618            2 
   34000    1.2560422   -2.8888441    26.493757  0.064935679   0.10176994       -1e+20 
   35000    1.2279121   -2.8828306     27.51858  0.065520427   0.10163573            1 
   36000    1.2654556   -2.9152644    28.707495  0.066452535   0.10143857            2 
   37000    1.2489468   -2.8842823    29.773442  0.067057301   0.10122459            2 
   38000    1.2478056   -2.8711595    30.932758  0.067834994    0.1009082            3 
   39000    1.2554778   -2.8591677    32.079076  0.068545034   0.10066665            1 
   40000    1.2285247   -2.8688818    33.433898  0.069653954   0.10047885            2 
   41000    1.2243147   -2.8757759    34.695348  0.070518999   0.10032133            2 
   42000    1.2432097   -2.8884016    35.290932  0.070021689    0.1001056            1 
   43000    1.2241441   -2.8892522    36.743566   0.07120846  0.099859583            1 
   44000    1.2315641   -2.9118902    37.854459   0.07169405  0.099668358            1 
   45000    1.2355022   -2.8855771    39.285885  0.072751638  0.099523028            1 
   46000    1.2457692   -2.8592405    40.222593  0.072867015  0.099377581            2 
   47000    1.2202503   -2.8942323    41.637039  0.073824536  0.099248516            1 
   48000    1.2283736   -2.9095493    42.341863  0.073510178  0.099133962            1 
   49000    1.2374271    -2.867344    43.825606  0.074533343  0.099020321            3 
   50000     1.241575   -2.8898584    44.937628  0.074896046  0.098914222            1 
   51000    1.2359597   -2.8776425    46.069371   0.07527675  0.098837377            2 
   52000    1.2485344   -2.8952286    47.465407  0.076066356  0.098839853            3 
   53000    1.2332195   -2.9086407    49.317142  0.077542675  0.098906933            2 
   54000    1.2544821   -2.8951689    50.157879  0.077404134  0.099013659            2 
   55000    1.2156918   -2.8983116    51.332198  0.077776057  0.099101842            2 
   56000    1.2461255   -2.8885466    52.940131  0.078779956  0.099180594            1 
   57000    1.2279679   -2.8921033    54.303115  0.079390519  0.099265299            2 
   58000    1.2364172   -2.9005409      55.0277  0.079062786   0.09935487            2 
   59000    1.2435681   -2.8948239    56.219281  0.079405763  0.099407039            4 
   60000    1.2193842   -2.8898148    57.080694   0.07927874   0.09941879            1 
   61000     1.242446   -2.8849532    58.465969  0.079871542  0.099399819            1 
   62000     1.239675   -2.8508112     59.70587  0.080249825  0.099395846            1 
   63000    1.2287652   -2.8618041    60.646309  0.080219985  0.099353698            2 
   64000    1.2234431   -2.8972301    61.670979  0.080300754  0.099293639            3 
   65000     1.215867   -2.8776987     63.16215  0.080977114  0.099226674            2 
   66000    1.2247631   -2.9167786    63.980179  0.080783054  0.099167932            1 
   67000    1.2322235   -2.9013562    65.024942  0.080876793  0.099095293            1 
   68000    1.2520604   -2.8776852     66.56292  0.081572205  0.099059373            1 
   69000    1.1979722   -2.8563642    67.816825  0.081904378  0.099027552            2 
   70000    1.2287971   -2.9064045    68.596361  0.081662334   0.09899676            2 
   71000    1.2133287   -2.8787893    70.140548  0.082324586  0.098944563            2 
   72000    1.2218729   -2.8881325    70.777416  0.081918305   0.09886607            1 
   73000    1.2394708   -2.8834844    72.353942  0.082595824  0.098797015            1 
   74000    1.2492379   -2.9117627    73.649183  0.082938269  0.098743911            3 
   75000    1.2116135   -2.8836439    74.539989   0.08282221  0.098722756            1 
   76000    1.2479793   -2.8875835     75.54313  0.082832379  0.098662961            2 
   77000    1.2504621   -2.8997422    76.886017  0.083209974  0.098633622            1 
   78000    1.2251138   -2.8842047    78.380721  0.083740086  0.098623701            1 
   79000    1.2096016   -2.9042422     79.75255  0.084127162  0.098648266            2 
   80000    1.2174445   -2.9218495    80.950817  0.084323767  0.098658533            1 
   81000     1.218181   -2.9152854      81.9247   0.08428467   0.09866796            1 
   82000    1.2172231   -2.9040183    83.489289  0.084846838  0.098671679            1 
   83000    1.2129905   -2.8907373    84.137027  0.084474926  0.098687027            2 
   84000    1.1870567   -2.9098659    85.764884   0.08508421  0.098710956            4 
   85000    1.2157517   -2.8784434    87.111519  0.085403449  0.098734319            1 
   86000    1.2052104   -2.8956116    88.431366  0.085689308  0.098775808            3 
   87000    1.2186107    -2.914228    89.374353  0.085607618  0.098809588            1 
   88000    1.2314522   -2.8829663    91.177325  0.086342164  0.098847046            1 
   89000     1.216391   -2.9374653    92.150471  0.086283212  0.098887835            1 
   90000    1.2094479   -2.9045547    93.185228  0.086282618  0.098929937            2 
   91000    1.2403435   -2.9000078    95.105579   0.08709302  0.098985592            2 
   92000    1.2017128   -2.8976628    96.141378  0.087084581  0.099045987            2 
   93000    1.2391448   -2.9036964    97.219314   0.08711408  0.099109819            2 
   94000    1.2072346   -2.9110248    98.193836  0.087051273  0.099159992            4 
   95000    1.2345053   -2.8984212    99.720513  0.087474134  0.099193551            1 
   96000    1.2067207   -2.9075735     100.2678  0.087038023  0.099214101            3 
   97000    1.2071722    -2.898402    101.35387  0.087073769  0.099226125            1 
   98000    1.2033822   -2.8859608    102.30124  0.086990854   0.09923623            1 
   99000    1.2246976   -2.9315867    103.66249  0.087257988  0.099243423       -1e+20 
  100000    1.1917115   -2.9332355     104.4274  0.087022833  0.099214206            1 
  101000    1.2064915   -2.9251956    105.09296  0.086710365  0.099184895            4 
  102000    1.2172291   -2.8991329    106.20573  0.086769388  0.099157551            1 
  103000    1.2041965    -2.931051    108.08557  0.087447873  0.099132477            2 
  104000    1.2151073   -2.9144599    109.09521  0.087416036  0.099100748            2 
  105000    1.2274093   -2.9139593    110.18434  0.087447889  0.099072887            1 
  106000    1.2100322   -2.9176227    111.94103  0.088003954  0.099056824            1 
  107000    1.2172157    -2.923466    113.42166  0.088334627  0.099048522            4 
  108000    1.2141632   -2.8838786    114.77513   0.08856106  0.099075416            2 
  109000    1.2283183   -2.9182684     115.4658  0.088276608  0.099080675            3 
  110000    1.2138759   -2.9171973    116.57251  0.088312511  0.099076747            2 
  111000    1.2292955   -2.9356041    117.25133  0.088026523   0.09906192            1 
  112000    1.1954103    -2.909514    118.27183  0.087999873  0.099035381            2 
  113000    1.2043206   -2.9310416    119.20542  0.087909598  0.098980734            2 
  114000    1.1978082   -2.9458138    120.36231  0.087984145  0.098922464            2 
  115000    1.2092323   -2.9545093    120.96086  0.087652798  0.098874621            1 
  116000    1.1993399   -2.9231276     122.2336  0.087811491  0.098831674            1 
  117000    1.2133239   -2.9060973    124.90489  0.088963599  0.098793718            1 
  118000    1.2110428   -2.9393174    124.48564  0.087913584  0.098751509            3 
  119000    1.2245284    -2.906095    125.90137  0.088166225  0.098701535            2 
  120000    1.1943402   -2.8869555    127.48465  0.088531006   0.09865006            2 
  121000    1.2036944   -2.9124316    128.90134  0.088775025  0.098610484            1 
  122000    1.1729259   -2.9424335     128.9809  0.088101706  0.098576416            1 
  123000    1.2103758   -2.8805897    130.50801  0.088420062  0.098536661            2 
  124000    1.2004092   -2.9119579    131.42623  0.088324082  0.098500385            1 
  125000    1.2144667   -2.9182326    132.91701  0.088611342  0.098459681            2 
  126000    1.2153373   -2.9231494    134.36842  0.088868005  0.098432881            1 
  127000    1.2008166   -2.9056799    135.05498  0.088618755  0.098392772            1 
  128000    1.1970609    -2.923037    136.58416  0.088921981  0.098366988            1 
  129000    1.1911962   -2.9240484    138.22214   0.08929079  0.098345094            2 
  130000    1.2314591   -2.9317023    139.52296  0.089437793  0.098324856            1 
  131000    1.2061628   -2.9145544    139.76995  0.088912182  0.098294388            2 
  132000    1.1796249   -2.9464587    141.09643  0.089076028   0.09826182            2 
  133000     1.187192   -2.9279042    143.01165  0.089606294   0.09822722            1 
  134000     1.220683   -2.9300218    143.15054  0.089023969  0.098192744            1 
  135000     1.190232   -2.9041806    143.98439  0.088879251  0.098152279            1 
  136000    1.2148126   -2.9395359    144.98622  0.088839595  0.098111455            3 
  137000    1.1958554   -2.9483104    146.43526  0.089072544  0.098062345            2 
  138000    1.2048125   -2.9090391    147.63901  0.089153991  0.098023625            3 
  139000    1.2184588   -2.9094962     148.8559  0.089242145  0.097984365            1 
  140000    1.1896559   -2.8949277    149.31198  0.088876177  0.097923455            2 
  141000    1.2030704   -2.9168505    149.11599   0.08813002   0.09786943            4 
  142000    1.1634463   -2.9234042    151.81545  0.089093574  0.097812355            1 
  143000    1.1736221   -2.9238504    153.25381  0.089308748  0.097768072            2 
  144000    1.1868792   -2.9587122    153.70404  0.088949099  0.097726093            2 
  145000     1.239569   -2.9232122    155.21395  0.089203418  0.097686981            5 
  146000    1.2124085   -2.9370117    156.75834  0.089473938  0.097660735       -1e+20 
  147000    1.2096192   -2.9275549    158.42402  0.089809534  0.097626347            1 
  148000    1.1982514   -2.9490941    158.23277  0.089095027  0.097592454            2 
  149000     1.181086   -2.9196791    159.54729  0.089232266  0.097554571            6 
  150000    1.2025341   -2.9221985    161.76298  0.089868324  0.097520018            1 
  151000    1.1896872    -2.920124    162.61729  0.089744638   0.09748678            2 
  152000    1.1765904   -2.8946291    163.15497  0.089448996  0.097450228            1 
  153000    1.2126519   -2.8977997    163.40369  0.088999833   0.09740164            2 
  154000    1.2142808   -2.9289445    165.26196  0.089427468  0.097351921            2 
  155000    1.1966817    -2.927995    165.85794  0.089170936  0.097304662            1 
  156000    1.1584675   -2.9497676       167.05  0.089236112  0.097259185            3 
  157000    1.1873008   -2.9501266    169.19401  0.089805738  0.097219855            1 
  158000    1.2128203   -2.9456861    170.34361  0.089843674  0.097182214            2 
  159000    1.2288266   -2.9140321    171.83889  0.090062311  0.097151509            2 
  160000    1.1887761   -2.9446548    172.80878  0.090004575  0.097121752            2 
  161000    1.1777473   -2.9440087    172.92139  0.089503826  0.097096876            1 
  162000    1.1921645   -2.9215331       174.17  0.089593619  0.097067997            2 
  163000    1.2236353   -2.9869764     174.6954  0.089312578  0.097042097            2 
  164000     1.190437   -2.9096357      177.012  0.089945124  0.097006631            2 
  165000    1.1779695   -2.9316662    177.32345    0.0895573  0.096975951            4 
  166000    1.1957099   -2.9727526    178.57635  0.089646764  0.096948659            3 
  167000    1.2054554   -2.9268998     179.7684   0.08970479  0.096912185            2 
  168000     1.206808   -2.9812101    180.43522  0.089501597  0.096870099            4 
  169000    1.1796408   -2.9168203    181.29293  0.089394934  0.096815904            3 
  170000    1.1631649   -2.9707456    181.61054  0.089024772  0.096761715            1 
  171000    1.1991862   -2.8969896    183.16197  0.089260219  0.096705883            1 
  172000    1.1973853   -2.9500238    184.99623  0.089629957  0.096654668            2 
  173000     1.164309   -2.9336421    184.78728  0.089011216  0.096592712            2 
  174000    1.1819763   -2.9365791    184.85148  0.088530403  0.096527912            1 
  175000    1.1897741   -2.9337997    186.02454  0.088583115  0.096457626            1 
  176000    1.1952346    -2.940968    189.06628  0.089520017  0.096390361            1 
  177000    1.1680485   -2.9331353    188.62139  0.088804798  0.096323733            2 
  178000     1.175619   -2.9523657    189.61438  0.088770776  0.096260572            2 
  179000    1.2031852   -2.9255998    191.63722  0.089216582  0.096195386            1 
  180000    1.1968816   -2.9759219    192.13303  0.088950477  0.096138452            1 
  181000    1.1549086   -2.9522628    193.46087   0.08907038  0.096083702            3 
  182000    1.1878794   -2.9445599    194.11688  0.088881353  0.096025524            3 
  183000    1.1960656   -2.9794574    196.00155  0.089253895  0.095968438            2 
  184000    1.1841349   -2.9701093    195.97861  0.088758428  0.095908629            2 
  185000    1.1740866   -2.9339136    198.57341  0.089447483  0.095858112            2 
  186000    1.1853151   -2.9387444    198.71169  0.089028535  0.095812472            3 
  187000    1.1857825   -2.9766535    199.74432  0.089012622  0.095760217            3 
  188000    1.1944486   -2.9691554    199.41628  0.088393741  0.095703202            1 
  189000    1.1779836   -2.9390956     201.9891   0.08906045  0.095647922            2 
  190000    1.1589695   -2.9602369    202.71705  0.088910985   0.09559767            1 
  191000    1.1627599   -2.9159148    204.49785  0.089222447  0.095549522            2 
  192000     1.205601   -2.9398009    206.48627  0.089620777  0.095509296            4 
  193000    1.1881964   -2.9866681     207.0599  0.089404102  0.095470281            2 
  194000    1.2054759   -2.9457309    207.59655  0.089173777  0.095429641            2 
  195000    1.1763857   -2.9578914    209.16345   0.08938609  0.095389735            2 
  196000    1.1533338   -2.9706877    210.35017  0.089434594  0.095355068            2 
  197000    1.1772449   -2.9699677    212.29765  0.089804419  0.095320004            2 
  198000    1.1717325   -2.9546934    212.25939   0.08933476  0.095289539            3 
  199000    1.1753638   -2.9450521    213.22461  0.089290039  0.095250952            3 
  200000    1.2023771   -2.9273777     214.2713  0.089279708  0.095213479            3 
  201000    1.1901277   -2.9917571    214.80581  0.089057137  0.095168051            2 
  202000    1.1767484   -2.9630155    215.76649  0.089012576  0.095129852            2 
  203000    1.1912515   -2.9622481    217.74553  0.089386508  0.095094647            2 
  204000     1.154542   -2.9709971     219.2845  0.089577002  0.095063879            2 
  205000    1.1823273   -2.9329501    220.61666   0.08968157  0.095031149            1 
  206000    1.1770668   -2.9686218    221.48614  0.089597952  0.095000389            1 
  207000    1.1550743   -2.9470299    222.29358   0.08949017   0.09496776            4 
  208000    1.1788728   -2.9757386    223.76399  0.089649034  0.094933752            2 
  209000    1.1724173    -2.967232    223.41226  0.089079847  0.094898601            3 
  210000    1.1846652    -2.956804    225.77835  0.089594583  0.094866122            1 
  211000    1.1666459   -2.9761117    225.25287   0.08896243  0.094826765            2 
  212000    1.1654463   -2.9636395    226.48358  0.089026566  0.094793998            2 
  213000    1.1876496   -2.9588162    228.65242  0.089457127  0.094757695            2 
  214000    1.1879021   -2.9707843    230.37308  0.089709141  0.094725041            1 
  215000    1.1591468   -2.9803858    229.16252  0.088822682  0.094687985            2 
  216000    1.1644725   -2.9860089    231.36113  0.089259694  0.094653323            3 
  217000    1.1782482   -2.9439338    233.39502  0.089629423  0.094624777            2 
  218000       1.1655   -2.9780297    234.42901  0.089613538  0.094598472            2 
  219000    1.1433191   -2.9629692    234.97163  0.089410819  0.094570148            4 
  220000    1.1426463   -2.9479933    236.30644  0.089510015  0.094541294            1 
  221000    1.1629644   -2.9644833    237.53054  0.089566568  0.094507853            2 
  222000    1.1926712   -2.9779555    237.15554   0.08902235  0.094473281            2 
  223000    1.1661348   -2.9858314    239.17963  0.089379531  0.094437341            1 
  224000    1.1385239   -2.9560954    240.63517  0.089522012  0.094404487            1 
  225000    1.1919625   -2.9545308     241.6281  0.089491888  0.094369896            3 
  226000    1.1395416   -2.9525065    242.78978  0.089524255   0.09434154            1 
  227000    1.1432512   -2.9657032    243.12507  0.089252963  0.094306899       -1e+20 
  228000    1.1327908   -2.9476842     244.2473  0.089271674  0.094273443            3 
  229000    1.1852991     -2.94968     245.7144  0.089415721  0.094240091            6 
  230000    1.1711433   -2.9784975    246.69965  0.089383932  0.094213894            2 
  231000     1.181191   -2.9852583    248.17713   0.08952999  0.094193701            2 
  232000    1.1893087   -2.9686107    250.02893  0.089809243  0.094179979            7 
  233000    1.1398569   -2.9923687     250.6609  0.089649822  0.094164623            2 
  234000    1.1833347   -2.9659684    254.13514  0.090503966   0.09415342            1 
  235000    1.1738099   -2.9747054    253.58661  0.089924328  0.094138757            2 
  236000    1.1247175    -2.983268    255.25399  0.090132059  0.094121225            1 
  237000    1.1531241   -2.9574777    256.24733  0.090101029  0.094107706            2 
  238000    1.1519918    -2.988185    256.21705  0.089711851  0.094090142            1 
  239000    1.1491202   -2.9656617    257.58585  0.089813756  0.094071228            2 
  240000    1.1447764   -2.9605798    259.02274  0.089938452  0.094057449            2 
  241000     1.157094   -3.0092993    259.18965  0.089622977   0.09404007            1 
  242000    1.1933356   -2.9445576    261.36708  0.090002439  0.094023312            1 
  243000    1.1493505   -2.9617195    262.66676  0.090077764  0.094005936            2 
  244000     1.151477   -2.9975948    262.16253  0.089536382  0.093981147            3 
  245000    1.1330268   -3.0013608    263.45119  0.089609249   0.09395556            2 
  246000    1.1333832   -2.9631039    264.54566  0.089615739  0.093931646            1 
  247000     1.159691   -2.9617646    266.05764  0.089763036  0.093906308            2 
  248000    1.1535577   -2.9557445    266.60784  0.089585968  0.093884563            2 
  249000    1.1513429    -2.962154    267.35286  0.089475521   0.09385692            1 
  250000    1.1629204   -2.9824923    267.67521  0.089225071   0.09382817            3 
  251000    1.1705865   -2.9923992    270.25459   0.08972596  0.093797728            1 
  252000    1.1400787   -2.9664291    271.03161  0.089626856  0.093770206            2 
  253000    1.1416735   -2.9802637    270.52667  0.089106283  0.093739565            3 
  254000    1.1773676   -2.9799631    271.89684  0.089205001  0.093706964            1 
  255000    1.1553615   -2.9498819    273.32689  0.089322512  0.093679362            1 
  256000    1.1466183   -2.9587154    274.41765  0.089328661  0.093650583            1 
  257000    1.1718637   -2.9971806    275.40221  0.089300327  0.093622843            4 
  258000    1.1348874   -2.9699952    275.66178  0.089038043  0.093584672            3 
  259000    1.1556164   -3.0011572    275.85825  0.088757481  0.093545004            3 
  260000    1.1614068   -2.9690434    277.36088  0.088897719  0.093506208            2 
  261000    1.1202684   -2.9963958    277.10317   0.08847483  0.093463773            4 
  262000    1.1675865   -2.9906132    279.94462  0.089040908  0.093421099            3 
  263000    1.1475405   -2.9843215    278.95113  0.088387558  0.093377648            1 
  264000    1.1645332    -2.972209     279.5517   0.08824233  0.093331709            5 
  265000    1.1422718   -2.9859994    281.01084  0.088368188  0.093286382            2 
  266000    1.1233178   -2.9843444     281.3603  0.088145457  0.093241201            6 
  267000    1.1743514   -3.0013602    283.00746  0.088329418  0.093196036            1 
  268000    1.1406888   -3.0000839    285.03643  0.088630729  0.093151596            2 
  269000    1.1866376   -2.9814847     286.2195  0.088667751  0.093113319            2 
  270000    1.1394893    -2.997825    286.54328  0.088439285  0.093076985            2 
  271000    1.1433999   -2.9760297    289.77936  0.089108043  0.093043027            3 
  272000    1.1488521   -3.0179218     289.0058  0.088543445  0.093008353            2 
  273000    1.1468332   -2.9788897    291.94753  0.089117072  0.092974097            1 
  274000    1.1317116   -2.9974194    290.39099  0.088318428  0.092940051            1 
  275000    1.1527571   -3.0069405    293.19306  0.088846382   0.09290362            1 
  276000    1.1270672    -3.002679     293.8378  0.088719144  0.092872832            1 
  277000    1.1428668   -2.9768036    295.14803   0.08879303   0.09283991            2 
  278000    1.1479625    -3.016394    294.14996  0.088174449  0.092801889            3 
  279000    1.1569998   -3.0077688    295.60472  0.088292926  0.092761335            3 
  280000    1.1600355   -3.0062382    295.32086  0.087893113  0.092717674            2 
  281000    1.1336252   -2.9757855    297.34156  0.088179585  0.092671111            2 
  282000    1.1184318   -2.9941253    296.78554  0.087702584  0.092623664            1 
  283000    1.1627692   -2.9823129    298.72858  0.087964835  0.092575949            4 
  284000    1.1185912   -3.0073493    299.77243  0.087961392  0.092527342            2 
  285000     1.133245   -3.0087059    300.12244  0.087755101  0.092477401            1 
  286000    1.1567239   -2.9714784    303.31925  0.088379734   0.09243069            1 
  287000     1.125707   -3.0053381    301.25339  0.087471949   0.09238218            2 
  288000    1.1219575     -3.00032    303.63699  0.087857925  0.092334687            1 
  289000    1.1300513   -2.9925416    305.41507  0.088066628  0.092287383            1 
  290000     1.122295   -3.0136106    306.82781  0.088168909  0.092243085            2 
  291000    1.1480995   -2.9947574    308.45866  0.088332951  0.092201026            1 
  292000    1.1403812   -3.0097063    306.93134  0.087594559  0.092156743            1 
  293000    1.1478144   -3.0244755    308.81305  0.087830787  0.092109453            2 
  294000    1.1474799   -3.0005463    309.46315  0.087716311  0.092059833            2 
  295000    1.1381978   -2.9950982    310.94877  0.087838637  0.092019059            4 
  296000    1.1407134   -3.0086819    313.48377  0.088255565  0.091975678            1 
  297000    1.1490948   -3.0017975    312.43922  0.087665326  0.091936356            1 
  298000    1.1292783   -3.0063526    314.59284   0.08797339   0.09189592            1 
  299000    1.1219376   -3.0079223    315.50146  0.087932402  0.091855289            2 
  300000    1.1400386   -3.0141856     314.5001  0.087361137  0.091813823            5 
  301000    1.1586942   -2.9960337    316.64897  0.087665826  0.091770781            1 
  302000    1.1302398   -2.9940591    317.13473  0.087509584   0.09172546            1 
  303000    1.1228758   -3.0003741    317.93678  0.087441359  0.091679743            2 
  304000    1.1494168   -2.9675295    319.71811  0.087642025  0.091633207            2 
  305000    1.1332355   -3.0084139    320.70447  0.087624173  0.091588549            1 
  306000    1.1155397   -3.0177038    321.27615  0.087493505  0.091547347            2 
  307000    1.1397755   -3.0138538    323.22446  0.087737367  0.091507095            2 
  308000    1.1504973   -3.0184926    324.03637  0.087672178  0.091464118            3 
  309000    1.1287547   -3.0132356    324.32266  0.087465657   0.09142182            3 
  310000     1.117804   -2.9848782    326.02937  0.087642304  0.091382167            2 
  311000    1.1537872   -3.0132252    327.42052  0.087733259  0.091340945            2 
  312000    1.1429005   -2.9817406    326.72025  0.087265024  0.091299592            4 
  313000    1.1380163   -3.0117285    328.50305  0.087460876   0.09125742            2 
  314000    1.1337277   -3.0258748     327.7174  0.086973833   0.09121299            3 
  315000     1.121193   -3.0032402    329.59729  0.087195049  0.091168097            2 
  316000    1.1365014   -3.0144795    329.49075  0.086891021  0.091127498            3 
  317000    1.1343482   -2.9997755    331.33837  0.087102621  0.091084772            2 
  318000    1.1085736   -2.9955154    332.88101  0.087232969  0.091042974            2 
  319000    1.1405877    -2.994566    333.15093  0.087030022  0.090999231            1 
  320000    1.1297116   -3.0278335    333.85617   0.08694171  0.090953528            2 
  321000     1.128514   -3.0106497    335.84639  0.087187536  0.090906917            3 
  322000    1.1482166   -3.0161815    335.10665  0.086725323  0.090862389            1 
  323000    1.1223034   -3.0179556    337.07661  0.086965071  0.090818384            1 
  324000    1.1238816   -3.0171757    339.39208  0.087292201  0.090773796            3 
  325000    1.1061784   -3.0229646    339.60842  0.087079083  0.090732144            1 
  326000     1.152149    -3.048901    339.09366  0.086680383  0.090687915            1 
  327000    1.1418842   -3.0058204    341.93037  0.087138218  0.090645239            1 
  328000    1.1318779   -3.0018616    342.81021  0.087096091  0.090604209            3 
  329000     1.124112   -3.0387978    343.92717  0.087114277  0.090560985            3 
  330000    1.1049106   -3.0138602    344.85431  0.087084423  0.090517108            1 
  331000    1.1151499    -3.010621    345.84577   0.08707094  0.090471289            1 
  332000    1.1167741   -3.0029229    346.54602  0.086984443  0.090428298            1 
  333000    1.1146488   -3.0094936    347.28235  0.086907494  0.090384564            1 
  334000    1.1166164   -3.0102523    346.97972  0.086571787  0.090338144            1 
  335000    1.1059119   -3.0148597    348.55982  0.086706422  0.090294843            2 
  336000    1.1355581   -3.0229891     349.5658  0.086697868  0.090251489            1 
  337000    1.1200499   -3.0235557    350.71468  0.086724698  0.090207155            2 
  338000    1.1263599   -3.0196423    351.74851  0.086723004  0.090166379            1 
  339000    1.1325292   -3.0423611     352.3669  0.086619198  0.090129692            2 
  340000    1.1229661   -3.0211522     354.7662    0.0869525  0.090091895            2 
  341000    1.1337266    -3.031415    353.47242  0.086381334  0.090053743            1 
  342000    1.1268311   -3.0076803    356.77475  0.086933419   0.09001414            1 
  343000    1.0989997   -3.0203822    357.27087  0.086800504  0.089976788            6 
  344000    1.1217867   -3.0333159    357.50708  0.086605397  0.089937764            3 
  345000    1.1373188   -3.0145253    358.85474  0.086679889  0.089897707            2 
  346000    1.1360312   -3.0485627    358.80834  0.086418194  0.089858966            2 
  347000    1.1158728   -3.0155399    361.62909  0.086846563  0.089817207            2 
  348000    1.1122181    -2.996284    361.51021  0.086568538  0.089777881            2 
  349000      1.09489   -3.0372334    361.77271  0.086383167  0.089738545            3 
  350000    1.1152969   -3.0650222    362.36635  0.086277703   0.08969592            2 
  351000    1.1216837   -3.0226659    364.18006  0.086462503  0.089656505            1 
  352000    1.1087283    -3.038412    363.66528     0.086095  0.089617313            3 
  353000    1.1142338   -3.0094084    365.73238  0.086339088  0.089575869            1 
  354000    1.1382445   -3.0352524    365.94493  0.086145227  0.089535503            3 
  355000    1.1131064   -3.0523548    367.89916  0.086361305  0.089494953            4 
  356000    1.1296413   -3.0369817    368.79026  0.086327309  0.089457438            1 
  357000    1.1255035   -3.0675368    368.37766  0.085989183   0.08942086            2 
  358000    1.1107982   -3.0493973    369.94956  0.086114888  0.089380731            5 
  359000    1.0948046   -3.0502755    372.10921  0.086376325  0.089344807            2 
  360000    1.1116172   -3.0305612    372.68311  0.086269239  0.089306269            5 
  361000    1.1293587   -3.0727121    371.14019  0.085674096  0.089269091            2 
  362000    1.1263853   -3.0477071    376.11722  0.086583154   0.08923264            2 
  363000    1.1044185   -3.0114396    377.34287  0.086626002  0.089198572            3 
  364000    1.1152551   -3.0417245    376.56544  0.086210037  0.089161116            1 
  365000     1.093309   -3.0638017    377.62889  0.086216643  0.089123327            4 
  366000    1.0994716   -3.0213973    379.15138  0.086327728  0.089086012            2 
  367000    1.1187231   -3.0220743    379.28314  0.086122421  0.089048845            2 
  368000    1.0958574   -3.0339992    381.19861  0.086322149  0.089013656            2 
  369000    1.1142448   -3.0531642    380.90537   0.08602199  0.088979017            3 
  370000    1.1036727   -3.0543435    382.85882  0.086229463  0.088944576            2 
  371000    1.1162087   -3.0208025    385.13374  0.086508029  0.088908754            3 
  372000    1.1185534   -3.0395714    385.50081  0.086357709  0.088873037            2 
  373000    1.0914614   -3.0187414    384.87233  0.085985774  0.088839313            5 
  374000    1.0934644   -3.0086911     387.5664   0.08635615  0.088803267            2 
  375000     1.115584   -3.0180701    388.13924  0.086253163  0.088768265            3 
  376000    1.1100643   -3.0519488    386.96704  0.085763972  0.088732557            4 
  377000    1.0970825   -3.0342866    388.63663  0.085905533   0.08869614            2 
  378000    1.1034184   -3.0456061    389.35686  0.085837049  0.088659763            4 
  379000    1.1068301   -3.0688881    390.59558  0.085882934  0.088622384            2 
  380000     1.103713   -3.0187247    391.88149  0.085938923  0.088584594            3 
  381000    1.1133955   -3.0109488    393.11641  0.085983466  0.088547115            3 
  382000     1.095743   -3.0437644     392.7169  0.085671227   0.08850975            2 
  383000    1.0722866   -2.9936637     394.0107  0.085729046  0.088471308            1 
  384000    1.0823582   -3.0415335    393.05055  0.085297429  0.088430872            1 
  385000    1.0947496   -3.0677121    394.28822  0.085343771  0.088391854            2 
  386000    1.0658813   -3.0667198    394.31838  0.085129184  0.088354267            3 
  387000    1.0663722   -3.0370517    395.64527  0.085194932   0.08831262            3 
  388000    1.1223514   -3.0552195     397.8802   0.08545537  0.088272685            2 
  389000     1.097655   -3.0659973    397.67269  0.085191236  0.088232849            1 
  390000    1.0992653   -3.0744015    398.64259   0.08518004  0.088193683            2 
  391000    1.0959764   -3.0438314    399.89772  0.085229692  0.088154165            2 
  392000    1.1143347   -3.0189097    401.89798  0.085437496  0.088116675            1 
  393000    1.0985627   -3.0426612     402.3783  0.085321947  0.088080872            6 
  394000    1.1155346   -3.0777082    402.71332  0.085176252  0.088042827            4 
  395000     1.125586   -3.0720184    403.45494  0.085117077  0.088006485            1 
  396000    1.0801325   -3.0442398    405.69231  0.085372961  0.087970133            2 
  397000    1.1005017    -3.024529    408.33031  0.085711652  0.087938243            4 
  398000    1.0818874   -3.0751077    407.84876  0.085395469  0.087905911            1 
  399000    1.1089673   -3.0504984    410.59422   0.08575485  0.087874104            4 
  400000    1.0747176   -3.0725495    410.30961  0.085481169  0.087845827       -1e+20 
  401000    1.1026744   -3.0717676     410.7595  0.085361492  0.087814133            2 
  402000    1.0966674   -3.0334191    411.40518  0.085282998  0.087783475            2 
  403000    1.1057835   -3.0647229    412.57207   0.08531267  0.087750987            4 
  404000    1.1003817   -3.0183475    413.44455  0.085281467  0.087720637            3 
  405000     1.111945   -3.0530346    415.88703  0.085573464   0.08769084            2 
  406000    1.0895308    -3.065248    415.70921  0.085326193  0.087657024            2 
  407000    1.0910484   -3.0528252    415.79636   0.08513439  0.087624639            2 
  408000    1.0774748   -3.0686482    416.63651  0.085097326   0.08758888            1 
  409000    1.1046741   -3.0445899    416.91064  0.084945117  0.087552484            4 
  410000    1.0837871   -3.0630066    418.84707  0.085131518  0.087515558            3 
  411000    1.0930132   -3.0206505    420.51379  0.085262325  0.087479074            2 
  412000    1.1096486    -3.084757    420.22321  0.084996604  0.087444327            1 
  413000    1.0881929   -3.0921641    420.96187  0.084939845  0.087412007            2 
  414000    1.0808308   -3.0492532    422.73211  0.085091005  0.087378662            3 
  415000    1.0748474   -3.0870199    422.87048  0.084913752  0.087343921            3 
  416000    1.1020751   -3.0665102    422.13014  0.084561326  0.087307645            2 
  417000    1.0678773   -3.0636287    422.80429  0.084493264  0.087272506            2 
  418000    1.1152117   -3.0723759    427.39273  0.085205887  0.087238915            2 
  419000     1.084437   -3.0571148    427.13568  0.084951408  0.087205943            3 
  420000     1.091614   -3.0591249    428.21531  0.084963356  0.087171324            3 
  421000    1.0989287   -3.0548282    427.66763  0.084653133  0.087137468            1 
  422000    1.0824261   -3.0783721    428.63969  0.084644489  0.087102295            4 
  423000    1.0726311   -3.1027307    426.42207  0.084007501  0.087064844            5 
  424000    1.1009175   -3.0983449    428.44189  0.084206347  0.087024743            2 
  425000     1.085582    -3.077814    431.35689  0.084579782  0.086986227            3 
  426000    1.0682099   -3.0747244    431.86358  0.084480355  0.086949156            4 
  427000    1.1102868   -3.0672037    431.54691  0.084220708  0.086910685            2 
  428000    1.0975958   -3.0625472    434.91632  0.084679969  0.086872653            1 
  429000    1.0833881   -3.0970691    432.96382  0.084103305  0.086833976            1 
  430000    1.0774308   -3.0717405    435.64147  0.084426641  0.086794038            1 
  431000    1.1049912   -3.0599447    436.02552  0.084305012   0.08675555            1 
  432000     1.067315   -3.0915148     437.6897  0.084430883  0.086716689            2 
  433000    1.0682413   -3.0564044    437.54486  0.084208017  0.086677598            2 
  434000    1.0910636   -3.0530133    436.80564  0.083872051  0.086637675            2 
  435000    1.0715859   -3.0752827    439.47505  0.084190622  0.086598153            2 
  436000    1.0853156   -3.0755489     439.7409  0.084048337  0.086557308            2 
  437000    1.0857162   -3.0593038    441.38455  0.084169442  0.086519643            2 
  438000    1.0549798   -3.0742448    442.48118  0.084185918  0.086482593            5 
  439000    1.0867467   -3.0593444     441.1585  0.083743071  0.086442631            5 
  440000    1.0691852    -3.095292    442.38446  0.083784936  0.086401547            2 
  441000     1.075306   -3.0634953    444.91356  0.084072858  0.086359619            3 
  442000    1.0747374   -3.0988517    440.96586   0.08313836   0.08631797            5 
  443000    1.0742427   -3.0711572    443.89669   0.08350201  0.086276275            2 
  444000    1.0594848    -3.064914    446.01802  0.083712091  0.086234901            3 
  445000    1.0888369    -3.058176    445.76541  0.083476669  0.086193407            1 
  446000    1.0532766   -3.0848726     449.1849   0.08392842  0.086152603            2 
  447000    1.0899305   -3.0570895    447.94575  0.083509648  0.086110866            5 
  448000    1.0883323   -3.0598488    450.80828  0.083855707  0.086070677            3 
  449000    1.0852611    -3.063914    446.95441  0.082953676  0.086030513            2 
  450000    1.0656798   -3.0561518    450.76154  0.083474359  0.085989344            3 
  451000    1.0705163   -3.0529497    452.45054  0.083601357  0.085949659            2 
  452000      1.08208   -3.0809643    452.99383  0.083516561  0.085908393            6 
  453000    1.0743995   -3.0831371    454.04895  0.083526296  0.085867866            1 
  454000    1.0615228    -3.069925    452.05185  0.082975743  0.085828111            3 
  455000    1.0869985   -3.0876058    456.06086  0.083527629  0.085787762            1 
  456000    1.0562658   -3.0976647     454.7807  0.083110508  0.085748599            2 
  457000    1.0606968    -3.044038    455.67209  0.083091191  0.085709272            7 
  458000    1.0803489    -3.094163    458.78484  0.083476135  0.085671303            2 
  459000    1.0723058   -3.1105113    457.36669    0.0830368  0.085632545            1 
  460000    1.0797205   -3.0896279     458.8287  0.083121141  0.085592413            3 
  461000    1.0761764   -3.0808211    460.85889  0.083307825  0.085552072            3 
  462000     1.060741   -3.0757865    461.66989   0.08327379   0.08551468            1 
  463000    1.0606103   -3.0809781    462.43271  0.083231229  0.085476846            4 
  464000    1.0672713   -3.0697442    464.39877  0.083404951  0.085440057            2 
  465000    1.0787283   -3.1119963    462.81298  0.082941395  0.085403065            3 
  466000    1.0715532   -3.1129145    465.01819  0.083157759  0.085367116            2 
  467000    1.0805894    -3.062494    465.40088   0.08304798  0.085330666            3 
  468000    1.0480292   -3.0997992    464.88517  0.082778698   0.08529427            3 
  469000    1.0731577   -3.0538235    467.53295  0.083072664   0.08525692            3 
  470000    1.0839707   -3.0919758    466.65781  0.082740746  0.085218765            2 
  471000    1.0382973   -3.1063491    468.62688  0.082913461   0.08518041            3 
  472000    1.0727898   -3.0915821     469.4482  0.082882803  0.085143615            3 
  473000    1.0520631   -3.1061078    470.68841  0.082926077  0.085104632            2 
  474000     1.049407   -3.0838711    472.54177  0.083076963  0.085066746            3 
  475000    1.0426184   -3.0667185    471.44161  0.082709054  0.085029727            2 
  476000    1.0536577   -3.1244084    474.02793  0.082988083   0.08499143            5 
  477000    1.0795083   -3.0744291    474.22416  0.082848386  0.084955052            2 
  478000    1.0704628   -3.0965448    474.79584  0.082774728  0.084918229            1 
  479000    1.0691296   -3.1032337    475.12051  0.082658404  0.084880634            2 
  480000    1.0554149      -3.1209     476.3862  0.082705937  0.084844123            4 
  481000    1.0779559   -3.1383624    475.94285  0.082457182  0.084804289            2 
  482000     1.042323   -3.1313336    477.50916  0.082556909  0.084765363            4 
  483000    1.0557151   -3.0589693    476.99496  0.082297266  0.084726822            2 
  484000    1.0677225   -3.1101621    479.05534  0.082481981  0.084687303            2 
  485000     1.065381   -3.0749687    479.58141  0.082402304  0.084647455            2 
  486000    1.0456997   -3.1008748    479.69995  0.082253078  0.084607834            2 
  487000    1.0675186   -3.0803424    480.06059  0.082145892  0.084567537            3 
  488000    1.0511755      -3.1054    480.78828  0.082101823  0.084526895            2 
  489000    1.0639239   -3.1050857    480.14795  0.081824805  0.084484893            2 
  490000    1.0533953   -3.0999592    480.89159  0.081784283  0.084444438            2 
  491000    1.0483623   -3.1235714    482.92705  0.081963179  0.084402904            3 
  492000    1.0363596    -3.108396    483.69197  0.081926147  0.084361094            3 
  493000    1.0538251   -3.1089354     485.0868   0.08199574  0.084319778            1 
  494000    1.0683158   -3.1188795    483.65742  0.081588634  0.084278894            3 
  495000    1.0456463   -3.0925301     486.6205  0.081922643  0.084239308            2 
  496000    1.0574904   -3.1315121    486.12718  0.081674593  0.084197848            3 
  497000    1.0611967   -3.0917718    485.31362  0.081373846  0.084154427            4 
  498000    1.0286457   -3.0984741    489.86626  0.081972265  0.084111604            2 
  499000    1.0545602    -3.117662    489.06048  0.081673426  0.084069122            2 
  500000    1.0757205   -3.1048013    489.86333  0.081643888  0.084026406            6 
  501000    1.0361126   -3.1210305    488.97905  0.081333841  0.083984162            4 
  502000    1.0322248   -3.1101079     490.0025  0.081341717   0.08394071            2 
  503000    1.0454814   -3.1066311    491.50906  0.081429599  0.083899653            2 
  504000    1.0685479   -3.1090748    494.29218  0.081728204  0.083859295            3 
  505000    1.0393148   -3.1133264    494.84541  0.081657658  0.083817882            6 
  506000     1.039888   -3.0975035    495.73444  0.081642695  0.083776174            2 
  507000    1.0207487   -3.1158099    494.66814    0.0813064  0.083735132            3 
  508000    1.0511103   -3.0944734    495.35541   0.08125909  0.083694035            3 
  509000    1.0477632   -3.0866627     497.4032  0.081434708  0.083654724            2 
  510000    1.0379303    -3.116957    498.88656  0.081517412  0.083613928            1 
  511000    1.0661934   -3.1157229    495.66572  0.080832636  0.083572362            5 
  512000    1.0766013   -3.1136756    499.75455  0.081340258  0.083531641            2 
  513000    1.0574354   -3.0919615    503.72193  0.081826175  0.083491045            2 
  514000    1.0529764   -3.1093575     501.8567  0.081364575  0.083451501            1 
  515000    1.0647983   -3.1022044    502.80108  0.081359398   0.08341245            2 
  516000    1.0447204   -3.1046579    504.94939  0.081548674  0.083373411            2 
  517000    1.0409415   -3.1235866    507.11874   0.08174061  0.083336746            2 
  518000    1.0408757   -3.1494999    503.52183  0.081004156  0.083297771            3 
  519000    1.0611065   -3.1254154    509.14746  0.081751358  0.083259887            2 
  520000    1.0341065    -3.109117    508.84415  0.081545537  0.083222575            2 
  521000    1.0503003   -3.1055338    509.12503  0.081433946   0.08318499            3 
  522000    1.0460363   -3.1038284    507.74855  0.081058198  0.083147602            2 
  523000    1.0901113   -3.0947056    509.94452   0.08125311  0.083110016            2 
  524000    1.0574266   -3.1155762    512.37743   0.08148496  0.083073619            2 
  525000    1.0194458    -3.108921    511.91752   0.08125675  0.083037383            2 
  526000    1.0513152   -3.1139904     513.4858  0.081350728  0.083001252            1 
  527000    1.0370185   -3.0938162    513.02071  0.081122819  0.082965607            2 
  528000    1.0171969       -3.113    514.54826  0.081210268  0.082929786            1 
  529000    1.0704324   -3.1093204    514.38605    0.0810312  0.082895805            1 
  530000    1.0370051   -3.1228714    517.18088  0.081317748  0.082862037            3 
  531000    1.0428964    -3.092296     518.5826  0.081384588  0.082828769            1 
  532000    1.0764519   -3.1373947    516.26532  0.080868628  0.082794619            2 
  533000     1.044697   -3.1119031     517.7561  0.080949984  0.082758526            3 
  534000    1.0696392   -3.1530088    518.64741  0.080937486   0.08272294            2 
  535000    1.0267663   -3.1195335    521.86286   0.08128705  0.082688366            3 
  536000    1.0351585   -3.0957249    519.79835   0.08081442  0.082653702            3 
  537000    1.0410195   -3.1138456    520.88493  0.080832547  0.082619753            2 
  538000    1.0474395   -3.1340696    520.26416  0.080586146  0.082583507            2 
  539000    1.0483992   -3.1127506    524.44039  0.081082311  0.082548061            2 
  540000    1.0445557   -3.1028813    524.24924  0.080902661   0.08251307            1 
  541000    1.0501982   -3.0968339    523.70536  0.080669341  0.082477399            3 
  542000    1.0448688    -3.102165     525.9387  0.080863884  0.082442828            1 
  543000    1.0339311   -3.1357283    526.63044  0.080821123  0.082406248            2 
  544000    1.0343702   -3.1249537     527.6062  0.080822028  0.082370478            2 
  545000    1.0559493   -3.1276067    528.27523  0.080776028  0.082336339            2 
  546000    1.0442681   -3.1469975    527.43621  0.080500032  0.082301155            2 
  547000    1.0529595   -3.1420904    529.61989  0.080685541   0.08226911            4 
  548000    1.0463474   -3.1120484    532.24371  0.080937304  0.082236726            2 
  549000    1.0640856   -3.1351751    532.73653  0.080864683  0.082203697            1 
  550000     1.036763   -3.1251289    530.55492  0.080387109  0.082171049            3 
  551000     1.058975   -3.1412175     534.5488  0.080845251  0.082138353            2 
  552000     1.046518    -3.120354    534.02307  0.080619424  0.082105585            2 
  553000    1.0447821   -3.1510965    536.52473  0.080850623  0.082074394            6 
  554000    1.0329243   -3.1281025    536.34473  0.080677606  0.082042183            3 
  555000    1.0490914   -3.1433638     538.6009  0.080871006  0.082011106            1 
  556000     1.050237   -3.1673189     536.3133  0.080382689  0.081978754            3 
  557000    1.0365851   -3.1213808    538.81945  0.080613323  0.081947854            3 
  558000    1.0407752   -3.1361937    540.01714  0.080647721  0.081915825            2 
  559000    1.0338664   -3.1505906    538.72493  0.080310812   0.08188336            3 
  560000    1.0293245   -3.1414868    542.07329  0.080665668  0.081850419            2 
  561000     1.028943    -3.145109    540.63613  0.080308397  0.081817269            2 
  562000    1.0128627   -3.1415291    542.85717  0.080494835   0.08178468            3 
  563000    1.0276702   -3.1407444    542.88764   0.08035637  0.081752862            1 
  564000    1.0252603   -3.1753159    544.03614   0.08038359  0.081719697            2 
  565000    1.0437526   -3.1606498    542.96224  0.080082926  0.081685434            1 
  566000    1.0077939   -3.1483042      543.798  0.080064487  0.081651903            2 
  567000    1.0170841   -3.1293564    545.62524  0.080191834  0.081618956            2 
  568000    1.0346327   -3.1811355    543.05341  0.079673328  0.081583873            3 
  569000    1.0416248   -3.1246478    546.60372  0.080053269  0.081549146            2 
  570000    1.0169967   -3.1609438    544.11833  0.079549464  0.081512801            5 
  571000    1.0322177   -3.1502207    545.52996  0.079616164  0.081475303            3 
  572000    1.0231064   -3.1429495    546.37008  0.079599371  0.081438298            6 
  573000    1.0588648   -3.1536425    547.62525  0.079642997  0.081402105            2 
  574000     1.008375   -3.1413062    548.62149  0.079648881  0.081364199            1 
  575000    1.0208807   -3.1389971    547.83074   0.07939576  0.081326139            4 
  576000   0.99553706   -3.1521804    548.90128  0.079412801  0.081287418            2 
  577000    1.0247897   -3.1563151    551.04131  0.079584245  0.081249566            5 
  578000    1.0362056   -3.1440128    550.03686  0.079301738  0.081212026            8 
  579000    1.0251695   -3.1209708     552.9376  0.079582268  0.081174558            2 
  580000    1.0192494   -3.1221228    552.77324  0.079421442  0.081136968            2 
  581000     1.014285   -3.1532464    553.07931  0.079328645   0.08109903            2 
  582000    1.0123094   -3.1540581      555.074   0.07947795  0.081060378            1 
  583000   0.98982224   -3.1151284    555.38715  0.079386385  0.081023774            3 
  584000    1.0166055   -3.1531577    555.91895  0.079326334  0.080986333            4 
  585000    1.0307482   -3.1453557     557.6424  0.079436239  0.080949785            2 
  586000    1.0308319   -3.1522261    556.21802  0.079098125  0.080911966            3 
  587000   0.99671526   -3.1582678     558.4961  0.079286783  0.080873098            3 
  588000    1.0163296   -3.1409308    557.22518  0.078971822  0.080835829            6 
  589000    1.0094104   -3.1561587    558.94084  0.079080481  0.080797608            1 
  590000    1.0240254   -3.1284772    557.07484  0.078682888  0.080759277            1 
  591000    1.0237245   -3.1356573    559.28591  0.078861522   0.08072177            3 
  592000    1.0224486   -3.1436195    561.43776  0.079031217  0.080682404            2 
  593000    1.0113744   -3.1658023    564.26341  0.079295026  0.080644669            2 
  594000    1.0228738   -3.1336602    562.86332  0.078965112  0.080605906            2 
  595000    1.0291173   -3.1677204    563.93673  0.078982735  0.080568133            4 
  596000    1.0037544   -3.1684278    563.23847  0.078752582  0.080529925            2 
  597000    1.0328466   -3.1647644    562.97066  0.078583286  0.080492772            4 
  598000    1.0172333   -3.1509103    561.49465  0.078246189  0.080453365            6 
  599000    1.0139406   -3.1470684    564.38637   0.07851786  0.080414548            3 
  600000    1.0102811   -3.1309098    566.79464  0.078721477  0.080376717            3 
  601000    1.0138555   -3.1739625    564.69526  0.078299398  0.080338132            2 
  602000    1.0124417   -3.1695504    566.00529  0.078350677  0.080299652            4 
  603000    1.0439489   -3.1869786    566.73613  0.078321742  0.080261844            4 
  604000    1.0298851   -3.1492374    567.67399  0.078321466  0.080224003            3 
  605000    1.0006078   -3.1774985    568.57872  0.078316628  0.080184717            3 
  606000   0.98623052   -3.1748874     570.0537  0.078390223  0.080145058            2 
  607000    1.0089452   -3.1658251    569.92369   0.07824323  0.080104634            2 
  608000    1.0017638   -3.1736508    568.64875  0.077939796  0.080064933            1 
  609000     1.013987   -3.1685485    572.61972  0.078355189  0.080025632            6 
  610000    1.0180082   -3.1535799    573.09515  0.078291687  0.079988067            2 
  611000    1.0386443    -3.201299    573.93094  0.078277543  0.079950857            3 
  612000    1.0183805   -3.1430429    575.67959  0.078387744  0.079913522            1 
  613000    1.0142406   -3.1593007    577.74984  0.078541305  0.079874984            3 
  614000   0.99393587   -3.1663845    576.30604  0.078217432  0.079836344            2 
  615000    1.0259234   -3.1849623    573.89123   0.07776304  0.079797609            3 
  616000    1.0300729   -3.1416703    577.15197  0.078077918  0.079759622            5 
  617000     1.005111   -3.1480002     579.2775  0.078238452   0.07972214            2 
  618000    1.0224524   -3.1487693     580.5694  0.078286057   0.07968528            4 
  619000    1.0200291   -3.1588538    581.70984  0.078313118  0.079649429            2 
  620000     0.990652   -3.1639357    581.01012  0.078092757  0.079613559            3 
  621000    1.0192247   -3.1576411    583.35514  0.078281688  0.079576914            3 
  622000    1.0130071   -3.1804302    582.49701  0.078040864  0.079541442            3 
  623000    1.0190073   -3.1693458    583.42192  0.078039315  0.079506258            2 
  624000   0.99574284   -3.1698264    584.00509  0.077992133  0.079469919            1 
  625000   0.99876522   -3.1577313    587.16963  0.078289284  0.079434496            4 
  626000    1.0144266   -3.1916829    584.77789  0.077845833  0.079399056            3 
  627000   0.99546937   -3.1695533     586.8031  0.077990843   0.07936363            2 
  628000     1.002609   -3.1445962     591.5511  0.078496696  0.079328639            2 
  629000    1.0018897   -3.1532781    589.65967  0.078121313  0.079293349            1 
  630000   0.99910456   -3.1454417    590.54901  0.078114948  0.079259337            2 
  631000    1.0099858   -3.1602371    588.88916  0.077771944  0.079225015            1 
  632000    1.0233575   -3.1723204    590.88223  0.077911686  0.079190464            4 
  633000    1.0184931   -3.1533493     590.7881  0.077776211   0.07915387            2 
  634000    1.0042771   -3.1538017    592.90229  0.077931425  0.079119403            2 
  635000    1.0044347   -3.1676499    592.93267  0.077812687   0.07908392            2 
  636000    1.0075548    -3.166748     591.8821  0.077552685  0.079048562            5 
  637000    1.0155787   -3.1554025    594.16148  0.077729131  0.079013912            1 
  638000   0.99060734   -3.1668482    594.85619  0.077698039  0.078978475            3 
  639000   0.97887268   -3.1788079    597.25051  0.077888694   0.07894478            1 
  640000     1.008999   -3.1709295    596.07353  0.077613741  0.078910855            2 
  641000   0.98711375   -3.1869423    595.13865  0.077371119  0.078876187            5 
  642000   0.99338681   -3.1934657    595.98814  0.077360869  0.078841744            1 
  643000   0.99193014   -3.1713033    596.27905   0.07727826  0.078807284            1 
  644000    0.9833187   -3.1738454    598.59686  0.077458186  0.078772611            2 
  645000    1.0198867    -3.150919    600.43716   0.07757586  0.078738104            1 
  646000   0.99727339    -3.190511    599.22192  0.077299009   0.07870335            2 
  647000   0.98246127   -3.1694299    602.57619  0.077611564  0.078667736            2 
  648000   0.98988031   -3.1754893     603.1632  0.077567284  0.078633719            6 
  649000    1.0017742   -3.1952419    600.77801  0.077141501   0.07859885            3 
  650000   0.97167617   -3.2005962    601.16467  0.077072394  0.078563231            3 
  651000    1.0069142    -3.191323    603.78941  0.077289991  0.078528074            4 
  652000    0.9892034   -3.1605661    604.49477  0.077261601  0.078493562            4 
  653000   0.98831669    -3.173158    607.30795  0.077502291  0.078459797            2 
  654000    1.0008174   -3.1638683    608.03906  0.077476944  0.078426021            2 
  655000   0.95816581   -3.1865375    606.72122  0.077190995  0.078391783            2 
  656000   0.99301254   -3.1722612    609.77139  0.077460796  0.078357798            1 
  657000   0.98960694   -3.2053033    609.75061  0.077340259  0.078323953            6 
  658000    1.0146156   -3.1805015    610.54712  0.077323597   0.07828992            3 
  659000   0.99390249    -3.194974    608.23274  0.076913599  0.078255622            1 
  660000   0.99441842   -3.1813441    610.16739  0.077041337  0.078221062            2 
  661000   0.98585512   -3.2308275    609.18548  0.076800993  0.078185726            1 
  662000   0.96852721   -3.1848724    609.83152  0.076766304  0.078150494            3 
  663000   0.97891052   -3.1556155    613.49579  0.077111084  0.078114926            2 
  664000    1.0007826   -3.1739295    613.47863    0.0769928  0.078079526            3 
  665000    1.0071504   -3.1711625    611.03937   0.07657135  0.078044025            2 
  666000   0.97587969   -3.2025482    612.06072  0.076584175  0.078008373            3 
  667000   0.99145121   -3.1717979    613.20915  0.076612838  0.077972184            3 
  668000   0.98480782   -3.1957814    614.38765  0.076645166  0.077935763            2 
  669000   0.98674256   -3.2004882    613.55957  0.076427451  0.077898421            2 
  670000     0.988857   -3.2184352    612.21663  0.076146347  0.077860929            2 
  671000   0.99728633   -3.2030141    616.98758  0.076625382  0.077824287            3 
  672000    0.9907752    -3.196039    615.82139   0.07636674   0.07778723            5 
  673000   0.96648689   -3.1867804    617.35155  0.076442737  0.077750739            4 
  674000   0.98581702   -3.1903314    618.35625  0.076453542  0.077715453            5 
  675000   0.97973964   -3.1734095    619.18081  0.076442076  0.077678822            2 
  676000   0.96680355   -3.2225312    617.19977  0.076084784  0.077642292            3 
  677000    0.9852219   -3.1932007    618.82842  0.076172873   0.07760526            3 
  678000   0.96790867   -3.1927123    617.99335  0.075957884   0.07756865            4 
  679000   0.98413794   -3.1946076    618.06597   0.07585493  0.077532135            2 
  680000    0.9842389   -3.2241673    617.09696  0.075624627  0.077494521            3 
  681000   0.98829516    -3.204783    619.89692  0.075856206  0.077457758            2 
  682000   0.94873284   -3.2206274    621.58934  0.075951776  0.077421084            2 
  683000   0.97768525   -3.1886027    621.90967  0.075879657  0.077383733            3 
  684000   0.97011526   -3.2095851    621.35249  0.075700839  0.077346574            4 
  685000   0.98443326   -3.1816626    626.71261   0.07624241  0.077310796            2 
  686000   0.98869776   -3.2059884    625.06262  0.075930834   0.07727361            4 
  687000   0.98479137    -3.216232    627.85812  0.076159403  0.077237329            2 
  688000   0.96155878   -3.1984469    625.83975  0.075804233  0.077200906            2 
  689000   0.96404516   -3.1933565    626.99233  0.075833616  0.077165132            6 
  690000   0.99510979   -3.2285841    627.17463  0.075745728  0.077129362            3 
  691000   0.96557782   -3.1624125    630.22829  0.076004377  0.077093588            4 
  692000   0.98369569   -3.2004752    627.49992  0.075565982  0.077055897            3 
  693000   0.98424819   -3.2293926    629.38487  0.075683606  0.077019209            2 
  694000    0.9810476   -3.2327502    630.48756  0.075706959   0.07698322            2 
  695000   0.96655136   -3.1816176    631.47088  0.075715933  0.076947364            2 
  696000   0.97449617   -3.2010875    632.26452  0.075702169  0.076911516            2 
  697000   0.97458153   -3.2284908    633.81646  0.075779108  0.076875818            3 
  698000   0.97146619   -3.1960847    634.84779  0.075793671  0.076839383            6 
  699000    0.9711763   -3.2414118    633.36908  0.075508951  0.076803487            4 
  700000   0.96748653   -3.2001924    635.77021   0.07568693  0.076768421            3 
  701000    0.9656716   -3.1986659    636.02216  0.075608911  0.076734114            4 
  702000   0.97311247   -3.2099485    636.19051   0.07552119  0.076700067            2 
  703000   0.96989463   -3.2038272    635.63234  0.075347598  0.076666237            1 
  704000   0.96924352   -3.1931041    639.41814  0.075688701  0.076633145            2 
  705000   0.95720455   -3.2226309    641.26201  0.075799292  0.076599608            2 
  706000   0.97612438   -3.1801068    642.52675  0.075841212  0.076565599            3 
  707000   0.95275527   -3.1821815    643.32832   0.07582842  0.076531611            3 
  708000   0.95808674   -3.2041517    644.19443  0.075823262  0.076498195            2 
  709000   0.96217981   -3.2283602    641.72327  0.075425867  0.076465513            3 
  710000   0.95814149    -3.224926    642.36494  0.075394946  0.076432098            2 
  711000   0.97730088   -3.2226567    643.05092  0.075369306   0.07639845            3 
  712000   0.96495568   -3.1950417    646.51732  0.075669162  0.076364399            5 
  713000   0.98962881   -3.1974392    644.02783   0.07527207  0.076331279            4 
  714000   0.98063751   -3.2219742    645.35432  0.075321466  0.076297872            3 
  715000   0.96657978    -3.200007     646.5078   0.07535056  0.076264114            4 
  716000    0.9852593   -3.2153107     648.8751  0.075520845  0.076231033            5 
  717000   0.96357437   -3.2451827    645.30878  0.075001021  0.076197376            3 
  718000   0.95383656   -3.2224917    644.67054  0.074822486  0.076162531            7 
  719000    0.9702473   -3.2249224    649.56616  0.075285832  0.076128332            5 
  720000   0.95802299   -3.2079884    650.18617  0.075253029  0.076094524            2 
  721000   0.94844221   -3.2091812    649.74202  0.075097321  0.076059785            3 
  722000    0.9707608   -3.2349876    650.37501  0.075066368  0.076024513            3 
  723000   0.96660562   -3.2707905     649.4838   0.07485982  0.075989997            5 
  724000   0.98639345   -3.2182327    650.16941  0.074835337  0.075954266            3 
  725000   0.97163066   -3.2320118    651.44244  0.074878442  0.075918589            3 
  726000   0.98366741   -3.2199492    648.99776  0.074494692  0.075882375            3 
  727000   0.96122859   -3.2378219    652.78493  0.074826333  0.075846032            2 
  728000    0.9678863   -3.2116551     653.2836  0.074780631  0.075810134            1 
  729000   0.96010101   -3.2154598     651.1698   0.07443642  0.075774058            3 
  730000   0.97431713   -3.2285555     653.2705  0.074574258  0.075738201            3 
  731000   0.96388041   -3.2493614    652.62384  0.074398523  0.075702403            5 
  732000     0.946721   -3.2436602    653.83471  0.074434735  0.075665981            2 
  733000   0.97052541   -3.2405539    651.40235  0.074056657  0.075629264            2 
  734000   0.94454349    -3.222615    658.08779  0.074714781  0.075592665            2 
  735000   0.95852113   -3.2413979     654.4636  0.074202223  0.075555814            2 
  736000   0.94731886   -3.2171834    656.25409  0.074304131  0.075518549            3 
  737000   0.94735333   -3.2175374    656.23376  0.074201014  0.075481473            3 
  738000   0.95195605   -3.2359141    655.71458  0.074041845  0.075444981            2 
  739000   0.94066203   -3.2374511    658.29885  0.074233068  0.075407624            2 
  740000   0.92625965   -3.2234745    659.79048   0.07430073  0.075371246            1 
  741000   0.94614507   -3.2127761    659.54031  0.074172325  0.075335294            2 
  742000   0.95472021   -3.2493674    660.71888  0.074204726  0.075299455            2 
  743000    0.9441627   -3.2350889    663.81268  0.074451848  0.075264205            3 
  744000   0.96733962   -3.2686108    660.05281  0.073930646  0.075228963            3 
  745000   0.96230287   -3.2300202    661.51411  0.073994866  0.075192869            2 
  746000   0.95955825   -3.2239925    664.25325  0.074201658  0.075157099            3 
  747000   0.97838426    -3.199532    662.70047  0.073929102  0.075121994            4 
  748000   0.96263697   -3.2356902     664.0617  0.073981918  0.075086596            3 
  749000   0.95504483    -3.240643    664.37066  0.073917519   0.07505107            9 
  750000   0.95275041   -3.2124828    666.89642  0.074099602  0.075016437            3 
  751000   0.95169275   -3.2245235    666.49092  0.073955938  0.074981619            3 
  752000   0.94143522   -3.2352343     667.0103  0.073915149  0.074946367            6 
  753000   0.93915773   -3.2491282     665.5029  0.073650166  0.074911049            3 
  754000   0.94801184   -3.2586038    668.23261  0.073854179  0.074875573            3 
  755000    0.9533946   -3.2371799    669.01248  0.073842437   0.07484052            3 
  756000    0.9542907   -3.2596516    668.16579  0.073651432  0.074804882            4 
  757000   0.95672831   -3.2478375    671.31784  0.073901127  0.074769374            4 
  758000    0.9629601   -3.2214665    669.61886  0.073616849  0.074734541            4 
  759000   0.92867778   -3.2302095    670.14674  0.073577815  0.074699634            6 
  760000   0.94333467    -3.240561    674.19028  0.073924373  0.074665266            2 
  761000   0.95280641    -3.240547    673.09007  0.073706754  0.074631028            2 
  762000   0.93640472   -3.2346244    673.67765  0.073674284  0.074596907            6 
  763000   0.94394161   -3.2336497    675.69865  0.073798454  0.074563674            4 
  764000   0.92963223   -3.2536713    674.76674  0.073600211  0.074529884            2 
  765000   0.93199781    -3.218639    674.87643  0.073515951  0.074495631            6 
  766000   0.94548526   -3.2442722    674.18483  0.073344738  0.074461082            1 
  767000   0.92822878   -3.2254982    676.60188  0.073511721  0.074426897            2 
  768000    0.9357691   -3.2621489    676.29817  0.073383048  0.074393132            3 
  769000   0.93856404   -3.2483073    679.18461  0.073600413  0.074359528            2 
  770000   0.94517979   -3.2343752    681.67005  0.073773814   0.07432496            3 
  771000   0.95638057   -3.2652661    680.20074  0.073519319  0.074291065            3 
  772000   0.96388254   -3.2595883    681.10533  0.073521733  0.074258053            4 
  773000   0.94253274   -3.2436344    682.12415  0.073536454  0.074225134            3 
  774000   0.94071174   -3.2466289    682.55092  0.073487395  0.074191643            3 
  775000   0.94447087   -3.2629268    684.82625  0.073637231  0.074158938            3 
  776000   0.94875975   -3.2822891    684.77266  0.073536582   0.07412605            3 
  777000   0.94493829    -3.255073    684.62827  0.073426456  0.074093397            2 
  778000   0.93916228   -3.2579662    684.65735  0.073335192  0.074060346            3 
  779000   0.92123867   -3.2627481    683.74358  0.073143301  0.074026907            3 
  780000   0.92920317   -3.2691041    685.75842  0.073264788  0.073993719            5 
  781000     0.964767   -3.2710307    686.29811  0.073228565  0.073960684            2 
  782000   0.95593735   -3.2604362    687.52827  0.073266014   0.07392828            7 
  783000   0.94485117   -3.2532824    687.06112  0.073122725  0.073895519            2 
  784000   0.95753191   -3.2784951    687.71966  0.073099453  0.073862733            3 
  785000    0.9467078   -3.2750309    687.00061  0.072930001  0.073829399            5 
  786000   0.96766728   -3.2647249    690.93704  0.073254563  0.073796396            3 
  787000   0.95168317    -3.273538     692.0416  0.073278441  0.073764154            3 
  788000   0.95491993    -3.255456    692.89431  0.073275625  0.073731925            2 
  789000    0.9231858   -3.2853202    690.50629  0.072930533  0.073699621            2 
  790000   0.94657358   -3.2499217    692.88639  0.073089282  0.073666876            2 
  791000   0.94031386   -3.2414512    695.43201  0.073265067    0.0736346            2 
  792000   0.92726076   -3.2569554    694.59893  0.073084904  0.073602357            4 
  793000   0.93074958   -3.2808128    695.08631  0.073043959  0.073569561            1 
  794000   0.92232432   -3.3069715    690.55484  0.072476368  0.073536555            2 
  795000   0.92262958    -3.258642    694.73483  0.072823358  0.073504524            4 
  796000    0.9566733   -3.2706543    694.62658  0.072720538  0.073472044            1 
  797000   0.93919486   -3.2670391    699.38605   0.07312694  0.073439815            2 
  798000   0.92678176   -3.2683669    696.72673  0.072757595  0.073407961            7 
  799000   0.95701213   -3.2981917    696.28855  0.072620834  0.073376575            4 
  800000   0.93894756   -3.2595106    698.93857  0.072806101  0.073344383            2 
  801000   0.96028362   -3.2707071    695.35898  0.072342798  0.073311386            5 
  802000   0.93265537   -3.2754836     700.5149  0.072788331  0.073279423            8 
  803000   0.92218942   -3.2408499    700.69535  0.072716413  0.073247207            1 
  804000   0.93571596    -3.262217    702.50257  0.072813285  0.073214988            3 
  805000   0.93680711   -3.2563717    703.19896  0.072794923  0.073183801            5 
  806000   0.91985486   -3.2852513    700.86394  0.072463186  0.073151773            3 
  807000   0.93028659   -3.2529981    702.70493  0.072563499  0.073120083            3 
  808000   0.94842413   -3.2494466    704.73203  0.072682759  0.073088824            4 
[...]
 1800000   0.54652784   -3.9303027    948.99671  0.043935033  0.042723845           20 
 1801000   0.52661502   -3.9297421    950.80092   0.04399412  0.042697788           11 
 1802000   0.52638262   -3.9177156    952.12167  0.044030784  0.042671756           24 
 1803000   0.52837528   -3.9042731    951.00041  0.043954539  0.042645772            8 
 1804000   0.53291802   -3.9446451    949.86372  0.043877666  0.042619774           30 
 1805000   0.53609449   -3.9215632    950.39688  0.043877972   0.04259383           11 
 1806000   0.53211425   -3.9247916    950.16445  0.043842952  0.042567944           42 
 1807000   0.52568787   -3.9372362    950.41343  0.043830171  0.042541995           18 
 1808000   0.51513821   -3.9441928    951.28546  0.043846122  0.042516091           22 
 1809000   0.51457337   -3.9129518    951.64294  0.043838352  0.042490204           11 
 1810000   0.52466515   -3.9384562    950.16724   0.04374619  0.042464243           10 
 1811000   0.52962782   -3.9272963    948.83422  0.043660695  0.042438262            9 
 1812000   0.54060431   -3.9264782    951.76394  0.043771336  0.042412388           13 
 1813000   0.54078803   -3.9321876    951.50408  0.043735249  0.042386584           18 
 1814000   0.52518862   -3.9414193    951.12683  0.043693809  0.042360767           25 
 1815000   0.53109051   -3.9358084    948.14368  0.043532768  0.042334985           13 
 1816000   0.52448464   -3.9348901    950.26552  0.043606164  0.042309366           12 
 1817000   0.53796196   -3.9244756    950.78811  0.043606132  0.042283688           13 
 1818000   0.52987157   -3.9284058    951.72879  0.043625265  0.042257923           16 
 1819000   0.53473502   -3.9159895    950.67938  0.043553206  0.042232185            7 
 1820000   0.52406733    -3.931366    947.18208  0.043369143  0.042206361            7 
 1821000   0.52115661   -3.9438868    949.29821  0.043442166  0.042180457           19 
 1822000    0.5163025   -3.9436443     949.5763  0.043431042  0.042154502           11 
 1823000   0.52619569   -3.9362433    947.72904  0.043322776  0.042128559           15 
 1824000   0.53477522   -3.9394392    948.33046  0.043326501  0.042102645           44 
 1825000   0.52057608   -3.9444974    948.96892  0.043331914  0.042076808           35 
 1826000   0.52925807   -3.9492961    949.62833  0.043338277  0.042050874           22 
 1827000   0.53782019   -3.9398667    949.38805  0.043303597  0.042025004            8 
 1828000   0.51557156   -3.9611413    946.92372  0.043167566   0.04199894           17 
 1829000   0.54194162   -3.9636248    949.22197  0.043248677  0.041972996           10 
 1830000   0.51372462   -3.9433645    947.38615  0.043141446  0.041947015           15 
 1831000   0.52244598   -3.9357517    948.39628  0.043163857  0.041921056           32 
 1832000   0.52566368   -3.9523532    947.36902  0.043093569  0.041895178           18 
 1833000   0.52253904   -3.9613566    947.46345  0.043074352  0.041869227           14 
 1834000   0.53018408   -3.9619599    950.56412  0.043191754  0.041843303           34 
 1835000     0.518937   -3.9371493    952.41057  0.043252069  0.041817447           13 
 1836000   0.51362913    -3.952495    948.52292  0.043052057  0.041791579           23 
 1837000   0.51521138   -3.9489037    950.21002  0.043105154  0.041765797           15 
 1838000   0.51718582   -3.9479345    947.44244  0.042956223  0.041740028            4 
 1839000    0.5201319   -3.9367755    949.41907  0.043022434   0.04171421           16 
 1840000   0.51889344   -3.9558046     949.1014  0.042984665  0.041688374           12 
 1841000   0.53246724   -3.9384805    951.97249  0.043091277  0.041662615            8 
 1842000   0.51662074    -3.959617    948.94524  0.042930928  0.041636907           13 
 1843000   0.51799196   -3.9515082    948.49613  0.042887327  0.041611168           29 
 1844000   0.52312725   -3.9646217    951.24328  0.042988218  0.041585485            6 
 1845000   0.51462101   -3.9386464    951.25013  0.042965227  0.041559832           12 
 1846000    0.5152444   -3.9630462    949.79998  0.042876489  0.041534186           19 
 1847000   0.51445709   -3.9687383     947.5334   0.04275101  0.041508494           27 
 1848000    0.5112509     -3.94879    948.69333  0.042780183  0.041482797           14 
 1849000   0.52247165    -3.939384    949.62474  0.042799024  0.041457186           25 
 1850000   0.51078797   -3.9544171    948.98771  0.042747194  0.041431593           19 
 1851000   0.51735689   -3.9428657    950.75859  0.042803826   0.04140603           26 
 1852000    0.5150361    -3.958461    951.30324  0.042805221  0.041380512           23 
 1853000   0.51134827   -3.9623284    949.96226  0.042721814  0.041355048           20 
 1854000   0.50714232   -3.9776748    949.81506  0.042692155   0.04132948           20 
 1855000   0.50496248   -3.9518478    950.38442  0.042694718  0.041303997           14 
 1856000   0.51491996   -3.9430731     951.5118  0.042722333  0.041278467           26 
 1857000   0.50556202   -3.9481949    952.32213  0.042735691  0.041253104           33 
 1858000   0.49798791   -3.9638626    951.44038  0.042673142  0.041227721           14 
 1859000   0.51054643   -3.9583054    950.21605  0.042595304   0.04120231           14 
 1860000   0.51944068   -3.9467405    950.98887  0.042607028  0.041176802           11 
 1861000   0.50665483   -3.9790346    951.86824  0.042623511  0.041151359           20 
 1862000   0.51656138   -3.9718593    948.73838  0.042460543  0.041125864           12 
 1863000   0.50325784   -3.9650504    951.65526  0.042568226  0.041100378           16 
 1864000    0.5124495   -3.9700547    951.16445  0.042523446  0.041074925           16 
 1865000   0.50156026   -3.9696334    950.99916   0.04249326  0.041049528           14 
 1866000   0.50424363   -3.9707131    950.02441  0.042426956  0.041024118           15 
 1867000   0.49899329   -3.9682383    948.80333  0.042349729  0.040998645           17 
 1868000   0.50784028   -3.9623969    950.07314  0.042383705  0.040973123           24 
 1869000   0.50170873   -3.9538165    950.57497  0.042383403  0.040947685           20 
 1870000   0.50889891   -3.9636975    952.17302  0.042431953  0.040922319           19 
 1871000   0.50615741   -3.9770062    949.23802  0.042278551  0.040896881           15 
 1872000   0.49840654   -3.9711163    949.79005   0.04228054   0.04087149           21 
 1873000   0.51357501   -3.9648647    950.05981  0.042269969   0.04084606           15 
 1874000   0.50327366   -3.9699829    948.60635   0.04218278  0.040820746           16 
 1875000   0.50315641   -3.9798177    949.67216  0.042207652  0.040795415           15 
 1876000   0.50564479   -3.9908191    950.19611  0.042208427  0.040770112            7 
 1877000   0.49896211     -3.97572    951.53637  0.042245444  0.040744806           17 
 1878000   0.50941278    -3.987843    951.29949  0.042212437  0.040719513           11 
 1879000   0.50317326   -3.9856073    951.46281  0.042197215  0.040694286           10 
 1880000   0.50697528   -3.9639816    952.37402   0.04221516  0.040669147           16 
 1881000   0.50764434   -3.9910905    950.81073   0.04212346  0.040643955           17 
 1882000   0.48689512   -3.9737971    949.15944   0.04202796  0.040618832           15 
 1883000   0.51705075   -3.9650551    952.26238  0.042142962  0.040593819           15 
 1884000   0.50435761   -3.9786638    949.95137  0.042018373  0.040568694           12 
 1885000   0.49808235   -3.9736459     951.1039  0.042047033  0.040543623           33 
 1886000   0.50299699    -3.971269    953.07138  0.042111673  0.040518602           17 
 1887000   0.49869517   -3.9812552    951.52932  0.042021256  0.040493625           22 
 1888000   0.48974587   -3.9827179    951.35865  0.041991466  0.040468641           18 
 1889000   0.51504302   -3.9778767     952.0992  0.042001906  0.040443605           17 
 1890000   0.49330634   -3.9905502    949.97934  0.041886214  0.040418625           21 
 1891000   0.49582475   -3.9774562    954.18896  0.042049575  0.040393651           18 
 1892000   0.50045088    -3.980998    952.59285  0.041957049  0.040368787           17 
 1893000   0.49553638    -3.986906    949.69541  0.041807334  0.040343913           20 
 1894000   0.49988478   -3.9864727    952.23257  0.041896892  0.040319045           30 
 1895000   0.49792447   -3.9861469    952.85262   0.04190205  0.040294251           28 
 1896000   0.50387677    -4.003367    953.30337  0.041899761  0.040269526           24 
 1897000   0.49521132   -3.9643459    953.14513  0.041870723  0.040244771           13 
 1898000   0.49520122   -3.9884973    951.27657  0.041766622  0.040219953           39 
 1899000   0.48517711   -3.9968487    949.51015  0.041667112  0.040195082           57 
 1900000   0.49611765   -4.0036087    951.58474  0.041736173  0.040170205           15 
 1901000   0.49316319   -3.9965837    950.54984  0.041668852  0.040145403           45 
 1902000   0.48127282    -4.005159    952.56678  0.041735313  0.040120608           17 
 1903000   0.49606993   -3.9722104    952.86745  0.041726548  0.040095818           16 
 1904000   0.48024832     -4.02887    952.25292  0.041677736  0.040071033           18 
 1905000    0.4836757   -4.0005511    951.32584  0.041615304  0.040046267           13 
 1906000   0.50600227   -3.9997873    952.02278  0.041623941  0.040021576           32 
 1907000   0.48946102   -3.9948891    950.73041  0.041545639  0.039996854           15 
 1908000   0.48231774   -4.0023943    950.81425  0.041527527  0.039972112           13 
 1909000   0.49044891   -3.9875325    953.63521  0.041628916  0.039947439           14 
 1910000   0.50196169   -3.9981139    951.69082  0.041522287  0.039922824           17 
 1911000   0.48851343    -3.994696     950.1262   0.04143233  0.039898189           14 
 1912000    0.4942064   -4.0071457    950.52029  0.041427837  0.039873421           33 
 1913000    0.4909762   -4.0013644    952.10358  0.041475151  0.039848642           61 
 1914000   0.48745521   -3.9994433    950.19433  0.041370356  0.039823962           38 
 1915000   0.48954803   -4.0107134    951.29525   0.04139666  0.039799295           27 
 1916000   0.49021023   -3.9926276    953.04903  0.041451332  0.039774661           24 
 1917000   0.48143625   -3.9912669    952.72378   0.04141557  0.039749978           12 
 1918000   0.49641811   -4.0110169    950.65801  0.041304223  0.039725344           23 
 1919000   0.49224933   -3.9995374    950.41595  0.041272188  0.039700593           26 
 1920000   0.48946134   -3.9993748    952.19021    0.0413277  0.039675974           28 
 1921000   0.48687771   -3.9968297    950.85086  0.041248085   0.03965134           12 
 1922000   0.47512813    -4.010576     950.0862   0.04119347  0.039626679           19 
 1923000   0.48272595   -4.0110443    950.89153  0.041206948  0.039602067           25 
 1924000   0.48882809   -4.0058454     950.7502  0.041179409  0.039577516           10 
 1925000   0.47699599   -3.9867801    952.17016  0.041219487  0.039553039           15 
 1926000   0.48226403   -3.9856918    953.53688   0.04125722  0.039528643           17 
 1927000     0.484746   -4.0000124    952.10201  0.041173759  0.039504225           18 
 1928000   0.49159513   -4.0191661    952.28508  0.041160316   0.03947969           29 
 1929000   0.48331049   -4.0190492    949.09778  0.041001287  0.039455142           13 
 1930000   0.48631562   -4.0354338    948.80403  0.040967359   0.03943058           19 
 1931000   0.49406815   -4.0337444     951.3581  0.041056365   0.03940598           21 
 1932000   0.48307294   -4.0219214    950.50504   0.04099832  0.039381431           19 
 1933000   0.48128941    -4.025031    950.14746  0.040961694  0.039356808           19 
 1934000   0.47930225   -4.0218754     950.5034  0.040955851  0.039332277           32 
 1935000   0.47748193   -4.0071764    951.81957  0.040991368  0.039307797            9 
 1936000   0.47456425   -4.0266625    951.86255  0.040972045  0.039283325            9 
 1937000   0.46853963   -4.0259295    949.63259  0.040854956  0.039258836            8 
 1938000   0.49108152   -4.0351217    951.30804  0.040905918  0.039234418           21 
 1939000   0.48136781   -4.0152793    950.47052  0.040848828   0.03920997           15 
 1940000   0.46896946   -4.0219551    950.86292  0.040844627   0.03918553           19 
 1941000   0.47365758   -4.0245615    950.35254  0.040801672  0.039161049           26 
 1942000   0.47667673   -4.0375736    949.51984   0.04074493  0.039136692           15 
 1943000   0.48546714    -4.021199    950.33792  0.040759046  0.039112339           14 
 1944000   0.47974392   -4.0193533    951.23158  0.040776388  0.039087971           33 
 1945000   0.48516793    -4.029763    953.74189  0.040862977  0.039063667           55 
 1946000   0.47471419   -4.0305832    951.41416  0.040742299  0.039039348           34 
 1947000    0.4728207   -4.0161033    950.82129  0.040695998  0.039015007           22 
 1948000   0.47123733   -4.0241434    952.59045  0.040750789   0.03899069           50 
 1949000   0.46943345   -4.0474982    949.70016  0.040606301  0.038966376           35 
 1950000   0.47750072    -4.033771    952.47297  0.040703973  0.038942015           34 
 1951000   0.48393422   -4.0338698    949.81162  0.040569435  0.038917684           31 
 1952000   0.48136282   -4.0189791    950.65323  0.040584581  0.038893356           12 
 1953000   0.46504757   -4.0250452    948.95791  0.040491462  0.038869018           28 
 1954000    0.4773785   -4.0479038    949.73958  0.040504076  0.038844671           30 
 1955000   0.47239798   -4.0289733    949.58651  0.040476833  0.038820316           16 
 1956000   0.47207713    -4.023198    950.93455  0.040513572  0.038796035           20 
 1957000   0.46392905    -4.035851    951.03272   0.04049705  0.038771732           25 
 1958000   0.46965968   -4.0267508    949.91098  0.040428625  0.038747427           20 
 1959000   0.46720148   -4.0116404    949.42341  0.040387247  0.038723169           12 
 1960000   0.46651904   -4.0354435     948.1589  0.040312879  0.038698894            9 
 1961000   0.47370383   -4.0501603    950.05336  0.040372827  0.038674631           15 
 1962000   0.46659068   -4.0384619    947.95542  0.040263142  0.038650322           27 
 1963000    0.4714046   -4.0408441    948.71346  0.040274811  0.038626049           68 
 1964000   0.47275856   -4.0422543    949.41139  0.040283919  0.038601821           33 
 1965000   0.47660301   -4.0572137    950.16339  0.040295309  0.038577621           31 
 1966000   0.46868506      -4.0348    952.20472  0.040361339  0.038553409           30 
 1967000   0.46700926   -4.0426315    951.45897  0.040309226  0.038529261           35 
 1968000   0.47118737   -4.0383012    950.51325  0.040248698    0.0385051           21 
 1969000   0.46556356   -4.0563862    950.67064  0.040234918  0.038480874           13 
 1970000   0.46369323   -4.0498661    948.59105  0.040126525  0.038456665           16 
 1971000   0.45846346    -4.037034     948.7173  0.040111504  0.038432492           13 
 1972000   0.46672357     -4.06256    949.94519  0.040143052  0.038408315           27 
 1973000   0.46469438   -4.0486835    948.43028  0.040058721  0.038384074           51 
 1974000   0.46009541    -4.050445    949.75326  0.040094278  0.038359877          116 
 1975000     0.468999   -4.0535468    950.65401  0.040111983  0.038335694           51 
 1976000   0.45936189   -4.0551588    950.60776  0.040089734  0.038311525           58 
 1977000   0.46358838   -4.0635646    948.83765  0.039994843  0.038287328           72 
 1978000   0.46354733   -4.0595304     947.7342  0.039928134  0.038263211           36 
 1979000   0.46090624   -4.0606031    951.34486  0.040059999   0.03823912           57 
 1980000   0.46289003   -4.0693374    948.87489  0.039935812  0.038215022           40 
 1981000   0.46506667   -4.0651641    952.26339  0.040058194  0.038191008           82 
 1982000   0.45747428   -4.0525275    950.89537  0.039980465  0.038166992           35 
 1983000   0.46392531   -4.0522773    949.37391  0.039896365  0.038142965           24 
 1984000   0.46839898   -4.0513553    951.95401  0.039984628  0.038118992           17 
 1985000    0.4569117   -4.0558733    949.28664  0.039852504  0.038095024           14 
 1986000   0.45726078    -4.038654    949.74402  0.039851629  0.038071126           27 
 1987000   0.46385605   -4.0529469    951.77355   0.03991669  0.038047165           31 
 1988000   0.45064415   -4.0812237    949.89576  0.039817897  0.038023265           13 
 1989000   0.46871096   -4.0609589    948.93929  0.039757805  0.037999301           30 
 1990000   0.45355088   -4.0642701    948.50162  0.039719498  0.037975346           18 
 1991000   0.46204186    -4.062837    949.41666  0.039737848  0.037951403           13 
 1992000   0.45871946   -4.0443457    950.12777  0.039747648  0.037927512           26 
 1993000   0.45184003   -4.0601837    950.04023  0.039724044  0.037903696           11 
 1994000   0.46031538     -4.03711    950.12548  0.039707685  0.037879986           14 
 1995000   0.46003792   -4.0696166    948.19788  0.039607263  0.037856255           18 
 1996000   0.45421912   -4.0722038    950.36392  0.039677853  0.037832429           43 
 1997000   0.46003954   -4.0668931    950.01928  0.039643602  0.037808638           26 
 1998000    0.4567759   -4.0633886     950.1576   0.03962953  0.037784798           16 
 1999000   0.46055666   -4.0638915     948.9716  0.039560263  0.037761023           28 
 2000000   0.45508504    -4.053465    950.64069  0.039610029  0.037737263           21 
 2001000    0.4649901    -4.068546    949.20556  0.039530467  0.037713486           25 
 2002000   0.45873805   -4.0605615    947.59702  0.039443765  0.037689724           27 
 2003000    0.4595537   -4.0606125    949.81629  0.039516404  0.037665989           25 
 2004000   0.45421774   -4.0767145    951.18882   0.03955376  0.037642358           28 
 2005000   0.45074153   -4.0686566    949.85896   0.03947876   0.03761875           18 
 2006000   0.45531944   -4.0633822    949.17865  0.039430818  0.037595097           25 
 2007000   0.45729171   -4.0716881    951.33781  0.039500823  0.037571465           32 
 2008000   0.44270625    -4.061756    947.46042  0.039320237  0.037547802           31 
 2009000   0.45707416   -4.0908312    949.49429   0.03938503  0.037524154           22 
 2010000   0.45813727   -4.0758156    947.43342  0.039279992  0.037500572           40 
 2011000   0.45808053   -4.0864026    948.44882  0.039302537  0.037476898           78 
 2012000   0.45140341   -4.0816819     949.8239  0.039339956  0.037453221           27 
Loop time of 4896.8 on 48 procs for 2000000 steps with 4000 atoms

Performance: 70576.655 tau/day, 408.430 timesteps/s
99.4% CPU use with 48 MPI tasks x no OpenMP threads

MPI task timing breakdown:
Section |  min time  |  avg time  |  max time  |%varavg| %total
---------------------------------------------------------------
Pair    | 329.99     | 347.61     | 365.3      |  48.1 |  7.10
Neigh   | 33.094     | 34.155     | 35.279     |  11.5 |  0.70
Comm    | 317.43     | 337.94     | 357.86     |  60.0 |  6.90
Output  | 4.1078     | 4.1095     | 4.1453     |   0.3 |  0.08
Modify  | 4119.2     | 4127.8     | 4138.3     |   6.4 | 84.30
Other   |            | 45.2       |            |       |  0.92

Nlocal:        83.3333 ave          90 max          77 min
Histogram: 2 3 7 9 2 5 12 3 2 3
Nghost:        2220.33 ave        2237 max        2203 min
Histogram: 3 0 6 7 8 8 5 6 2 3
Neighs:        14782.9 ave       16597 max       12985 min
Histogram: 1 3 9 3 11 3 9 5 3 1
FullNghs:      29565.0 ave       32078 max       27016 min
Histogram: 1 3 7 8 2 9 8 6 2 2

Total # of neighbors = 1419119
Ave neighs/atom = 354.77975
Neighbor list builds = 108360
Dangerous builds = 0

#clear
#
#next RN
#
#jump SELF
Total wall time: 1:21:40
