
units lj                  # Use reduced LJ style units
atom_style atomic         # Uncharged point particles
atom_modify map hash      # Needed for indexing of clusters etc
                          # Used to be able to find where atoms are in relation to each other.

# Define a lattice with which to populate the simulation cell. With units
# set to 'lj' the second argument to the lattice command is the reduced
# density rho* and the spacings are multiples of that required to acheive
# that density. Also define a simulation cell called 'box' in lattice units
# and fill it with atoms. Here we're creating a box which is ten lattice
# constants in each direction.
lattice fcc 1.0 spacing 1 1 1                 # All equal sizes - gives the right reduced density.
Lattice spacing in x,y,z = 1.5874011 1.5874011 1.5874011

region box block 0 10 0 10 0 10 units lattice # Defines a region, "box", in lattice units
create_box 1 box                              # Creates a simulation box as specified above,
Created orthogonal box = (0.0000000 0.0000000 0.0000000) to (15.874011 15.874011 15.874011)
  2 by 2 by 7 MPI processor grid
                                              # with one type of atom
create_atoms 1 box                            # Creates particles on lattice points
Created 4000 atoms
  using lattice units in orthogonal box = (0.0000000 0.0000000 0.0000000) to (15.874011 15.874011 15.874011)
  create_atoms CPU = 0.002 seconds


# Set the mass of the first (and only) atom type.
mass 1 1.0

# Lennard-Jones interactions between particles, 3.5 sigma cut-off. Apply
# long range tail corrections to energy and pressure and set all coefficients
# to unity since we work in reduced units here. Note that this doesn't shift
# the potential such that it goes to zero at the cutoff. That would require
# pair_modify('shift', 'yes').
pair_style lj/cut  3.5      # non-GPU version
pair_modify tail  yes
pair_coeff 1  1  1.0  1.0   # Intearaction between 1 and 1 set with epsilon = 1 and sigma = 1

write_data data.*
System init for write_data ...
Neighbor list info ...
  update every 1 steps, delay 10 steps, check yes
  max neighbors/atom: 2000, page size: 100000
  master list distance cutoff = 3.8
  ghost atom cutoff = 3.8
  binsize = 1.9, bins = 9 9 9
  1 neighbor lists, perpetual/occasional/extra = 1 0 0
  (1) pair lj/cut, perpetual
      attributes: half, newton on
      pair build: half/bin/atomonly/newton
      stencil: half/bin/3d
      bin: standard

#############################
#   M E L T   S Y S T E M   #
#############################

velocity all create 2.4 9622624 mom yes dist gaussian # Assign velocities
                                                    # Temperature 2.4, random number seed, zero linear momentum
						                                                        # Gaussian distribution

timestep 0.002   # simulation timestep
thermo 100       # output thermodynamic data every 100 steps

# Define a fix  in this case with index 1 applied to all
# particles in the simulation. This fix is for simulations
# in the anisotropic NPT ensemble. Note that we use the MTK
# correction.
fix 1 all npt temp 2.4 2.4 0.1 iso 5.68 5.68 0.5 mtk yes tchain 5 pchain 5 # Use NPT ensemble
                                                                         # Set temperature and pressure and damping
                                                                         # Numbers of thermostats in chain and in barostat
run 1000         # run for 10000 steps
Per MPI rank memory allocation (min/avg/max) = 3.642 | 3.654 | 3.657 Mbytes
Step Temp E_pair E_mol TotEng Press Volume 
       0          2.4   -8.3859253            0   -4.7868253   -2.2405722         4000 
     100     1.256502   -6.5137603            0   -4.6294785    5.5061441    4089.3939 
     200    1.4710413   -6.2962202            0   -4.0902099    6.1259073    4136.4974 
     300    1.5753793   -6.0048156            0   -3.6423375    5.8881655    4269.3275 
     400     1.695533   -5.7167441            0   -3.1740804    5.9576171    4396.1624 
     500    1.7977703    -5.422775            0   -2.7267936    5.9233545    4540.2438 
     600    1.8751095    -5.133639            0   -2.3216778    5.8305819    4705.3349 
     700    2.0067687   -4.9044304            0   -1.8950299    5.8181833    4845.3775 
     800    2.1683387   -4.7479596            0   -1.4962646    5.6703181    4968.6147 
     900    2.2591539   -4.5766532            0   -1.1887696    5.5447205    5099.1514 
    1000    2.3772702    -4.449968            0  -0.88495416    5.8567059    5140.3387 
Loop time of 0.326179 on 28 procs for 1000 steps with 4000 atoms

Performance: 529770.446 tau/day, 3065.801 timesteps/s
99.5% CPU use with 28 MPI tasks x no OpenMP threads

MPI task timing breakdown:
Section |  min time  |  avg time  |  max time  |%varavg| %total
---------------------------------------------------------------
Pair    | 0.14801    | 0.1618     | 0.18289    |   2.0 | 49.60
Neigh   | 0.028836   | 0.030269   | 0.03221    |   0.5 |  9.28
Comm    | 0.085808   | 0.10685    | 0.12496    |   2.8 | 32.76
Output  | 0.00020803 | 0.00021249 | 0.00027603 |   0.0 |  0.07
Modify  | 0.019245   | 0.024836   | 0.033904   |   2.8 |  7.61
Other   |            | 0.002211   |            |       |  0.68

Nlocal:        142.857 ave         155 max         133 min
Histogram: 2 2 0 6 5 9 1 1 1 1
Nghost:        1918.21 ave        1934 max        1902 min
Histogram: 1 1 4 4 5 4 1 4 1 3
Neighs:        12690.1 ave       13892 max       11313 min
Histogram: 1 1 2 4 5 5 3 3 2 2

Total # of neighbors = 355324
Ave neighs/atom = 88.831000
Neighbor list builds = 87
Dangerous builds = 18

# Equilibrate just above the melting temperature to avoid step fn in T

fix 1 all npt temp 1.25 1.25 0.1 iso 5.68 5.68 0.5 mtk yes tchain 5 pchain 5
run 1000
Per MPI rank memory allocation (min/avg/max) = 3.643 | 3.655 | 3.658 Mbytes
Step Temp E_pair E_mol TotEng Press Volume 
    1000    2.3772702    -4.449968            0  -0.88495416    5.8567059    5140.3387 
    1100    1.9123587   -4.6299409            0     -1.76212    5.7356352    5010.0317 
    1200     1.748463   -4.9742749            0   -2.3522361    5.6314428    4809.1156 
    1300    1.5839166   -5.2240149            0    -2.848734     5.537847    4676.3458 
    1400    1.4493602   -5.3637066            0   -3.1902097    5.9258711    4553.5937 
    1500    1.3475159   -5.4905275            0   -3.4697589    5.8595912    4492.3019 
    1600    1.3105851   -5.6398502            0   -3.6744639     5.695843    4436.2068 
    1700    1.2621862   -5.7135111            0   -3.8207051    5.6775847    4398.9832 
    1800    1.2554554   -5.7810045            0   -3.8982922     5.797944     4358.617 
    1900    1.2634776   -5.8544833            0   -3.9597407    5.6933777     4339.129 
    2000    1.2398732   -5.8281233            0   -3.9687785    5.8601907    4332.3676 
Loop time of 0.312823 on 28 procs for 1000 steps with 4000 atoms

Performance: 552389.589 tau/day, 3196.699 timesteps/s
99.7% CPU use with 28 MPI tasks x no OpenMP threads

MPI task timing breakdown:
Section |  min time  |  avg time  |  max time  |%varavg| %total
---------------------------------------------------------------
Pair    | 0.15369    | 0.1612     | 0.16735    |   1.0 | 51.53
Neigh   | 0.025665   | 0.026512   | 0.027934   |   0.3 |  8.47
Comm    | 0.091455   | 0.099434   | 0.11114    |   1.6 | 31.79
Output  | 0.00021056 | 0.00021511 | 0.00027513 |   0.0 |  0.07
Modify  | 0.019026   | 0.022947   | 0.026206   |   1.6 |  7.34
Other   |            | 0.002516   |            |       |  0.80

Nlocal:        142.857 ave         151 max         135 min
Histogram: 2 2 0 6 4 4 5 3 1 1
Nghost:        2132.14 ave        2154 max        2113 min
Histogram: 3 1 3 2 7 5 3 1 2 1
Neighs:        15062.4 ave       16238 max       13803 min
Histogram: 1 1 3 3 6 5 3 3 1 2

Total # of neighbors = 421746
Ave neighs/atom = 105.43650
Neighbor list builds = 76
Dangerous builds = 11


# Small amount of linear quench

fix 1 all npt temp 1.25 ${temp} 0.1 iso 5.68 5.68 0.5 mtk yes tchain 5 pchain 5
fix 1 all npt temp 1.25 1.99 0.1 iso 5.68 5.68 0.5 mtk yes tchain 5 pchain 5
run 2000
Per MPI rank memory allocation (min/avg/max) = 3.644 | 3.655 | 3.658 Mbytes
Step Temp E_pair E_mol TotEng Press Volume 
    2000    1.2398732   -5.8281233            0   -3.9687785    5.8601907    4332.3676 
    2100    1.2984672   -5.8546582            0   -3.9074443    5.6509304    4346.5956 
    2200    1.3188475   -5.8384894            0   -3.8607127    5.7661542    4341.6354 
    2300    1.3307349   -5.7857662            0   -3.7901628    5.6355263    4379.4422 
    2400    1.3492546   -5.7207646            0   -3.6973887    5.5500172     4412.782 
    2500    1.3944991   -5.6726788            0   -3.5814531    5.5523802    4439.0609 
    2600    1.4217478   -5.5888318            0   -3.4567433    5.7943472    4456.7534 
    2700    1.4736135   -5.5415029            0   -3.3316353    5.7760963    4482.0685 
    2800    1.4828959   -5.4783833            0   -3.2545956    5.5421861    4537.5465 
    2900    1.5124502   -5.3991717            0   -3.1310636    5.6831636    4563.2829 
    3000    1.5990729   -5.3720378            0   -2.9740281    5.7680764    4573.9376 
    3100    1.6385929   -5.3427439            0    -2.885469    5.5535028    4617.2324 
    3200    1.6401118   -5.2487661            0   -2.7892134    5.5191897    4661.0118 
    3300    1.6751342   -5.1749287            0   -2.6628556     5.782686    4677.6687 
    3400    1.7239205   -5.1130481            0   -2.5278138    5.9826362    4687.9107 
    3500    1.7656919   -5.0970148            0    -2.449139    5.7634273    4731.0531 
    3600    1.7954409   -5.0310687            0   -2.3385807    5.8098761    4759.6497 
    3700    1.8598732   -5.0100571            0   -2.2209447    5.8526462    4775.2128 
    3800    1.8941587   -4.9501336            0   -2.1096059    5.7360024    4823.1769 
    3900    1.9106554   -4.9123927            0   -2.0471262    5.5342906    4868.8723 
    4000    1.9751455   -4.8730931            0   -1.9111156    5.7268245    4872.5119 
Loop time of 0.62827 on 28 procs for 2000 steps with 4000 atoms

Performance: 550081.643 tau/day, 3183.343 timesteps/s
99.7% CPU use with 28 MPI tasks x no OpenMP threads

MPI task timing breakdown:
Section |  min time  |  avg time  |  max time  |%varavg| %total
---------------------------------------------------------------
Pair    | 0.30097    | 0.32142    | 0.33716    |   1.7 | 51.16
Neigh   | 0.05027    | 0.052213   | 0.055706   |   0.4 |  8.31
Comm    | 0.1848     | 0.20247    | 0.23283    |   2.7 | 32.23
Output  | 0.00041835 | 0.00042994 | 0.00055426 |   0.0 |  0.07
Modify  | 0.036914   | 0.046595   | 0.053463   |   2.7 |  7.42
Other   |            | 0.005142   |            |       |  0.82

Nlocal:        142.857 ave         157 max         135 min
Histogram: 5 2 5 4 3 7 1 0 0 1
Nghost:        1978.64 ave        1993 max        1960 min
Histogram: 3 2 1 2 4 3 1 5 2 5
Neighs:        13397.8 ave       15367 max       12330 min
Histogram: 7 2 3 4 5 2 2 2 0 1

Total # of neighbors = 375139
Ave neighs/atom = 93.784750
Neighbor list builds = 148
Dangerous builds = 0

#############################
# F R E E Z E  S Y S T E M  #
#############################

# Define solid atoms. This closely follows ten Wolde  Ruiz-Montero and Frenkel  Faraday Discuss  1996  104  93-110
# Compute components of the per-atom q6 vector
compute q6 all orientorder/atom degrees 1 6 components 6 nnn NULL cutoff 1.3 # compute the Q6 parameter.
                                                                             # Use all neighbours within 1.3 unit cell.

# get number of connections
compute coord_number all coord/atom orientorder q6 0.5

# An atom is solid if it has 8 or more connections (of a possible 14)
variable is_solid atom c_coord_number>=8
group solid dynamic all var is_solid    # Must be dynamic to update
dynamic group solid defined

# do clustering
compute cluster solid cluster/atom 1.3 # Create a cluster where all atoms within are solid and max 1.3 units from another member

# define chunks one chunk per cluster
compute clus_chunks solid chunk/atom c_cluster nchunk every compress yes  # Says which atoms are in which chunk

# count the size of each chunk
compute size_chunks solid property/chunk clus_chunks count


# Find the maximum entry in the vector of chunk sizes
variable max_n equal max(c_size_chunks)


# Thermo style which includes this variable
thermo_style custom step temp pe vol v_max_n

thermo ${N}  # Print the thermo information every 100 steps
thermo 100  

# Reset the npt fix at a lower temperature (below freezing)
fix 1  all npt temp  ${temp} ${temp}  0.1  iso  5.68  5.68  0.5  mtk yes tchain  5  pchain  5
fix 1  all npt temp  1.99 ${temp}  0.1  iso  5.68  5.68  0.5  mtk yes tchain  5  pchain  5
fix 1  all npt temp  1.99 1.99  0.1  iso  5.68  5.68  0.5  mtk yes tchain  5  pchain  5

dump dmp2 all dcd ${N} traj_${rand}.dcd
dump dmp2 all dcd 100 traj_${rand}.dcd
dump dmp2 all dcd 100 traj_462431.dcd


# fix rnuntil all halt ${N} v_max_n >= 3980 error soft message no   # Stop when solidified


run 100000 # 5000000  # Run for this many steps
Neighbor list info ...
  update every 1 steps, delay 10 steps, check yes
  max neighbors/atom: 2000, page size: 100000
  master list distance cutoff = 3.8
  ghost atom cutoff = 3.8
  binsize = 1.9, bins = 9 9 9
  4 neighbor lists, perpetual/occasional/extra = 1 3 0
  (1) pair lj/cut, perpetual
      attributes: half, newton on
      pair build: half/bin/atomonly/newton
      stencil: half/bin/3d
      bin: standard
  (2) compute orientorder/atom, occasional
      attributes: full, newton on
      pair build: full/bin/atomonly
      stencil: full/bin/3d
      bin: standard
  (3) compute coord/atom, occasional
      attributes: full, newton on
      pair build: full/bin/atomonly
      stencil: full/bin/3d
      bin: standard
  (4) compute cluster/atom, occasional
      attributes: full, newton on
      pair build: full/bin/atomonly
      stencil: full/bin/3d
      bin: standard
Per MPI rank memory allocation (min/avg/max) = 9.357 | 9.363 | 9.369 Mbytes
Step Temp PotEng Volume v_max_n 
    4000    1.9751455   -4.8730931    4872.5119            3 
    4100    2.0165479   -4.8799594    4869.9847            1 
    4200    2.0015675   -4.8164889     4934.356            1 
    4300    1.9980091   -4.8026686    4934.8728            2 
    4400    2.0289259   -4.8117522     4914.772            1 
    4500    1.9711215     -4.80207    4935.9982            1 
    4600    1.9910827   -4.8313292    4885.1281            2 
    4700    1.9976779    -4.856751    4839.2148            1 
    4800    1.9624588   -4.8818497    4918.4388       -1e+20 
    4900     2.002133   -4.8234231    4911.5239            1 
    5000     2.027003   -4.8179894    4919.0008            1 
    5100    1.9904789   -4.7870766    4929.6484            1 
    5200     1.980076   -4.7875944    4900.6805            1 
    5300    1.9625477   -4.8340042    4889.1491            1 
    5400    2.0280111   -4.8427922    4917.3121            1 
    5500    1.9702786   -4.8151199    4891.2783            1 
    5600    1.9712256    -4.807564    4914.8565            2 
    5700    1.9902602   -4.8250504    4935.6843            2 
    5800    1.9640843    -4.794182    4874.9419            1 
    5900    2.0107619   -4.8488439    4888.9455            2 
    6000    1.9846487   -4.8277313    4950.7677            1 
    6100    2.0174269    -4.785459    4931.4973            1 
    6200    1.9909559   -4.7823117    4919.4789            1 
    6300    1.9148941   -4.8018118    4917.5117            1 
    6400    1.9874062    -4.811118    4906.3384       -1e+20 
    6500     2.011475   -4.7870607    4927.5647       -1e+20 
    6600    2.0032512   -4.8062703    4938.2456            1 
    6700    1.9704773   -4.8145498    4900.4609            1 
    6800     2.001001   -4.7667522    4911.6446            2 
    6900     2.006522   -4.8143103    4931.5449            1 
    7000    1.9936961   -4.8552308    4892.4091            1 
    7100    1.9859911   -4.8090158    4923.1553            1 
    7200     1.971413   -4.7721647    4925.6587       -1e+20 
    7300    2.0051774     -4.74014    4929.3054            2 
    7400    1.9862296   -4.7434395     4948.083            1 
    7500    1.9952248   -4.8399927     4929.656            1 
    7600    1.9985056   -4.7907741    4905.2792            2 
    7700    1.9680798   -4.8451934    4887.2866            1 
    7800    2.0004237   -4.8352659    4926.6228            1 
    7900    2.0149016    -4.805797    4926.0499            1 
    8000    1.9697801    -4.822425    4908.2432       -1e+20 
    8100    2.0158553   -4.8387528     4898.158            1 
    8200     1.955686   -4.7284706    4938.0342            1 
    8300    2.0468746   -4.7562467    4960.1094            1 
    8400    1.9831302   -4.7772389    4947.8763            1 
    8500    1.9763399   -4.7863554    4915.4711            2 
    8600    1.9774705   -4.8188541    4881.0218            1 
    8700    1.9433467   -4.8630569    4876.5872            1 
    8800    1.9793621   -4.8430545    4934.5797            1 
    8900    2.0328505   -4.7845933    4902.8589            1 
    9000     1.975121   -4.8093975    4933.7595            1 
    9100    2.0066885   -4.8371416    4910.8666            1 
    9200    1.9773429   -4.8569488    4891.1235            1 
    9300    1.9688306   -4.8579275    4877.5436            1 
    9400     2.009214   -4.8576345    4892.4121            1 
    9500    1.9983242   -4.8156134    4903.2718            1 
    9600    1.9891715    -4.820266     4942.793            1 
    9700    1.9558962   -4.8416848    4879.7114            1 
    9800    1.9742132   -4.8274252    4869.5031            1 
    9900    1.9783204   -4.8236233    4943.1407            1 
   10000    2.0239622   -4.8105557    4915.4027            1 
   10100    1.9498076   -4.7524496     4925.184            1 
   10200    1.9818184    -4.756828    4924.3791            1 
   10300     1.982957   -4.7904827    4930.5904            1 
   10400    1.9934942   -4.8176513    4900.0952       -1e+20 
   10500    1.9824632     -4.82995    4908.2095            1 
   10600    1.9616668   -4.7758814    4907.5701            1 
   10700    1.9712464   -4.7532074    4923.6494            3 
   10800    2.0123815   -4.7801624    4955.8493       -1e+20 
   10900    2.0310376   -4.8598127    4913.9191            2 
   11000    1.9677246   -4.8252308    4904.0114            1 
   11100    2.0276341   -4.8114578     4922.767            1 
   11200    1.9778515   -4.7832126    4926.2082            1 
   11300    1.9782082   -4.8434601    4905.1119            1 
   11400     1.986816    -4.824406    4889.2082            1 
   11500    1.9910258   -4.8003911    4930.3092            1 
   11600    2.0110563   -4.7502129    4946.3913            1 
   11700    2.0042861   -4.8250803    4906.1896            1 
   11800      1.97995   -4.8151712    4930.2023            1 
   11900    2.0161522   -4.8012784    4918.6082            1 
   12000     2.008289   -4.8225828     4914.944            1 
   12100    1.9769044   -4.8386508    4912.6487            1 
   12200    1.9690944   -4.7778339    4896.7986            1 
   12300    1.9766983    -4.767899    4917.9346            1 
   12400    1.9868947   -4.7745163    4905.0352            1 
   12500       1.9823   -4.8402763    4904.8559            1 
   12600    2.0136707    -4.829694     4910.927            1 
   12700    1.9772786   -4.7626257    4932.7787            1 
   12800    2.0168797   -4.8264396    4901.2984            1 
   12900    1.9854979   -4.8362301    4919.8999            1 
   13000    1.9792419   -4.8013771    4902.3789            1 
   13100    1.9868967   -4.7852077    4897.3866            2 
   13200    1.9708235   -4.8104238    4925.0979            1 
   13300     2.002186   -4.7567179    4943.1261            1 
   13400    2.0284374   -4.7623655    4919.4322            1 
   13500    1.9829119   -4.8170639    4937.4426            2 
   13600     1.975431   -4.8248985    4888.1092            2 
   13700    2.0042292   -4.8427335    4880.0356            1 
   13800    1.9644687   -4.7990364    4940.4648            1 
   13900    2.0146499   -4.7977417    4962.5799            1 
   14000    1.9741608   -4.7804687     4928.728            1 
   14100    2.0426238   -4.8294184    4907.1061            1 
   14200    1.9380016   -4.8306088    4953.0249            1 
   14300    2.0455191   -4.8437249    4893.2929            2 
   14400    1.9708885   -4.7992437    4908.0043            1 
   14500     1.982993   -4.8016063    4918.0533            1 
   14600    1.9547747   -4.8593781    4901.6889            1 
   14700     1.978887   -4.8343866    4885.2308       -1e+20 
   14800    1.9884905   -4.7897698    4916.8117            1 
   14900    1.9929228    -4.805349    4914.6121            2 
   15000     1.990474    -4.838294       4920.2            1 
   15100     2.012461   -4.7977225    4917.1794            1 
   15200    1.9568325   -4.8185114    4891.3267            3 
   15300    1.9817237   -4.8451744     4914.576            1 
   15400    2.0227933   -4.8131162    4905.7462            1 
   15500    1.9576456   -4.8015029    4889.4511            1 
   15600    1.9850271   -4.8515048    4914.9141       -1e+20 
   15700    1.9833215   -4.8151541    4866.0071            1 
   15800    1.9684468   -4.8603194    4872.8624       -1e+20 
   15900    1.9820825   -4.8619637    4917.1481            1 
   16000    1.9877147   -4.7965852    4891.5529            1 
   16100    2.0076508    -4.813823    4905.6124            1 
   16200    1.9636356    -4.843498     4918.845            1 
   16300     2.001711    -4.824781    4902.5051            1 
   16400    1.9774667   -4.8304935    4883.1124            1 
   16500    1.9664514   -4.8577087    4871.8269            1 
   16600    1.9744745   -4.8111545    4893.5869            2 
   16700    1.9605482   -4.8062008    4921.3497            1 
   16800    2.0182677   -4.7790943    4926.6289            1 
   16900    1.9798819     -4.77658    4927.5585            2 
   17000    2.0023709   -4.8025268    4949.1364       -1e+20 
   17100    2.0110213   -4.7607346    4914.8956       -1e+20 
   17200    1.9955593   -4.7995349    4927.6596            1 
   17300    1.9766031   -4.8730584    4929.9257            1 
   17400     1.994538    -4.833331    4866.0991            1 
   17500    1.9624069   -4.8596741    4881.6164            1 
   17600    1.9607773   -4.8205087     4922.192            1 
   17700    2.0255114   -4.7885001    4918.5162            1 
   17800    1.9673428   -4.8049319    4904.0992            1 
   17900    1.9788934   -4.8228467    4890.8319            1 
   18000    1.9719169   -4.8524752    4898.8682            1 
   18100    1.9904321   -4.8124151    4926.1457            1 
   18200    2.0427102    -4.820694    4906.2552            1 
   18300    1.9627856   -4.8495879    4946.7058            1 
   18400     2.018291   -4.8167116    4913.1871            1 
   18500    2.0177975   -4.7937316    4898.1535            1 
   18600    1.9328376   -4.8137838     4923.965            1 
   18700    1.9872022   -4.7996329    4909.0168            1 
   18800     1.990612   -4.8090113    4914.6846            1 
   18900    1.9633142     -4.78175    4919.8509            1 
   19000    1.9892741   -4.8587822    4872.2764            2 
   19100    1.9363759   -4.9132861    4877.1177            1 
   19200    1.9276622   -4.7923086    4907.3151            2 
   19300    2.0233706   -4.8144496    4901.2448            1 
   19400    1.9593057   -4.8036658    4922.9675            1 
   19500    2.0197694   -4.8321354    4910.1053       -1e+20 
   19600    2.0140238   -4.7973553    4936.7547            1 
   19700    2.0084876   -4.8636686    4913.9207       -1e+20 
   19800    1.9695556   -4.8429406     4885.212            1 
   19900    2.0140403   -4.8234822    4919.3554            1 
   20000     1.997765   -4.8064942    4930.7019            1 
   20100    1.9814268   -4.8433807    4890.0997       -1e+20 
   20200    1.9958921   -4.8253872    4888.1973            1 
   20300    2.0291828   -4.8266596     4958.059            1 
   20400    2.0359555   -4.7843853    4928.4355            2 
   20500    2.0026499   -4.8321108    4926.4849            1 
   20600    1.9551058   -4.8242927    4889.1371            1 
   20700    2.0105717   -4.8248487    4877.6723            2 
   20800    1.9590668   -4.8488022    4930.6447            2 
   20900    2.0157109   -4.8134976    4912.1165            1 
   21000    2.0098922     -4.80895    4894.8381            1 
   21100     1.955692   -4.8753558    4900.2954            1 
   21200    2.0087407   -4.9020981    4874.6721            1 
   21300    1.9753094   -4.8688228    4888.8186            1 
   21400    1.9720773    -4.795938    4912.2013            2 
   21500    2.0035822   -4.7970725    4940.5205            2 
   21600    2.0473434   -4.7899244    4928.5879            1 
   21700    2.0017052    -4.861941    4891.9562            1 
   21800    1.9938217   -4.8384881    4913.3831       -1e+20 
   21900    1.9671258   -4.7837172    4912.9303       -1e+20 
   22000    2.0165285   -4.7334984    4888.9475            1 
   22100    2.0078366   -4.7961348    4977.4286       -1e+20 
   22200    2.0007023   -4.8476546    4895.4261            1 
   22300    1.9922161   -4.8306934    4914.3758       -1e+20 
   22400    2.0013269   -4.7997333    4900.5919            1 
   22500    1.9670484   -4.7924117    4913.0338            1 
   22600    1.9914742    -4.788627    4926.3818            1 
   22700    1.9999356   -4.7731801    4919.6237       -1e+20 
   22800    1.9784208   -4.8226063    4899.0678       -1e+20 
   22900    1.9813184   -4.8329605    4922.1974       -1e+20 
   23000     2.012479   -4.7898612    4926.2335       -1e+20 
   23100    1.9693721   -4.8519906     4925.713            1 
   23200    2.0002608   -4.8913403     4876.927            1 
   23300    2.0078917   -4.7950238    4909.0221            1 
   23400    1.9939438    -4.833618    4912.9207       -1e+20 
   23500    1.9661324   -4.8534965    4896.4318            1 
   23600     2.028147   -4.8793241    4883.7151            1 
   23700    1.9782491   -4.8352554    4929.1165            1 
   23800    2.0483068   -4.8269528    4914.1033            1 
   23900    2.0004619   -4.8243193    4904.8433            1 
   24000    1.9862941    -4.852845    4921.1443            2 
   24100     1.974519   -4.8611039    4870.4444            1 
   24200    1.9974759   -4.8293932    4912.1666            1 
   24300    1.9749297   -4.8055312     4905.952            1 
   24400    1.9672837    -4.795885    4884.1105            1 
   24500    1.9841115   -4.7741551     4954.896            1 
   24600    1.9695248   -4.7607035    4911.1759            1 
   24700    1.9943329   -4.7992711    4898.2773            1 
   24800    1.9340217   -4.8348901    4909.2828            1 
   24900    1.9949341   -4.8189742    4892.6652            1 
   25000    1.9706415   -4.7358375    4922.2761       -1e+20 
   25100    1.9699053   -4.7342942    4966.2081            1 
   25200     2.013888   -4.7887111    4906.3385            1 
   25300    1.9860804   -4.8045059    4909.3197            1 
   25400    1.9475656   -4.8223919    4899.6094            1 
   25500    2.0388746   -4.8417947    4882.2916            1 
   25600    1.9518461   -4.8321759    4936.3695            1 
   25700    1.9866505     -4.73952     4923.112            1 
   25800    1.9976414   -4.8005188    4932.0375            1 
   25900      1.93252   -4.7992165    4918.2361            1 
   26000    2.0364378   -4.8381773    4885.4959       -1e+20 
   26100    1.9624411   -4.8284411     4910.472       -1e+20 
   26200    2.0072003   -4.8396199    4901.9002       -1e+20 
   26300     1.973118   -4.7770149    4906.7241            1 
   26400    1.9984193   -4.7892732    4956.6897            2 
   26500    2.0073721   -4.7944314    4901.1933            2 
   26600    1.9696181      -4.8498     4897.515            1 
   26700    2.0056645   -4.8096505    4915.5943            1 
   26800    2.0081138   -4.7848844    4913.5755            2 
   26900    1.9504795   -4.8194701    4911.8407            1 
   27000     2.033423   -4.8419821    4906.8952       -1e+20 
   27100    1.9474022   -4.7907793    4929.3339            1 
   27200    1.9979973   -4.7577791    4914.7232            1 
   27300    2.0057662   -4.7555166    4920.3357            1 
   27400    1.9859261   -4.8366462    4920.8415            1 
   27500    1.9844751   -4.8497392    4875.5043            1 
   27600     1.961524   -4.8355432    4876.5333            2 
   27700    1.9757562    -4.815397    4933.4555            1 
   27800    1.9932117   -4.7973512    4882.7037            1 
   27900    1.9730892   -4.8437612    4900.7812            1 
   28000    1.9870844   -4.7966647    4905.7553            2 
   28100    1.9737318   -4.8081658    4907.1075            1 
   28200    1.9940626   -4.7884538    4910.3409            1 
   28300    1.9982779   -4.8616107    4915.7328            2 
   28400    1.9897341   -4.8298793    4887.8778       -1e+20 
   28500    1.9956414   -4.8311317    4888.2288            1 
   28600    1.9125621    -4.839111    4900.5229            1 
   28700    1.9944958   -4.8398726    4901.1282            2 
   28800    2.0103822   -4.8268261    4916.3892            2 
   28900    2.0268411   -4.7984522    4934.6502            1 
   29000     1.987356   -4.8136409    4920.0106            1 
   29100    1.9622781   -4.7950012    4902.9968            1 
   29200    2.0261914    -4.793607    4923.6696            1 
   29300    1.9953748   -4.8326912    4899.3725            2 
   29400    1.9829543   -4.8511601    4897.0572            1 
   29500    2.0041106   -4.8335402    4887.8939            1 
   29600     1.973232   -4.8731976    4913.2887            3 
   29700    2.0001453   -4.8193147    4911.2744            1 
   29800    2.0201398   -4.7744012    4923.6157       -1e+20 
   29900    1.9785561   -4.8005912    4919.2503            1 
   30000    1.9940846    -4.808096    4912.7108            1 
   30100    2.0305494   -4.7984837    4939.8372            1 
   30200    1.9751645   -4.8016341    4904.5914            1 
   30300    2.0113029   -4.8413021    4909.3075            1 
   30400    1.9796217   -4.8630557    4895.9578            1 
   30500    2.0108481   -4.8304903    4917.8199       -1e+20 
   30600    2.0070919   -4.7622902    4944.3882            1 
   30700    2.0043043   -4.7917746    4936.3035            1 
   30800    1.9902022   -4.8488208    4908.2416            1 
   30900     1.971345   -4.8246104    4896.5924            1 
   31000    1.9928547   -4.7708592    4946.7646            1 
   31100    2.0251221   -4.8493416    4906.9589            2 
   31200    1.9931607   -4.8268717    4911.1882            1 
   31300    1.9807913   -4.7987471    4920.1115            1 
   31400    1.9767392   -4.7806012    4898.4159            3 
   31500     2.023201    -4.843101    4940.9694            1 
   31600    1.9669826   -4.8429506    4900.7705            1 
   31700    1.9900696   -4.8315307    4874.6829            1 
   31800    2.0106013   -4.7992242    4928.5381            1 
   31900    1.9652842   -4.7665742     4959.167            1 
   32000     2.036608   -4.7564722    4909.2703            1 
   32100    1.9910648   -4.8071349    4916.2749            1 
   32200    1.9847633   -4.8259061    4935.3018            1 
   32300     1.975006   -4.8216743    4872.7359            1 
   32400    2.0081194   -4.7981207    4900.6714            1 
   32500    1.9548314   -4.8003852    4945.7894            1 
   32600    2.0462734   -4.8138533    4907.2471            1 
   32700    2.0076152    -4.820744    4914.9099            1 
   32800    1.9756197   -4.8317126    4940.3034            1 
   32900    2.0312945   -4.8123199    4905.7396       -1e+20 
   33000    1.9578131    -4.786618    4884.8343            1 
   33100    1.8904643   -4.8167371    4914.7195            1 
   33200    2.0058736   -4.8164394    4882.0073            1 
   33300    1.9917584   -4.8049337    4915.0522            1 
   33400    1.9964486   -4.7945328    4966.0136            1 
   33500    2.0290182   -4.7614328    4935.6082            1 
   33600     1.978679   -4.7860752    4909.0401            1 
   33700    1.9555556    -4.826437    4908.0664            1 
   33800    2.0016127    -4.780322    4912.9604       -1e+20 
   33900    1.9916183   -4.8361126    4913.9953       -1e+20 
   34000    1.9467063   -4.8081027    4906.6191            1 
   34100    2.0206169    -4.800205    4919.1012            1 
   34200    1.9813393    -4.823876     4929.462            1 
   34300    1.9610479   -4.8769531    4869.0346            2 
   34400    1.9640543   -4.8035743    4893.5947            1 
   34500    1.9964851    -4.786666    4908.9689            2 
   34600    1.9614785    -4.819989    4910.1813            1 
   34700    2.0066136    -4.809568    4893.7207            2 
   34800    1.9820592   -4.7583884    4972.2357            1 
   34900    1.9939434    -4.756881    4910.6922            1 
   35000    1.9790682   -4.7919192    4921.5982            2 
   35100    1.9604095   -4.8436769    4902.3587            1 
   35200    2.0057114   -4.8438467    4885.7762            2 
   35300    2.0030803   -4.7965923    4904.0709            2 
   35400    1.9605077   -4.8729051    4925.1792            1 
   35500    2.0110711    -4.839437     4907.987            1 
   35600    2.0096263   -4.7894513    4921.0272            1 
   35700    1.9720389   -4.7710775    4952.4642            1 
   35800    2.0222428   -4.7848045    4926.0782            1 
   35900    1.9696395   -4.7878857    4932.9077       -1e+20 
   36000    1.9969922   -4.7849771    4942.2069            1 
   36100    2.0280733   -4.7510579    4936.8119            1 
   36200    1.9695846   -4.7643328     4914.966            1 
   36300    1.9855859   -4.8064646    4938.2305            1 
   36400    2.0396792   -4.7814957    4928.0324            1 
   36500    1.9846365   -4.8055691     4928.878       -1e+20 
   36600    1.9571037   -4.7941625    4915.6388            1 
   36700    2.0251959    -4.791562    4908.0858            2 
   36800    1.9734098   -4.8217809    4950.8116       -1e+20 
   36900    1.9822247   -4.8252245    4889.9218            2 
   37000    2.0006528    -4.810636    4879.1388            1 
   37100    1.9700058   -4.8640325     4912.391            1 
   37200    2.0027551   -4.8195298    4919.2675            1 
   37300    2.0053291   -4.7872441    4924.9662            1 
   37400    1.9463346   -4.8187721     4930.591            1 
   37500    1.9816272   -4.7955259    4905.4607            1 
   37600    2.0500226   -4.7574868    4911.1783            2 
   37700    1.9941928   -4.8068601    4932.3602       -1e+20 
   37800    1.9659104    -4.821964    4908.3113            2 
   37900    1.9774971   -4.7779723    4897.9373            1 
   38000    2.0146425   -4.8123194    4928.6878            1 
   38100    1.9432685   -4.8207344    4918.0331            1 
   38200    2.0008323   -4.8303049    4901.4984            1 
   38300    2.0307012   -4.8508006    4918.1933            1 
   38400    1.9980727   -4.8414212    4923.8772            1 
   38500    2.0042065   -4.8535484    4885.0169       -1e+20 
   38600    1.9913975   -4.7597555    4932.3883            1 
   38700    1.9855181   -4.7729556    4928.6981            2 
   38800    1.9603351   -4.8303903    4898.0825            1 
   38900    1.9795872   -4.8327773    4932.8239            1 
   39000    2.0125048   -4.7702117    4915.4511            1 
   39100    1.9872235   -4.7821845    4943.7438            1 
   39200    1.9894942   -4.8185514    4912.3108            1 
   39300    2.0115822   -4.8348915    4882.7906            1 
   39400    1.9478249    -4.819283    4907.4126            2 
   39500    2.0355096   -4.8601524    4900.4257            1 
   39600    1.9645616   -4.8290148    4894.0496       -1e+20 
   39700    1.9572523   -4.8568471    4902.0438            2 
   39800    2.0162944   -4.8115662    4887.9042            1 
   39900    1.9878238    -4.807706    4922.9035            1 
   40000     1.967087   -4.7845643    4956.5051       -1e+20 
   40100     2.023245   -4.7671024    4893.7572            1 
   40200    1.9820509   -4.8479926    4925.3717       -1e+20 
   40300    1.9789415   -4.7730586    4935.9173            1 
   40400    2.0382416   -4.7486366    4951.7156            1 
   40500    1.9759742   -4.7450094    4953.4521            1 
   40600    1.9645319   -4.7762415    4910.2833            2 
   40700     1.978161   -4.8219257    4897.8901            1 
   40800    1.9821327   -4.8004769    4936.1338            1 
   40900    1.9768469   -4.7679016    4906.2278       -1e+20 
   41000    1.9839901   -4.7984611    4892.5883            1 
   41100    1.9249002   -4.8455704    4911.7899            1 
   41200    1.9962392   -4.8396527     4877.331            1 
   41300    1.9996014   -4.7894083    4902.8484       -1e+20 
   41400     1.961757   -4.7939224    4938.3747            2 
   41500    1.9765941   -4.7780711    4918.9235            1 
   41600    2.0094095   -4.7389374    4934.0226            1 
   41700    1.9751031   -4.7965863     4930.292            1 
   41800     2.007652   -4.7950104    4917.3129            1 
   41900    1.9851129   -4.8630091    4891.8797            1 
   42000    1.9678024   -4.8447574    4895.7189            1 
   42100    2.0201248   -4.8367656    4904.7627            2 
   42200    2.0042325   -4.8739892    4908.7398            1 
   42300    2.0024239   -4.8646408    4913.0449            1 
   42400    2.0191382   -4.8187298    4922.8724            1 
   42500    1.9865153   -4.8523405    4877.9043            1 
   42600    1.9895474   -4.8635954    4907.3903            1 
   42700    2.0006127   -4.8062091    4908.3221            1 
   42800     1.962862   -4.7733631    4916.0499            1 
   42900    2.0036411   -4.8183418    4913.2091       -1e+20 
   43000    2.0013807   -4.8185395    4904.0377            1 
   43100    1.9833844   -4.8349194    4922.1369            1 
   43200    1.9914725   -4.8279954    4896.7049            1 
   43300     2.009322   -4.7819459    4911.5801            1 
   43400    1.9847331   -4.8249977    4930.6098            1 
   43500    1.9937469   -4.8351889    4897.9412            2 
   43600    1.9999592   -4.8186992    4916.2308            1 
   43700    2.0050747   -4.7985628    4931.5109            1 
   43800    1.9667707   -4.8279613    4888.9932            1 
   43900    1.9934644   -4.8245192    4891.6191            1 
   44000     1.923909    -4.811284    4907.7327            1 
   44100    2.0177097   -4.8286093    4871.0558            6 
   44200    1.9375675   -4.8090391    4894.5711            1 
   44300    1.9699254   -4.7910502    4933.6056            1 
   44400    2.0175339   -4.7720665    4932.5579            2 
   44500     1.990702   -4.8304677    4944.1529            1 
   44600    1.9382779   -4.7882627    4893.4696            1 
   44700    1.9864852   -4.7900589    4896.8365            1 
   44800    1.9727615   -4.7880611    4926.4441       -1e+20 
   44900    1.9965933   -4.7911408    4916.4376       -1e+20 
   45000    1.9872839   -4.8290555    4893.3656       -1e+20 
   45100    1.9854901   -4.8353796    4922.1503            1 
   45200    1.9886257   -4.7808092    4927.9882            1 
   45300    2.0436709   -4.7812049    4910.6559            1 
   45400    1.9780029   -4.8350229    4946.9881       -1e+20 
   45500    1.9907356   -4.7995571    4893.9545            1 
   45600    2.0144755   -4.8476048    4896.1641            1 
   45700    1.9130826   -4.8229874    4896.3006            2 
   45800    1.9843581   -4.8233455    4895.9435            1 
   45900    1.9821102   -4.8152786    4916.0698            1 
   46000    2.0338885   -4.8020572    4927.5763            2 
   46100    2.0059245   -4.7965136      4930.65       -1e+20 
   46200    1.9945017   -4.8093186    4966.9174            1 
   46300    2.0404071   -4.8633874    4856.4223            1 
   46400    1.9633589   -4.8378114     4903.718            2 
   46500    1.9867891   -4.8335434    4914.4707            1 
   46600    2.0053758   -4.7608395    4931.0584            1 
   46700    2.0108534   -4.8045568    4941.9926            1 
   46800    1.9770871   -4.8154281    4909.3925            1 
   46900    1.9759126   -4.8761008    4877.8478            1 
   47000    1.9805577   -4.8026924    4925.7042            1 
   47100    1.9704668   -4.7873576    4879.5212            1 
   47200     1.975881   -4.8094809    4924.9366            1 
   47300    1.9720676   -4.8266369    4907.9122            2 
   47400    2.0234006   -4.8068177    4891.0015            1 
   47500    1.9994854   -4.8173366    4950.1989            1 
   47600    2.0330264   -4.7807392    4921.0727            1 
   47700     1.974663   -4.8013333     4908.443            1 
   47800    1.9749919   -4.7937053    4931.0151            2 
   47900    1.9999567   -4.7491437    4933.0024            1 
   48000    1.9956632   -4.7747952    4907.9497            1 
   48100     1.991122   -4.8371742    4932.6984       -1e+20 
   48200    1.9798976   -4.8447952    4894.0302            1 
   48300    2.0020687   -4.8412078    4906.1492            1 
   48400    1.9914897   -4.8264456    4926.9686            1 
   48500    2.0288128   -4.8210691    4921.1582            1 
   48600    1.9735344   -4.7904989     4917.036            1 
   48700     1.966642     -4.85369    4886.4669            2 
   48800    1.9993562   -4.8324955    4881.9784       -1e+20 
   48900    1.9944407   -4.8284407    4935.2367            1 
   49000    1.9868439   -4.8020712    4920.0674            1 
   49100    2.0077511   -4.7827601    4919.3441            1 
   49200    1.9797349   -4.8250264    4941.5037            1 
   49300    1.9962405      -4.8247    4879.9652            1 
   49400    1.9802705    -4.853146     4877.184       -1e+20 
   49500    1.9762041   -4.8109429    4942.9438       -1e+20 
   49600    2.0096456   -4.7911796    4932.5228            1 
   49700    1.9627199   -4.7655579    4911.0189            1 
   49800    1.9577626   -4.8233052    4871.9027            1 
   49900    1.9937142   -4.8302633    4904.7743            1 
   50000    2.0062485   -4.8001815    4939.0192            1 
   50100    1.9763101   -4.8199421     4905.603            1 
   50200    1.9721039   -4.8110111    4901.1624            3 
   50300    1.9612949   -4.7710784    4894.9522            1 
   50400    2.0144318   -4.8050125    4890.7915            1 
   50500    1.9431693   -4.8151015    4940.5443            1 
   50600    2.0126398   -4.7758244    4897.7564            1 
   50700    2.0073155   -4.7440401    4936.5934       -1e+20 
   50800    1.9769145   -4.8179006    4956.6119            1 
   50900    2.0070405   -4.8172431     4901.424            1 
   51000    2.0119389   -4.8224986    4910.8256            2 
   51100    1.9343445   -4.8194099    4917.6777            1 
   51200     2.016315    -4.828148     4894.404            1 
   51300    1.9649695   -4.8220528    4898.6872            2 
   51400    2.0050583   -4.7870145    4929.7032            1 
   51500    2.0426665    -4.800956    4929.2792            1 
   51600    1.9744218    -4.819659    4897.6767            1 
   51700    2.0037938   -4.8290567     4891.975            1 
   51800    2.0147072   -4.8035617    4933.8666            1 
   51900    1.9745274   -4.7936429    4911.8677            2 
   52000    1.9615532   -4.7977327    4897.2936            2 
   52100    2.0058098   -4.8079542    4891.4216       -1e+20 
   52200    1.9098291   -4.8017045    4930.6281            1 
   52300    2.0030768   -4.7963114    4892.9845            1 
   52400    2.0003617   -4.7888755    4917.7054            1 
   52500    1.9630218   -4.7962705    4930.2043            1 
   52600    2.0265446   -4.8023871    4907.9348            1 
   52700    1.9484097    -4.810199    4929.9838            1 
   52800    2.0305224   -4.8262789    4909.7122            1 
   52900    1.9769754   -4.8007913    4914.3588       -1e+20 
   53000    2.0080928   -4.8437651    4893.4601            1 
   53100    1.9783175   -4.8519549    4918.7399            1 
   53200    1.9852928   -4.7977735     4947.959            1 
   53300    2.0258862   -4.7622848    4924.3415            1 
   53400    1.9848109   -4.8074714    4920.6045            4 
   53500    1.9668503   -4.8399709    4906.5941            2 
   53600    2.0199381   -4.8411153    4882.7279            1 
   53700    1.9449686   -4.7953322     4936.983            1 
   53800    2.0058743   -4.8096079    4890.2457            1 
   53900    1.9888548    -4.848635    4894.0353            1 
   54000    2.0029183   -4.7895956    4939.9408            1 
   54100    2.0102437   -4.7532813    4932.5854            1 
   54200    1.9850365   -4.8077698    4925.7271       -1e+20 
   54300    1.9674593   -4.7587016     4923.923            1 
   54400    2.0384747   -4.7965158    4938.9879            1 
   54500    1.9880383   -4.8082742    4930.6546            1 
   54600    2.0388462   -4.8249018    4937.7515            1 
   54700    2.0188207   -4.7493118    4961.8215            1 
   54800     1.973385   -4.7639495    4920.5827            1 
   54900    1.9791262   -4.7921028    4898.0117            2 
   55000    1.9754906   -4.8528489     4914.717            1 
   55100    2.0088543   -4.8861815    4916.4442            1 
   55200    2.0087192   -4.7894896    4885.6916            1 
   55300    1.9772858   -4.7589116    4941.5021            1 
   55400    2.0090712   -4.8403683    4916.5917            1 
   55500    1.9678157   -4.8170058    4881.4801       -1e+20 
   55600    2.0142938   -4.8239758    4913.2011            1 
   55700    1.9944742   -4.8208044    4919.6568            1 
   55800    1.9677069    -4.845994    4899.1903            2 
   55900    2.0106369   -4.8621895    4883.5249            3 
   56000    1.9917817   -4.8236723    4929.7861            1 
   56100    1.9883815   -4.7907699    4911.2734            1 
   56200    1.9986789    -4.756362    4874.9782            1 
   56300    1.8989429   -4.7925157    4958.5734            2 
   56400    2.0252963   -4.8126815    4920.5204            1 
   56500    2.0271825   -4.8180329    4940.2132            1 
   56600     1.971787    -4.791812    4925.3968            1 
   56700    1.9777239   -4.7535812    4894.8034            1 
   56800    1.9399774   -4.8074544    4898.8896            1 
   56900    2.0081695   -4.7826551    4912.3189            1 
   57000    2.0093133   -4.7656041    4943.5345       -1e+20 
   57100    2.0077612   -4.8449045    4926.1645            2 
   57200    1.9737315   -4.8361379    4902.6001            1 
   57300    2.0403919   -4.8233699     4920.812       -1e+20 
   57400     1.987264   -4.8224883    4935.0704            1 
   57500    2.0135763   -4.8342697    4903.7143            2 
   57600     2.003301   -4.8590956    4874.8922       -1e+20 
   57700    1.9449017   -4.8504481    4920.6111            2 
   57800    1.9861505   -4.7585263    4888.3115            2 
   57900    1.9914155   -4.7957769    4905.3218            2 
   58000    1.9786794   -4.8384654    4930.5845            1 
   58100    2.0177089   -4.8485181    4875.2315            1 
   58200    1.9179495   -4.7997672    4886.4686            1 
   58300    1.9782154   -4.7947963    4887.0448            1 
   58400    1.9933781   -4.8633882    4889.7703            1 
   58500    1.9448347   -4.8004414    4922.3237            1 
   58600    2.0030967   -4.7720081    4891.3182            2 
   58700    1.9424208   -4.7819305    4900.4073            1 
   58800     1.984073    -4.780592    4925.5278            2 
   58900    1.9786079   -4.7636557    4925.9483            1 
   59000    1.9858675   -4.7880105    4927.9907            2 
   59100    2.0225725    -4.820526    4921.3325            1 
   59200     1.971129   -4.8335354    4895.0136            1 
   59300    1.9872911   -4.8070025    4916.1507            2 
   59400    2.0151034   -4.7718968    4944.8694            1 
   59500    1.9914151   -4.7895461    4929.8314            1 
   59600    1.9988925   -4.8732109    4918.7337       -1e+20 
   59700    1.9571043   -4.8646213    4869.7542       -1e+20 
   59800    2.0099692   -4.8486724    4898.3259       -1e+20 
   59900    2.0079527    -4.821905    4927.2661            1 
   60000    1.9640514   -4.8576977    4922.4334            1 
   60100     2.000563   -4.8146674     4893.942       -1e+20 
   60200    1.9897473   -4.7521513    4928.6843            1 
   60300    1.9928886   -4.7894647    4954.7732            1 
   60400    2.0123009    -4.809319    4913.2901            2 
   60500    2.0028761   -4.8037085    4910.9082            1 
   60600    1.9529893   -4.8180705    4930.3682            2 
   60700    2.0439881   -4.8002424    4907.2796            3 
   60800    2.0024146   -4.8057568    4910.8475            2 
   60900    1.9382235   -4.8414682    4917.4837            2 
   61000    2.0185278   -4.8436335    4879.4061            1 
   61100    1.9822114   -4.8376858    4901.2259            1 
   61200    2.0082279   -4.8311234    4926.7954            1 
   61300    2.0109541   -4.7405373    4940.8644            1 
   61400    1.9589332   -4.8083945    4923.1413            1 
   61500     1.971361    -4.817229    4919.8787            1 
   61600    2.0059573   -4.7666159    4911.0121            2 
   61700    1.9621842    -4.813042    4935.2347       -1e+20 
   61800    2.0229468   -4.7955236    4932.1933            1 
   61900    1.9928791    -4.777731    4943.2406            1 
   62000    2.0120202   -4.7483208    4949.1223       -1e+20 
   62100    2.0159154   -4.8093375    4925.2834            1 
   62200    1.9914345   -4.7883189    4923.0501            1 
   62300    1.9918407   -4.8384719    4905.5399            1 
   62400    1.9480057   -4.8313301    4898.9406            1 
   62500    1.9917907   -4.7705451    4905.4875            3 
   62600    1.9967619   -4.7731306    4952.8303       -1e+20 
   62700    2.0025539   -4.7952062    4935.5749            3 
   62800    2.0002502   -4.7765502     4918.603            1 
   62900    1.9659916   -4.8567554    4919.4652            1 
   63000    1.9634531   -4.8403084    4857.5337            1 
   63100    1.9891993   -4.8582677    4877.7397            1 
   63200    1.9437124   -4.7877329    4912.6808            1 
   63300    2.0181521   -4.8215006    4901.3719            1 
   63400    1.9608918   -4.7916818    4902.9347            3 
   63500    1.9408999   -4.7618155    4897.6653            1 
   63600     2.025902   -4.8230372    4920.7874            1 
   63700    1.9716061   -4.7890485    4933.4536            1 
   63800    1.9964004    -4.796071    4914.3089            1 
   63900    1.9609193    -4.787048    4909.8422            1 
   64000    2.0105888    -4.782403    4937.9039            1 
   64100    1.9960546   -4.8365237    4918.0804       -1e+20 
   64200     1.993505   -4.8356306    4904.0702            1 
   64300    2.0484974   -4.8011329    4939.2459       -1e+20 
   64400    2.0087792   -4.7727453    4930.0682            1 
   64500    2.0125321   -4.8381416    4910.5499            1 
   64600    1.9910058   -4.8444891    4911.5769            1 
   64700    2.0169068   -4.7674938    4934.4513            1 
   64800    2.0316657   -4.7911685    4923.5309            1 
   64900    1.9561918   -4.8238326    4921.8256       -1e+20 
   65000    2.0133033   -4.8068296    4895.1621            1 
   65100     2.050745   -4.8343516    4936.9941            1 
   65200    1.9739863   -4.8117486    4944.5866            2 
   65300    2.0123669   -4.7826833    4886.2707            1 
   65400    1.9599509    -4.808086    4919.5435            2 
   65500    2.0014163   -4.8520212    4926.5879            1 
   65600    2.0263297   -4.8103337    4883.1415            2 
   65700    1.9484156   -4.8182536    4915.8643            1 
   65800    2.0074348   -4.8180285    4932.3693            1 
   65900    2.0665537   -4.7763346    4930.0926            3 
   66000     2.007946   -4.8191739    4928.3609            1 
   66100    1.9825492   -4.8239611    4910.0562            2 
   66200    2.0005738   -4.8443005    4896.1772            1 
   66300    1.9761815   -4.8166219    4919.8433            1 
   66400    1.9749646   -4.8526296    4858.6135            1 
   66500    2.0094657   -4.8754427    4888.1543       -1e+20 
   66600    1.9658909   -4.8090416    4933.8279            1 
   66700    2.0063954   -4.8038907    4894.4249            2 
   66800    1.9701567   -4.8225913    4907.8491            2 
   66900    1.9885992   -4.7828537    4923.8865            1 
   67000    2.0551751   -4.8261724    4918.1533            1 
   67100     1.968315   -4.8396906    4913.5913            2 
   67200    2.0083712   -4.8029347    4911.7164            1 
   67300     2.021335   -4.8559438    4932.2399       -1e+20 
   67400    1.9641367   -4.8301328     4894.112            1 
   67500    1.9988626   -4.8466839    4891.6082            2 
   67600    1.9668814   -4.8156579     4892.803            1 
   67700    2.0188765   -4.8386442    4927.4287       -1e+20 
   67800    1.9751259   -4.8114679    4924.5051            1 
   67900    2.0189506   -4.7644986    4930.1553            1 
   68000    2.0058532    -4.791207    4916.1324            1 
   68100    1.9831675   -4.8398447    4935.6403            2 
   68200    1.9963567   -4.7999994    4905.2204            2 
   68300    1.9750403   -4.7934854    4920.4511            2 
   68400    2.0033978   -4.7833432    4953.4773            1 
   68500    2.0296981   -4.7699097    4922.5859            1 
   68600    1.9693285   -4.7979157    4906.1912            1 
   68700    2.0228378   -4.8000828    4916.8228            1 
   68800    1.9634626    -4.797238    4938.2744            1 
   68900    2.0477398   -4.8548807    4900.9647            1 
   69000    1.9507515   -4.8240201    4892.6934            1 
   69100    1.9844023    -4.846005    4905.1392            1 
   69200    2.0456932   -4.8021735    4916.4321       -1e+20 
   69300    1.9731452   -4.7705127    4944.5711       -1e+20 
   69400     2.033276   -4.7705212    4947.1181            1 
   69500    2.0016228   -4.7879623    4894.0035       -1e+20 
   69600     1.957865   -4.8321506     4927.667            1 
   69700    2.0034406   -4.8116224    4889.2003            1 
   69800    1.9910563   -4.8228483    4910.1194            1 
   69900     1.994644   -4.8113748    4908.4809            1 
   70000    1.9870154   -4.8053891    4912.4834            1 
   70100    1.9873364   -4.7875774    4939.2336       -1e+20 
   70200    1.9577901   -4.7716478     4895.727            1 
   70300    2.0179101   -4.8036392    4917.4981            2 
   70400     1.995627   -4.8500556    4906.0779            1 
   70500    1.9686687   -4.8675195       4912.1            1 
   70600    1.9853869   -4.7846683    4911.0955            1 
   70700    2.0213553   -4.8161076    4903.3825            1 
   70800    1.9713956   -4.8172202    4940.3502            1 
   70900    1.9619435   -4.8168691    4879.2508            1 
   71000    1.9913571   -4.8388478    4885.9396            1 
   71100    1.9756265   -4.7998647    4924.8592            1 
   71200    1.9980924   -4.7880807    4938.1522            1 
   71300    2.0031723   -4.8044534    4926.9719            1 
   71400       1.9971   -4.8232271    4923.6361       -1e+20 
   71500    2.0144339   -4.8143243    4949.0053       -1e+20 
   71600    1.9924403   -4.8437328    4895.8988            2 
   71700    1.9905075   -4.8515692     4895.515            1 
   71800    1.9868229   -4.7687123     4939.502            1 
   71900    1.9924382   -4.7561183    4938.1661            2 
   72000    1.9844057   -4.8064079    4916.5693            1 
   72100    1.9676561   -4.8527605    4902.5742            1 
   72200     2.025591    -4.801747    4890.7728            1 
   72300    1.9658112   -4.7843132     4935.316            1 
   72400    2.0038498   -4.7989508    4923.8515            1 
   72500    2.0053787   -4.8163326    4909.2492            1 
   72600    1.9166513   -4.8209054    4914.1608            1 
   72700    2.0109635   -4.8214964    4870.4489            2 
   72800    2.0090027   -4.8446999    4890.9532            1 
   72900    1.9597586   -4.7944206    4956.5378            1 
   73000    1.9798768   -4.7977561    4897.1658            2 
   73100    1.9958663   -4.8337632    4881.8793            2 
   73200    1.9669948   -4.8520142    4915.3006            1 
   73300    1.9885642   -4.8231438    4871.6919            1 
   73400    1.9883236   -4.8361936    4924.3175            1 
   73500    1.9709941   -4.7794177    4932.6918            1 
   73600    2.0379107   -4.7482819    4933.3678            1 
   73700    1.9846177   -4.7691355    4910.9239            1 
   73800    1.9612657   -4.8205574    4904.7397            1 
   73900     2.037743    -4.807807    4907.3468            1 
   74000    1.9826327   -4.7534354    4940.3031            2 
   74100    2.0339565   -4.7788385    4952.1924            1 
   74200    2.0002742   -4.8024126     4909.104            1 
   74300    1.9836402   -4.8305473    4911.9901            1 
   74400    1.9742634   -4.8286955    4918.3436       -1e+20 
   74500    2.0433945   -4.8498928    4907.4889            1 
   74600    1.9739242   -4.8199798    4893.5174            1 
   74700    2.0015115    -4.838397     4918.209            1 
   74800    2.0365132   -4.7665198    4927.3745            1 
   74900     1.993263   -4.7781735    4926.8214            1 
   75000    1.9500178   -4.8168058    4916.9978            1 
   75100    2.0117737   -4.8282132    4900.6673       -1e+20 
   75200    1.9704146   -4.7991361    4894.3967            1 
   75300    1.9664416   -4.8124336    4903.8395       -1e+20 
   75400    1.9660302   -4.7426924    4933.7943       -1e+20 
   75500    1.9707267   -4.7815658    4923.9093            1 
   75600    1.9878434   -4.8332805    4912.2607            1 
   75700    2.0064321   -4.8441771    4904.7923            1 
   75800    1.9896541   -4.8267468    4904.1476            1 
   75900    1.9502945   -4.7977513    4903.9932            1 
   76000    2.0212536    -4.819743    4872.4575            2 
   76100    1.9425308   -4.8191166    4955.3744            1 
   76200    2.0360898   -4.8149894    4926.0192            1 
   76300    1.9913672   -4.7880658    4897.0646            1 
   76400     1.934804   -4.8279607     4917.331            2 
   76500    2.0141841   -4.8001141    4897.7844            1 
   76600     1.959628   -4.8017788     4903.866            1 
   76700    2.0298411   -4.8239059    4934.6689            2 
   76800    1.9762815    -4.798405    4938.8275            1 
   76900     1.981441    -4.803064    4902.5672       -1e+20 
   77000    2.0197216   -4.8084664    4938.7308            1 
   77100    1.9847458   -4.8342934    4908.2995            3 
   77200    2.0030212   -4.8100245     4924.852       -1e+20 
   77300    1.9767404   -4.8172179    4909.7912            1 
   77400    1.9743601   -4.7978784    4919.6655            2 
   77500    1.9823747    -4.781644     4906.492            2 
   77600     2.018392   -4.7727788    4920.9866            1 
   77700    1.9925456   -4.8017596    4951.8473            1 
   77800    1.9940665   -4.8321445    4907.6167            1 
   77900    1.9644129   -4.8767509    4869.7648            2 
   78000    1.9742728   -4.8065664    4911.7194            1 
   78100    2.0186714   -4.7981337    4905.9296            1 
   78200    1.9529093   -4.8243246    4911.1942            1 
   78300    1.9936135    -4.833062    4909.0962            1 
   78400    2.0023399   -4.7709144    4917.5096            1 
   78500    1.9696648   -4.8144856    4920.0829            1 
   78600    1.9987182   -4.8588777    4873.5294       -1e+20 
   78700    1.9713385    -4.857411    4914.8063            1 
   78800    1.9920416   -4.7988291    4914.3369            1 
   78900    2.0085178   -4.7973205    4905.4623            1 
   79000    1.9692278   -4.8346369    4937.7075            1 
   79100    1.9882685   -4.8096088     4875.631            1 
   79200    1.9982596   -4.8761265     4874.534       -1e+20 
   79300    1.9665396    -4.802144    4926.4668            3 
   79400    2.0366608    -4.816362    4937.6092            1 
   79500    1.9794511   -4.7890081    4916.1293            1 
   79600    1.9906248   -4.8542432    4901.8765            1 
   79700    2.0138684   -4.8722167    4877.3941            1 
   79800    1.9764792   -4.8119859    4963.9319       -1e+20 
   79900     1.999612   -4.7483434    4930.1379            1 
   80000    2.0045637   -4.7714049    4915.1647            1 
   80100    1.9779971   -4.8060755    4913.3188            1 
   80200    2.0274697   -4.8455896    4921.4012            1 
   80300    2.0044108   -4.7569286    4948.0004       -1e+20 
   80400    1.9699289   -4.7676103    4895.9138            1 
   80500    1.9762875   -4.8255461    4917.8626            1 
   80600    1.9942404    -4.782846    4919.6136            1 
   80700    1.9477373   -4.8081335    4894.2997            1 
   80800    2.0078161   -4.8210643    4909.5072            1 
   80900    1.9885131   -4.7760855    4909.7285            1 
   81000    1.9656952   -4.8183551    4907.2084            1 
   81100     2.035009   -4.8290706    4914.0412       -1e+20 
   81200     2.017062   -4.7641931    4955.3413            1 
   81300    1.9863247   -4.7750849    4948.2982            1 
   81400    1.9654815   -4.7911147     4912.871            1 
   81500    2.0212576   -4.7604144    4908.8954            1 
   81600    1.9862582   -4.7876891    4940.7758            1 
   81700    1.9673664   -4.8242507    4913.1685            2 
   81800    2.0173495   -4.7803159    4877.7509       -1e+20 
   81900    1.9518271    -4.783126    4942.0021            1 
   82000    1.9808858   -4.7801565    4926.8551       -1e+20 
   82100    2.0342289   -4.8138468    4898.1481            2 
   82200    1.9554489   -4.8498212    4930.7797            1 
   82300    2.0084499   -4.8551827    4876.3187            1 
   82400    2.0006492   -4.8693814    4883.0632            1 
   82500    1.9571743   -4.8333065    4898.2722            1 
   82600     1.999263   -4.7992947    4919.3748            1 
   82700    1.9930048   -4.8126344    4907.4762            1 
   82800    1.9418792   -4.8268725    4889.0555            1 
   82900    2.0151633   -4.8293367    4910.0672            1 
   83000    2.0078441   -4.8232851    4940.0112            1 
   83100    2.0008301   -4.7967009     4907.538       -1e+20 
   83200     1.994122   -4.7934467    4888.3824            1 
   83300    1.9784558   -4.8282593    4939.5244       -1e+20 
   83400    1.9883769   -4.8353069    4906.4466            1 
   83500    2.0168051   -4.7976062    4882.3943            1 
   83600    1.9348829   -4.8273227    4929.0207            1 
   83700    2.0296858   -4.8335419    4905.5045            1 
   83800    1.9927065   -4.8353465    4910.9991            1 
   83900    1.9738989   -4.8666821     4886.192            1 
   84000    2.0023202    -4.809595    4913.3322            1 
   84100    2.0111964   -4.7832367    4932.3631            1 
   84200    1.9844589   -4.7680863    4942.3276            1 
   84300    1.9840947   -4.7697938    4915.5702            1 
   84400    2.0120849   -4.7947892    4942.2307            1 
   84500    1.9868518   -4.8181482    4913.3348            1 
   84600    1.9800625   -4.8237353    4897.4263            1 
   84700    1.9896924   -4.8165899    4914.6879            1 
   84800    1.9862362   -4.7880441    4920.8446       -1e+20 
   84900    2.0175735   -4.8014861    4885.2655            2 
   85000    1.9473024   -4.8416455    4933.5518            2 
   85100    2.0140546   -4.8417307    4898.7673            1 
   85200    1.9773607   -4.8247229    4892.6388       -1e+20 
   85300    2.0115898    -4.794996    4940.4511            1 
   85400    2.0342625   -4.7416481    4942.6711            1 
   85500    1.9933504   -4.7969764     4933.742            2 
   85600    1.9619078   -4.8132882    4901.2929            2 
   85700    1.9775099   -4.7981002     4903.766            1 
   85800     1.982586   -4.7724069    4910.8667            1 
   85900    1.9759873   -4.8475724    4893.7642            1 
   86000    2.0000783   -4.8476057    4919.2001            1 
   86100    2.0042436   -4.8672675    4898.2496            1 
   86200    2.0208847   -4.8781505    4895.5903            1 
   86300    2.0093619   -4.8642708    4926.8333            3 
   86400    2.0261605   -4.7990203    4959.1144       -1e+20 
   86500    2.0236946   -4.7759901    4908.9002            1 
   86600    1.9633272   -4.7981464    4906.3634            1 
   86700    1.9663386   -4.7810807    4915.7292       -1e+20 
   86800    2.0294964    -4.813015    4932.1592            2 
   86900    1.9982337   -4.8286694    4896.8544            1 
   87000    1.9715077   -4.8120001    4912.2608            1 
   87100    2.0501003   -4.8310426     4919.344            1 
   87200    1.9762324   -4.8297213    4898.1849            1 
   87300    1.9808864   -4.8142348    4918.7072       -1e+20 
   87400    2.0337322   -4.8417473     4895.801            1 
   87500    1.9808812   -4.8336913     4906.906            1 
   87600    2.0266394   -4.8642979    4942.2916            1 
   87700     2.019974   -4.8199885    4906.3188            1 
   87800     1.981384   -4.8329325     4886.084            2 
   87900    2.0084127   -4.7986188     4939.361            2 
   88000    1.9778407   -4.7530305    4934.1693            1 
   88100    1.9786119   -4.7770399    4916.1963            1 
   88200    1.9683102   -4.8307392     4915.298            1 
   88300    2.0366253   -4.8356293    4935.7954            3 
   88400     2.020725   -4.8179328    4905.7351       -1e+20 
   88500    1.9872485   -4.8497544    4902.7764            1 
   88600    2.0019513   -4.8728805    4907.8971            1 
   88700    2.0296333   -4.8297223    4902.0261            1 
   88800    2.0020107    -4.874881    4901.7818       -1e+20 
   88900    1.9566191   -4.8463647    4895.9804            1 
   89000    2.0184111   -4.8079602    4888.1455            1 
   89100    1.9658446   -4.8402326    4911.9192            1 
   89200    2.0289473    -4.833949    4900.8448            2 
   89300    1.9551236   -4.7992885    4904.2698            1 
   89400    1.9678852   -4.8104192    4919.9438            2 
   89500    2.0099035   -4.8338937    4884.3502            2 
   89600    1.9697701   -4.8036375    4940.3847            1 
   89700      2.04638   -4.8096015    4932.5623            1 
   89800     2.003634   -4.8144875    4912.9571            1 
   89900    1.9637139    -4.804703    4927.6713            1 
   90000     2.001754   -4.7737264    4923.8629            1 
   90100      2.01915   -4.7866489    4913.3181            1 
   90200     1.950901      -4.8117    4940.8169            2 
   90300    2.0351005   -4.8044834    4891.9478            1 
   90400    1.9839189    -4.824712    4904.9205            1 
   90500    2.0241962    -4.829342    4917.5493            1 
   90600    1.9716905    -4.795892    4931.6897            1 
   90700    2.0145947   -4.7775797    4903.3735       -1e+20 
   90800    1.9844892   -4.7666099    4931.6535            1 
   90900    1.9812069   -4.8074645    4931.2622            1 
   91000    2.0238963   -4.7895678    4934.0881            1 
   91100    1.9676923   -4.7837166    4916.3979            2 
   91200    2.0321895   -4.7761923    4926.9215            1 
   91300    1.9861661   -4.7942717    4921.8179            1 
   91400    1.9655752   -4.8201595    4903.5246       -1e+20 
   91500     2.018392    -4.842776    4885.8512            1 
   91600    1.9809341   -4.7873958    4925.5319            1 
   91700    2.0354339   -4.7939546     4914.863            1 
   91800    1.9898265   -4.8564839    4930.3512       -1e+20 
   91900    2.0274385    -4.795403    4912.1059            1 
   92000    1.9709941   -4.8140199    4871.4646       -1e+20 
   92100    1.9770961   -4.8922461    4905.6273       -1e+20 
   92200    2.0195881   -4.8406776    4926.3373            1 
   92300    1.9952292   -4.7667128    4913.3213            2 
   92400    1.9591526   -4.8095198    4916.8432            2 
   92500    1.9635687   -4.8082895    4907.1841            1 
   92600    2.0176518   -4.7791468    4913.4277            1 
   92700    1.9671729   -4.8161825    4923.2421            1 
   92800    2.0256015   -4.8458016    4919.0893            1 
   92900    1.9774543    -4.858043    4895.7619            2 
   93000    1.9708955   -4.8184076    4899.7719            2 
   93100     2.006528   -4.7985207    4916.5105            1 
   93200    1.9713168   -4.8222059    4934.6602            2 
   93300    1.9982396   -4.7897613    4896.7582            1 
   93400    2.0075004   -4.7595183     4952.955            1 
   93500    1.9943711   -4.8253571    4938.5323            1 
   93600    2.0045981   -4.8091155    4900.9775            1 
   93700     2.010098   -4.8698601    4922.4635            1 
   93800    1.9590927   -4.7656948    4942.7344       -1e+20 
   93900    1.9982467   -4.8110664     4890.044            1 
   94000    1.9281616   -4.7924998    4884.1555            1 
   94100    1.9689755   -4.7834274    4909.4122            1 
   94200    2.0057171   -4.8297451    4922.3428            1 
   94300    2.0184533   -4.7891595    4916.3912            1 
   94400    1.9714472   -4.8370882     4909.167            1 
   94500    1.9854992   -4.8082355    4933.5386            2 
   94600    2.0047534   -4.7561021    4921.1366            1 
   94700    1.9680333   -4.7966926    4915.5175            2 
   94800    1.9915326   -4.8257416    4922.6728            1 
   94900    2.0263002   -4.7977511    4917.0231            1 
   95000    1.9543883   -4.7832038     4929.397            1 
   95100    1.9442983    -4.823072    4892.1015            1 
   95200    2.0515785   -4.8837715    4865.9072            2 
   95300    1.9402174   -4.8313376    4927.0739            1 
   95400    2.0340323   -4.8309454    4905.8015            2 
   95500    1.9838635   -4.8005944    4928.5897            1 
   95600    1.9892268   -4.7823493    4974.7574            1 
   95700    2.0055296   -4.7579958    4923.5456            1 
   95800    1.9645277   -4.7817704    4893.6123            2 
   95900    2.0127738   -4.7847341    4919.4655            1 
   96000    1.9606838   -4.7769859    4953.8244       -1e+20 
   96100    1.9847618   -4.7953227     4898.314            1 
   96200     2.014647    -4.859874    4909.5243            1 
   96300    1.9396023   -4.8370672    4896.8342            1 
   96400    2.0048262   -4.7927631    4906.3291            1 
   96500    2.0203765    -4.785152    4918.2239            2 
   96600    2.0045056   -4.8782458    4906.4913            3 
   96700    1.9659647   -4.7861665     4913.575       -1e+20 
   96800    1.9937749   -4.7724046    4919.5301            1 
   96900    1.9578814   -4.8072617    4899.9543            1 
   97000     1.999599   -4.7951828    4920.9764            1 
   97100    2.0222954   -4.7991588    4915.2046            1 
   97200    1.9954696   -4.8520747    4915.0349            1 
   97300    1.9565427   -4.8280283    4890.7998            1 
   97400    2.0270067   -4.8143332    4882.8505            1 
   97500    1.9640558   -4.8151479     4940.035            1 
   97600    1.9919375   -4.7683416    4927.8255            1 
   97700    2.0043089   -4.8327223    4893.8926            1 
   97800    1.9487879   -4.8402458    4905.9129            1 
   97900    2.0126778   -4.8243993    4910.0693            1 
   98000      2.00156   -4.8670717     4914.378       -1e+20 
   98100    1.9619752   -4.8566852     4867.955            1 
   98200    1.9821699   -4.8200172     4893.535            1 
   98300    1.9730677   -4.7895261    4923.8102            1 
   98400    2.0283148   -4.8005313    4915.1506            1 
   98500    1.9601862   -4.8171697    4909.6762            1 
   98600    2.0105085   -4.7784763    4889.9187            1 
   98700    1.9660074   -4.7981628    4926.0173       -1e+20 
   98800    1.9904435    -4.807397    4910.9464            1 
   98900    1.9953404   -4.7998952    4905.5241            1 
   99000    1.9836955   -4.7954044    4953.6714            1 
   99100    1.9895563   -4.7894422    4903.7923            1 
   99200    2.0012873   -4.8404718    4884.7384            1 
   99300    2.0006388    -4.825483    4925.4408            1 
   99400     2.002418   -4.7823291    4956.5204            1 
   99500    1.9922204   -4.7978773    4908.4875            1 
   99600    1.9803144   -4.8567166     4872.397       -1e+20 
   99700    1.9910454   -4.8162327    4905.7045            1 
   99800     1.983506   -4.7921117    4919.1748            2 
   99900     1.989177   -4.7982001    4911.1728            1 
  100000    1.9647951   -4.8180601    4898.3269       -1e+20 
  100100    2.0381918   -4.8394475    4901.0492            1 
  100200     1.977443    -4.804909     4943.469            1 
  100300    2.0106658   -4.7773519    4927.7769            1 
  100400    1.9812613   -4.8104248     4933.238            2 
  100500    1.9863658   -4.8113176    4935.5792            1 
  100600    1.9960884   -4.8021824    4872.3222            1 
  100700    1.9455167   -4.8176373    4928.8137            2 
  100800    1.9834714   -4.7757755    4921.4829            1 
  100900    2.0183307    -4.789632    4917.2378            1 
  101000    1.9718652    -4.757249    4955.4788            2 
  101100     2.006057   -4.8028666    4920.3233            1 
  101200    1.9875477   -4.8133822    4884.7227            1 
  101300    1.9995633   -4.8734387    4910.7282            1 
  101400     1.996755   -4.8241976    4899.9658       -1e+20 
  101500    1.9705139   -4.7750748    4902.3155            2 
  101600    1.9804224   -4.7936391    4930.1338            1 
  101700    2.0244055    -4.774041    4925.8264            1 
  101800    1.9905899   -4.8146632      4907.13            1 
  101900    1.9877785   -4.8361761    4945.2926            1 
  102000    2.0183731   -4.7607507     4909.421            1 
  102100    1.9784225   -4.7794057    4915.8608            1 
  102200    1.9994127   -4.8030697     4938.294            1 
  102300    1.9773673   -4.7754966    4908.6985            2 
  102400    1.9938207    -4.829825    4907.0377            1 
  102500    1.9748695   -4.8076722     4948.064            1 
  102600    2.0318745    -4.769974    4931.1858            1 
  102700    1.9719748   -4.7756312    4899.5909            1 
  102800    1.9506303   -4.8185272    4916.4319            1 
  102900    2.0155343   -4.7977446    4924.7881            2 
  103000    2.0195799   -4.8075163     4888.304            1 
  103100     1.937703    -4.799265    4918.3384            1 
  103200    1.9921666   -4.7896968    4946.0878       -1e+20 
  103300    2.0271269   -4.7870903    4903.8494            1 
  103400    1.9716859   -4.8121402    4916.8299            1 
  103500     1.996427   -4.7994734    4923.5815       -1e+20 
  103600    1.9781072    -4.765587    4902.1138            1 
  103700    1.9413264   -4.8246155    4906.6489            1 
  103800    2.0273118   -4.8307557    4896.4884            2 
  103900    1.9909668   -4.8215886    4895.7623            2 
  104000    1.9303737   -4.8510987    4922.7692            1 
Loop time of 169.372 on 28 procs for 100000 steps with 4000 atoms

Performance: 102024.132 tau/day, 590.417 timesteps/s
99.7% CPU use with 28 MPI tasks x no OpenMP threads

MPI task timing breakdown:
Section |  min time  |  avg time  |  max time  |%varavg| %total
---------------------------------------------------------------
Pair    | 14.617     | 15.509     | 16.331     |  10.9 |  9.16
Neigh   | 2.8671     | 2.9057     | 3.0544     |   2.3 |  1.72
Comm    | 10.861     | 13.247     | 14.829     |  33.2 |  7.82
Output  | 3.8954     | 3.896      | 3.9067     |   0.1 |  2.30
Modify  | 129.84     | 132.1      | 135.05     |  15.2 | 77.99
Other   |            | 1.714      |            |       |  1.01

Nlocal:        142.857 ave         152 max         134 min
Histogram: 1 1 1 8 4 5 3 3 1 1
Nghost:        1973.07 ave        2000 max        1954 min
Histogram: 1 4 3 5 4 9 0 0 0 2
Neighs:        13258.6 ave       14202 max       12118 min
Histogram: 1 2 0 4 5 4 5 3 1 3
FullNghs:      26515.1 ave       28046 max       24848 min
Histogram: 2 1 2 4 5 3 5 2 2 2

Total # of neighbors = 742424
Ave neighs/atom = 185.60600
Neighbor list builds = 8333
Dangerous builds = 289

#clear
#
#next RN
#
#jump SELF
Total wall time: 0:02:50
