
units lj                  # Use reduced LJ style units
atom_style atomic         # Uncharged point particles
atom_modify map hash      # Needed for indexing of clusters etc
                          # Used to be able to find where atoms are in relation to each other.

# Define a lattice with which to populate the simulation cell. With units
# set to 'lj' the second argument to the lattice command is the reduced
# density rho* and the spacings are multiples of that required to acheive
# that density. Also define a simulation cell called 'box' in lattice units
# and fill it with atoms. Here we're creating a box which is ten lattice
# constants in each direction.
lattice fcc 1.0 spacing 1 1 1                 # All equal sizes - gives the right reduced density.
Lattice spacing in x,y,z = 1.5874011 1.5874011 1.5874011

region box block 0 10 0 10 0 10 units lattice # Defines a region, "box", in lattice units
create_box 1 box                              # Creates a simulation box as specified above,
Created orthogonal box = (0.0000000 0.0000000 0.0000000) to (15.874011 15.874011 15.874011)
  2 by 3 by 3 MPI processor grid
                                              # with one type of atom
create_atoms 1 box                            # Creates particles on lattice points
Created 4000 atoms
  using lattice units in orthogonal box = (0.0000000 0.0000000 0.0000000) to (15.874011 15.874011 15.874011)
  create_atoms CPU = 0.002 seconds


# Set the mass of the first (and only) atom type.
mass 1 1.0

# Lennard-Jones interactions between particles, 3.5 sigma cut-off. Apply
# long range tail corrections to energy and pressure and set all coefficients
# to unity since we work in reduced units here. Note that this doesn't shift
# the potential such that it goes to zero at the cutoff. That would require
# pair_modify('shift', 'yes').
pair_style lj/cut  3.5      # non-GPU version
pair_modify tail  yes
pair_coeff 1  1  1.0  1.0   # Intearaction between 1 and 1 set with epsilon = 1 and sigma = 1

write_data data.*
System init for write_data ...
Neighbor list info ...
  update every 1 steps, delay 10 steps, check yes
  max neighbors/atom: 2000, page size: 100000
  master list distance cutoff = 3.8
  ghost atom cutoff = 3.8
  binsize = 1.9, bins = 9 9 9
  1 neighbor lists, perpetual/occasional/extra = 1 0 0
  (1) pair lj/cut, perpetual
      attributes: half, newton on
      pair build: half/bin/atomonly/newton
      stencil: half/bin/3d
      bin: standard

#############################
#   M E L T   S Y S T E M   #
#############################

velocity all create 2.4 6229865 mom yes dist gaussian # Assign velocities
                                                    # Temperature 2.4, random number seed, zero linear momentum
						                                                        # Gaussian distribution

timestep 0.002   # simulation timestep
thermo 100       # output thermodynamic data every 100 steps

# Define a fix  in this case with index 1 applied to all
# particles in the simulation. This fix is for simulations
# in the anisotropic NPT ensemble. Note that we use the MTK
# correction.
fix 1 all npt temp 2.4 2.4 0.1 iso 5.68 5.68 0.5 mtk yes tchain 5 pchain 5 # Use NPT ensemble
                                                                         # Set temperature and pressure and damping
                                                                         # Numbers of thermostats in chain and in barostat
run 1000         # run for 10000 steps
Per MPI rank memory allocation (min/avg/max) = 3.680 | 3.683 | 3.691 Mbytes
Step Temp E_pair E_mol TotEng Press Volume 
       0          2.4   -8.3859253            0   -4.7868253   -2.2405722         4000 
     100    1.2536957    -6.512639            0   -4.6325656     5.478955    4089.9923 
     200    1.4643499   -6.2844612            0   -4.0884856    6.2225923    4132.6721 
     300    1.5613501   -5.9933187            0    -3.651879    5.8912714    4272.8847 
     400    1.6731008   -5.7064704            0   -3.1974466    5.7980079    4409.8935 
     500    1.7993987   -5.4325725            0   -2.7341491    5.8329956     4543.536 
     600    1.8982906   -5.1495669            0   -2.3028429    5.9004247    4690.6414 
     700    1.9845076   -4.8772598            0   -1.9012426    5.8338611    4846.8673 
     800    2.1343222   -4.6883289            0   -1.4876459    5.9300075    4961.2015 
     900    2.2685415   -4.5564143            0   -1.1544528    5.7429537    5072.3143 
    1000    2.3671174   -4.4804745            0  -0.93068614    5.6609343    5154.7975 
Loop time of 0.559228 on 18 procs for 1000 steps with 4000 atoms

Performance: 308997.502 tau/day, 1788.180 timesteps/s
99.4% CPU use with 18 MPI tasks x no OpenMP threads

MPI task timing breakdown:
Section |  min time  |  avg time  |  max time  |%varavg| %total
---------------------------------------------------------------
Pair    | 0.31932    | 0.34316    | 0.36119    |   2.1 | 61.36
Neigh   | 0.06215    | 0.064526   | 0.067484   |   0.6 | 11.54
Comm    | 0.10549    | 0.12301    | 0.14558    |   3.2 | 22.00
Output  | 0.0002249  | 0.00023344 | 0.0003156  |   0.0 |  0.04
Modify  | 0.02196    | 0.025372   | 0.029456   |   1.4 |  4.54
Other   |            | 0.002929   |            |       |  0.52

Nlocal:        222.222 ave         231 max         210 min
Histogram: 3 0 0 2 1 3 2 2 2 3
Nghost:        2031.00 ave        2048 max        2016 min
Histogram: 5 0 1 2 1 2 2 0 3 2
Neighs:        19717.1 ave       21073 max       18338 min
Histogram: 2 1 0 3 2 3 4 0 2 1

Total # of neighbors = 354908
Ave neighs/atom = 88.727000
Neighbor list builds = 86
Dangerous builds = 21

# Equilibrate just above the melting temperature to avoid step fn in T

fix 1 all npt temp 1.25 1.25 0.1 iso 5.68 5.68 0.5 mtk yes tchain 5 pchain 5
run 1000
Per MPI rank memory allocation (min/avg/max) = 3.680 | 3.684 | 3.691 Mbytes
Step Temp E_pair E_mol TotEng Press Volume 
    1000    2.3671174   -4.4804745            0  -0.93068614    5.6609343    5154.7975 
    1100    1.9173858   -4.6307779            0   -1.7554183    5.8554728    4996.3129 
    1200    1.7477579   -4.9829542            0   -2.3619728    5.5796831    4810.9499 
    1300    1.5893104   -5.2408705            0   -2.8575008    5.3451318    4689.7353 
    1400    1.4556711   -5.4006503            0   -3.2176895    5.5642329    4570.8156 
    1500     1.383129   -5.5543358            0   -3.4801609    5.7098519    4482.8499 
    1600    1.3162446   -5.6665882            0    -3.692715    5.5319197    4440.3115 
    1700      1.25084   -5.7143969            0    -3.838606    5.6852524    4398.4145 
    1800    1.2626026   -5.7931589            0   -3.8997285    5.8005288    4354.9947 
    1900    1.2551594   -5.8434232            0   -3.9611548    5.6726084    4344.7346 
    2000    1.2750099   -5.8609224            0   -3.9488856     5.652703    4341.0224 
Loop time of 0.540274 on 18 procs for 1000 steps with 4000 atoms

Performance: 319837.501 tau/day, 1850.911 timesteps/s
99.7% CPU use with 18 MPI tasks x no OpenMP threads

MPI task timing breakdown:
Section |  min time  |  avg time  |  max time  |%varavg| %total
---------------------------------------------------------------
Pair    | 0.32389    | 0.34334    | 0.35897    |   1.7 | 63.55
Neigh   | 0.054874   | 0.056883   | 0.057999   |   0.4 | 10.53
Comm    | 0.097659   | 0.11113    | 0.12773    |   2.6 | 20.57
Output  | 0.00022298 | 0.00023219 | 0.00029689 |   0.0 |  0.04
Modify  | 0.022655   | 0.025443   | 0.030247   |   1.6 |  4.71
Other   |            | 0.003246   |            |       |  0.60

Nlocal:        222.222 ave         236 max         215 min
Histogram: 4 1 4 4 1 1 2 0 0 1
Nghost:        2242.33 ave        2259 max        2218 min
Histogram: 1 1 0 3 1 1 4 3 1 3
Neighs:        23367.4 ave       25065 max       22106 min
Histogram: 2 2 3 2 3 3 0 0 2 1

Total # of neighbors = 420613
Ave neighs/atom = 105.15325
Neighbor list builds = 75
Dangerous builds = 5


# Small amount of linear quench

fix 1 all npt temp 1.25 ${temp} 0.1 iso 5.68 5.68 0.5 mtk yes tchain 5 pchain 5
fix 1 all npt temp 1.25 1.65 0.1 iso 5.68 5.68 0.5 mtk yes tchain 5 pchain 5
run 2000
Per MPI rank memory allocation (min/avg/max) = 3.680 | 3.684 | 3.691 Mbytes
Step Temp E_pair E_mol TotEng Press Volume 
    2000    1.2750099   -5.8609224            0   -3.9488856     5.652703    4341.0224 
    2100    1.2461732    -5.812899            0   -3.9441066    5.8757156    4338.9373 
    2200    1.2943508   -5.8044683            0   -3.8634275    5.7750982    4353.2672 
    2300    1.2886006    -5.753253            0   -3.8208354    5.7098925     4380.166 
    2400    1.3167325   -5.7651031            0   -3.7904981    5.6584851    4384.9668 
    2500    1.3309465   -5.7098014            0   -3.7138808    5.7585686    4397.9015 
    2600    1.3410545   -5.6599334            0   -3.6488545    5.7801386    4419.8438 
    2700    1.3925045   -5.6480764            0   -3.5598418    5.9102216    4415.0907 
    2800    1.3952936   -5.5951594            0   -3.5027422      5.99607    4432.1162 
    2900    1.3946481   -5.5573821            0    -3.465933     5.827051    4461.4097 
    3000    1.4474905   -5.6058538            0   -3.4351608    5.4867114    4478.0353 
    3100    1.4374866   -5.5405307            0   -3.3848398    5.3474357    4519.9126 
    3200    1.4699436   -5.5118189            0   -3.3074548    5.5305298    4521.6267 
    3300    1.5017621   -5.4766489            0    -3.224569    5.7761234    4516.3895 
    3400    1.5034122   -5.4047028            0   -3.1501483    5.8579993    4544.5177 
    3500    1.5403314   -5.3939002            0   -3.0839806     5.825776    4554.7275 
    3600    1.5873332    -5.396384            0   -3.0159795    5.7987589     4556.239 
    3700     1.568537    -5.377327            0   -3.0251097    5.4488368    4599.8457 
    3800    1.5804328    -5.328486            0   -2.9584294    5.5166625     4616.949 
    3900    1.6082371   -5.2937381            0   -2.8819855    5.6671628    4627.0567 
    4000    1.6515343   -5.2630484            0   -2.7863662     5.713326    4633.0204 
Loop time of 1.08768 on 18 procs for 2000 steps with 4000 atoms

Performance: 317741.716 tau/day, 1838.783 timesteps/s
99.8% CPU use with 18 MPI tasks x no OpenMP threads

MPI task timing breakdown:
Section |  min time  |  avg time  |  max time  |%varavg| %total
---------------------------------------------------------------
Pair    | 0.65907    | 0.69943    | 0.73673    |   2.3 | 64.30
Neigh   | 0.10911    | 0.11237    | 0.1154     |   0.5 | 10.33
Comm    | 0.18547    | 0.21878    | 0.25171    |   3.5 | 20.11
Output  | 0.00043205 | 0.00044842 | 0.00056512 |   0.0 |  0.04
Modify  | 0.043899   | 0.05001    | 0.060401   |   2.3 |  4.60
Other   |            | 0.006643   |            |       |  0.61

Nlocal:        222.222 ave         232 max         215 min
Histogram: 1 3 3 0 4 3 3 0 0 1
Nghost:        2161.67 ave        2179 max        2142 min
Histogram: 1 1 1 4 1 3 2 1 2 2
Neighs:        21896.9 ave       23723 max       20723 min
Histogram: 1 4 2 4 2 0 3 1 0 1

Total # of neighbors = 394144
Ave neighs/atom = 98.536000
Neighbor list builds = 145
Dangerous builds = 0

#############################
# F R E E Z E  S Y S T E M  #
#############################

# Define solid atoms. This closely follows ten Wolde  Ruiz-Montero and Frenkel  Faraday Discuss  1996  104  93-110
# Compute components of the per-atom q6 vector
compute q6 all orientorder/atom degrees 1 6 components 6 nnn NULL cutoff 1.3 # compute the Q6 parameter.
                                                                             # Use all neighbours within 1.3 unit cell.

# get number of connections
compute coord_number all coord/atom orientorder q6 0.5

# An atom is solid if it has 8 or more connections (of a possible 14)
variable is_solid atom c_coord_number>=8
group solid dynamic all var is_solid    # Must be dynamic to update
dynamic group solid defined

# do clustering
compute cluster solid cluster/atom 1.3 # Create a cluster where all atoms within are solid and max 1.3 units from another member

# define chunks one chunk per cluster
compute clus_chunks solid chunk/atom c_cluster nchunk every compress yes  # Says which atoms are in which chunk

# count the size of each chunk
compute size_chunks solid property/chunk clus_chunks count


# Find the maximum entry in the vector of chunk sizes
variable max_n equal max(c_size_chunks)


# Thermo style which includes this variable
thermo_style custom step temp pe vol v_max_n

thermo ${N}  # Print the thermo information every 100 steps
thermo 100  

# Reset the npt fix at a lower temperature (below freezing)
fix 1  all npt temp  ${temp} ${temp}  0.1  iso  5.68  5.68  0.5  mtk yes tchain  5  pchain  5
fix 1  all npt temp  1.65 ${temp}  0.1  iso  5.68  5.68  0.5  mtk yes tchain  5  pchain  5
fix 1  all npt temp  1.65 1.65  0.1  iso  5.68  5.68  0.5  mtk yes tchain  5  pchain  5

dump dmp2 all dcd ${N} traj_${rand}.dcd
dump dmp2 all dcd 100 traj_${rand}.dcd
dump dmp2 all dcd 100 traj_462431.dcd


# fix rnuntil all halt ${N} v_max_n >= 3980 error soft message no   # Stop when solidified


run 100000 # 5000000  # Run for this many steps
Neighbor list info ...
  update every 1 steps, delay 10 steps, check yes
  max neighbors/atom: 2000, page size: 100000
  master list distance cutoff = 3.8
  ghost atom cutoff = 3.8
  binsize = 1.9, bins = 9 9 9
  4 neighbor lists, perpetual/occasional/extra = 1 3 0
  (1) pair lj/cut, perpetual
      attributes: half, newton on
      pair build: half/bin/atomonly/newton
      stencil: half/bin/3d
      bin: standard
  (2) compute orientorder/atom, occasional
      attributes: full, newton on
      pair build: full/bin/atomonly
      stencil: full/bin/3d
      bin: standard
  (3) compute coord/atom, occasional
      attributes: full, newton on
      pair build: full/bin/atomonly
      stencil: full/bin/3d
      bin: standard
  (4) compute cluster/atom, occasional
      attributes: full, newton on
      pair build: full/bin/atomonly
      stencil: full/bin/3d
      bin: standard
Per MPI rank memory allocation (min/avg/max) = 9.465 | 9.469 | 9.473 Mbytes
Step Temp PotEng Volume v_max_n 
    4000    1.6515343   -5.2630484    4633.0204            1 
    4100    1.6406777   -5.2766536     4652.739            2 
    4200    1.6629767   -5.2182398    4671.4477            1 
    4300    1.6563649   -5.2545357    4631.6638            1 
    4400    1.6264892   -5.2585674    4663.6036            2 
    4500    1.6534203   -5.2440036    4669.4378            2 
    4600    1.6800614   -5.2225124    4614.2199            2 
    4700    1.6287181    -5.243311    4652.9855            1 
    4800    1.6367385   -5.2269509    4669.2373            2 
    4900    1.6471258   -5.2382369    4645.8628            1 
    5000    1.6366768   -5.2682717    4611.3235            2 
    5100    1.6572448   -5.2644824    4658.2317            1 
    5200    1.6574033   -5.2351721    4681.8312            1 
    5300    1.6190643   -5.2403983    4663.4162            1 
    5400    1.6683408   -5.2148315    4628.1108            2 
    5500    1.6007105   -5.2102329    4655.3985            1 
    5600    1.6761711   -5.2311968    4665.1193            1 
    5700    1.6758804   -5.2660172     4650.751            1 
    5800    1.6272908   -5.2530687     4659.619            1 
    5900    1.6484636   -5.2104203    4661.2587            2 
    6000    1.6529153   -5.2340969    4643.9051            1 
    6100    1.6321438   -5.2491964    4633.0331            2 
    6200     1.637809   -5.2282666    4665.7415            1 
    6300    1.6911545   -5.2306761    4663.4388            2 
    6400    1.6577247   -5.2360946    4628.4252            1 
    6500    1.6182856   -5.2488685    4648.2229            3 
    6600    1.6812508   -5.2473746    4663.3801            1 
    6700     1.693122   -5.2127163    4670.4182            2 
    6800    1.6559336   -5.2300759    4661.3948            1 
    6900    1.6122431   -5.2482464    4659.4917            1 
    7000    1.6841226   -5.2512256     4661.123            3 
    7100    1.6539891   -5.2108514    4666.9703            1 
    7200    1.6997777   -5.2128637    4679.6574            1 
    7300     1.668062   -5.2429261    4645.7485       -1e+20 
    7400    1.6279841    -5.219367    4647.0784            1 
    7500    1.6891927    -5.207964    4664.0386            2 
    7600    1.6485878   -5.2340075     4662.276            2 
    7700    1.6426444   -5.2684548    4666.3976            2 
    7800    1.6140101   -5.2571574    4634.7516            1 
    7900    1.6465151   -5.2290731    4630.5663            1 
    8000    1.6650299   -5.2219321    4652.3112            1 
    8100     1.603613   -5.2171249    4674.3045            2 
    8200    1.6676759   -5.2656305    4636.7386            2 
    8300    1.6624601   -5.2607861    4628.3329            1 
    8400    1.6323245    -5.231328     4671.977            1 
    8500    1.6615346   -5.2716299    4641.3959            1 
    8600     1.640556    -5.235775    4631.3971            1 
    8700    1.6595895   -5.2657493    4640.6192            1 
    8800    1.5870057   -5.2374218    4648.3684            1 
    8900    1.6561859   -5.2514293    4655.5612            2 
    9000    1.6641395   -5.2013865    4661.6202            3 
    9100    1.6414033   -5.2634981    4653.1574            2 
    9200    1.6098947   -5.2760918    4652.6468            1 
    9300    1.6643794   -5.2324541     4630.795            3 
    9400    1.6568168   -5.2373425    4641.2541            1 
    9500    1.6052165   -5.2186891    4675.5517            2 
    9600    1.6734002   -5.2161203    4660.6924            2 
    9700    1.6549824   -5.2077845     4653.104            2 
    9800    1.6041193   -5.2393141    4674.4457            2 
    9900    1.6975362   -5.2795195    4651.0913            1 
   10000    1.6313342    -5.242112    4623.5839            1 
   10100    1.6436935   -5.2532021    4658.2432            1 
   10200    1.6474375   -5.2133613    4668.6788            3 
   10300    1.6456981   -5.2744033    4641.8771            2 
   10400    1.6290102   -5.2604446    4633.6576            1 
   10500    1.6443357   -5.2234811     4650.159            1 
   10600    1.6750743   -5.2300384    4653.1414            2 
   10700    1.6357368   -5.2746597     4658.421            1 
   10800    1.6575623   -5.2563088    4660.5064            2 
   10900    1.6890329   -5.2114662     4652.946            1 
   11000    1.6690007   -5.2385506     4672.779            1 
   11100     1.601258   -5.2364204    4677.2839            3 
   11200    1.6573428   -5.2301825    4642.6085            4 
   11300    1.6789789   -5.2273445    4640.7641            1 
   11400    1.6346797   -5.2398777    4664.3323            1 
   11500    1.6477309   -5.2432599    4658.4895            1 
   11600    1.6397242   -5.2701308    4635.0661            3 
   11700    1.6377666   -5.2549576    4627.2564            1 
   11800    1.6521957   -5.2505968    4650.7572            3 
   11900    1.6425184   -5.2245179    4655.7437            1 
   12000    1.6401368   -5.2865719    4644.0465            1 
   12100     1.681314   -5.2714606    4661.9116            1 
   12200    1.6433176   -5.2464326    4655.7101            1 
   12300    1.6576853   -5.2452887     4651.722            1 
   12400    1.6356596   -5.1934413     4647.237            1 
   12500    1.6991361   -5.2480736    4658.2381            1 
   12600    1.6241619    -5.221738    4639.8712            1 
   12700      1.63199   -5.2391621    4648.6706            1 
   12800    1.6608576   -5.2397441     4646.529            1 
   12900     1.662355   -5.2655928    4623.6245            3 
   13000    1.6306328   -5.2598254    4647.4874            2 
   13100    1.6488321   -5.2363843    4682.6058            1 
   13200    1.6578271   -5.1919481    4650.8472            1 
   13300    1.6726306   -5.2636622    4645.7471            1 
   13400    1.6620307   -5.2388199    4667.4894            2 
   13500    1.6818113   -5.2418661    4679.4327            1 
   13600    1.6408979   -5.2173349     4645.427            1 
   13700    1.6807702   -5.2574371    4644.3088            3 
   13800    1.6222823   -5.2543973    4664.3037            1 
   13900    1.6104596   -5.2420224    4651.6506            2 
   14000    1.6903034   -5.2518668    4630.6716            2 
   14100    1.6615363   -5.2706931    4664.6267            1 
   14200    1.6295589   -5.2146092    4675.0316            1 
   14300    1.6545321   -5.2400602    4626.7186            2 
   14400    1.6629904   -5.2533532    4647.9863            1 
   14500    1.6477183   -5.2562539    4672.6534            2 
   14600    1.6229908   -5.2860158    4651.5848            2 
   14700    1.6657495   -5.2817734    4635.5972            3 
   14800    1.6635782   -5.2731071    4640.4889            1 
   14900    1.6817472   -5.2663163    4665.2865            3 
   15000    1.6207625   -5.2232756    4661.6406            1 
   15100    1.6596596    -5.237921    4645.5944            1 
   15200    1.6397826   -5.2446575    4642.2331            2 
   15300     1.653542    -5.275588    4637.9185            2 
   15400    1.6227436   -5.2938684    4618.2409            3 
   15500     1.640197   -5.2496417    4641.5023            2 
   15600    1.6548466   -5.2233263    4656.2642            1 
   15700    1.6574696   -5.2758612    4646.5025            2 
   15800    1.6545275    -5.295958    4629.6508            1 
   15900    1.6746415   -5.2492301    4642.5618            2 
   16000    1.6587338   -5.2116424    4660.7642            1 
   16100    1.6226615   -5.2698564    4668.0264            1 
   16200    1.6831999   -5.2714832    4660.2732            1 
   16300    1.6672808   -5.2742083    4637.7776            2 
   16400    1.6270562   -5.2807571    4635.2499            1 
   16500    1.6791064   -5.2864132    4632.6141            1 
   16600     1.675963   -5.2578382    4651.3456            1 
   16700    1.6455343   -5.2275893    4678.9311            1 
   16800    1.6263149   -5.2324528    4632.9846            3 
   16900    1.6958573   -5.2580713    4639.8647            1 
   17000    1.6437749   -5.2728334    4656.2506            1 
   17100    1.6917444   -5.2570207    4652.6853            1 
   17200    1.6336792   -5.2391479    4642.6048            2 
   17300    1.6818309   -5.2638741    4655.3537            2 
   17400    1.6417474   -5.2516187    4665.1361            2 
   17500    1.6190014   -5.2325295    4640.7936            2 
   17600    1.6673298   -5.2646306    4629.3531            2 
   17700    1.6404432   -5.2370475    4658.3465            1 
   17800    1.6424723   -5.2622848    4657.0862            2 
   17900    1.6625109    -5.237576    4649.5742            1 
   18000     1.638389   -5.2576872    4658.2014            1 
   18100    1.6517474   -5.2690936    4623.2511            2 
   18200    1.6494769   -5.2168508    4631.9435            1 
   18300    1.6286787   -5.2190845    4673.6497            2 
   18400    1.6547309   -5.2484776    4649.6296            1 
   18500    1.6593977   -5.2414627    4650.7044            2 
   18600    1.6441296   -5.2341112    4639.4123            3 
   18700    1.6203837   -5.2474007    4664.4593            1 
   18800    1.6683273   -5.2255683    4659.7441            1 
   18900    1.6461406   -5.2524536    4648.4954            1 
   19000    1.6398938   -5.2484952    4648.7939            1 
   19100    1.6557544    -5.214068    4671.2628            2 
   19200    1.6470661   -5.2663721    4626.1122            2 
   19300    1.6021552   -5.2452193    4622.1833            2 
   19400    1.6610743   -5.2568663    4651.3131            1 
   19500    1.6531101    -5.269016    4668.1221            1 
   19600    1.6348849   -5.2550259    4634.4903            3 
   19700     1.647225   -5.2237543    4636.8295            2 
   19800    1.6862811   -5.2763441    4661.9493            1 
   19900    1.6499089   -5.2759761    4677.1128            1 
   20000    1.6863538   -5.2410127    4634.5477            1 
   20100    1.6427852   -5.2676216    4620.7038            1 
   20200    1.6378897   -5.2763673    4643.5943            2 
   20300    1.6434674   -5.2271022    4672.0157            2 
   20400    1.6978209   -5.2038046    4659.4576            2 
   20500    1.6772759    -5.232998    4677.2201            2 
   20600    1.6411646   -5.2666376    4659.7282            1 
   20700     1.636946   -5.2860727    4634.2365            1 
   20800    1.6670498   -5.2630714    4624.9815            1 
   20900    1.6628973   -5.2800912    4653.7336            1 
   21000    1.6371898   -5.2990614    4628.0785            1 
   21100    1.6243116   -5.2896658    4615.9281            1 
   21200    1.6396448    -5.232288    4657.7665            1 
   21300    1.6681174    -5.204462    4662.1608            2 
   21400    1.6933418   -5.1973421    4692.7972            1 
   21500    1.6603014   -5.2301196    4659.2512            2 
   21600    1.6285277   -5.2408077    4650.7623            1 
   21700    1.6845871   -5.2502594    4647.0877            1 
   21800    1.6711095   -5.2167889    4681.1588            1 
   21900    1.6380538   -5.2589419    4681.5122            1 
   22000    1.6648675   -5.2894741    4655.7786            1 
   22100    1.6611749   -5.2026903    4635.4669            3 
   22200    1.6643996   -5.2356274    4657.1177            2 
   22300    1.6295091   -5.2726121    4643.8599            1 
   22400    1.6769592   -5.2775454     4665.998            1 
   22500    1.6415588   -5.2305064    4635.4196            2 
   22600     1.663311   -5.2263741    4626.0222            1 
   22700    1.6564519   -5.2496887    4664.4204            1 
   22800    1.5815899   -5.2439073    4667.5774            1 
   22900    1.6576483   -5.2285742    4656.2988            2 
   23000    1.6436528   -5.1730641    4652.3382            2 
   23100    1.6371528     -5.25189    4645.5504            1 
   23200    1.6654443   -5.2555275    4651.0606            1 
   23300    1.6245027    -5.258164    4628.8536            1 
   23400    1.6631395   -5.2519925    4646.9354            1 
   23500    1.6223003   -5.2037741    4671.9866            2 
   23600     1.691396   -5.2128367    4644.8523            1 
   23700    1.6812654   -5.2771347    4640.1419            1 
   23800    1.6374522   -5.2493374    4651.4254            2 
   23900    1.6262817   -5.2685844    4642.4387            1 
   24000    1.6649163   -5.2502191     4631.441            2 
   24100    1.6591692   -5.2182409    4651.3823            1 
   24200    1.6305832   -5.2761427    4671.8803            1 
   24300    1.6592714   -5.2791648    4628.1198            4 
   24400    1.6403809   -5.2341831    4636.4013            2 
   24500     1.633209   -5.2156803     4686.803            1 
   24600    1.6583628   -5.2181435    4662.2763            2 
   24700    1.6462403    -5.240395    4625.2607            3 
   24800    1.6604698    -5.228605    4657.4517            2 
   24900    1.6206588   -5.2206092    4658.8344            1 
   25000    1.6743649    -5.239494    4643.4066            1 
   25100      1.63247   -5.2800162    4661.2861            1 
   25200    1.6922402   -5.2867495    4660.4249            2 
   25300    1.6289299   -5.2462109    4636.3635            2 
   25400     1.663972   -5.2693161    4646.6324            1 
   25500    1.6362014   -5.2141791    4650.9639            1 
   25600    1.6291084   -5.2312153    4648.5842            1 
   25700    1.6598589   -5.1899669    4665.9979            2 
   25800    1.6379843   -5.2260455    4642.9176            1 
   25900    1.6439806   -5.2382718    4647.9628            1 
   26000    1.6668414   -5.2011414    4684.2308            1 
   26100    1.6393865   -5.2066893    4652.8124            1 
   26200    1.6433895   -5.2461198    4632.6893            3 
   26300    1.5958135   -5.2691649    4627.7384            2 
   26400    1.6345203   -5.2791732    4644.9374            5 
   26500    1.6806738   -5.2618519     4650.286            1 
   26600    1.6306653   -5.2261806    4657.4828            2 
   26700    1.6324156   -5.2436853    4634.2819            3 
   26800    1.6489289   -5.2138731    4659.1634            1 
   26900    1.6534561   -5.1875118    4671.2677            2 
   27000    1.6822493   -5.2540474     4649.408            2 
   27100    1.6320297   -5.2436919    4650.3825            2 
   27200    1.6178367   -5.2580422    4634.6327            2 
   27300    1.6465447   -5.2567555    4618.7969            1 
   27400    1.6664452   -5.2561993    4659.3988            2 
   27500    1.6343943   -5.2340031    4667.6366            1 
   27600    1.6732145   -5.2548162    4633.8342            2 
   27700    1.6352895   -5.2522559    4638.9525            1 
   27800     1.659928   -5.2620042    4653.4876            2 
   27900    1.6661904   -5.2277329     4656.581            3 
   28000    1.6333787   -5.2160442    4631.1863            2 
   28100    1.6283784   -5.2363629    4643.3069            2 
   28200    1.6435006   -5.2499704    4663.6567            1 
   28300    1.6637121   -5.2562588    4652.2043            2 
   28400     1.687251   -5.2377727    4647.9775            1 
   28500     1.644496   -5.2600994    4670.8338            2 
   28600    1.6634583   -5.2627814    4659.1493            2 
   28700    1.6541917   -5.2670243    4638.7472            1 
   28800     1.661032   -5.2175791    4645.4741            3 
   28900    1.6441591   -5.2565769    4663.0295            1 
   29000    1.6250082   -5.2858932    4634.4513            2 
   29100    1.6817212   -5.2702731    4636.5658            2 
   29200    1.6002978   -5.2368321    4665.9923            2 
   29300    1.6591989   -5.2336907    4677.9368            3 
   29400    1.6501422   -5.2435448     4635.168            1 
   29500    1.6489501   -5.2717263    4620.5978            2 
   29600    1.6662928   -5.2739352    4657.3903            1 
   29700     1.630126   -5.2236578    4648.8951            1 
   29800    1.6745333   -5.2281053    4630.2858            1 
   29900    1.6301516   -5.2679778     4669.879            1 
   30000    1.6086007   -5.2901013    4643.5228            2 
   30100    1.6699901   -5.2481337    4624.6558            1 
   30200    1.6539308   -5.2481908    4640.2024            1 
   30300    1.6630081   -5.2549967    4673.5322            2 
   30400     1.626637   -5.2587132    4653.6077            1 
   30500    1.6758731   -5.2226997    4651.3242            2 
   30600    1.6732809   -5.2343082    4652.4032            1 
   30700    1.6470835   -5.2702454    4667.4915            2 
   30800    1.6374529    -5.270982    4644.7109            2 
   30900    1.6497444   -5.2590847     4608.535            2 
   31000    1.6519547   -5.2490176    4656.7027            3 
   31100    1.6231463   -5.2054329    4667.4902            3 
   31200    1.7001169   -5.2515782    4654.9343            3 
   31300    1.6174325   -5.2069975    4678.7792            1 
   31400    1.6374758   -5.2420454    4649.4219            2 
   31500     1.622164   -5.2196639    4618.6406            1 
   31600    1.6518177   -5.2107768    4667.3521            1 
   31700    1.6360661   -5.2079315    4670.1145            2 
   31800    1.6426711   -5.2350489    4647.7783            1 
   31900    1.6727706    -5.277973    4639.0949            2 
   32000    1.6131475   -5.2729579    4645.0189            2 
   32100    1.6656101   -5.2876018    4622.8129            1 
   32200    1.6582025   -5.1933545    4653.1936            1 
   32300     1.650279   -5.2404629    4662.6009            3 
   32400    1.6415983   -5.2252962    4654.5467            1 
   32500    1.6343129    -5.261455    4670.6472            1 
   32600    1.6517902   -5.1990024    4633.8319            2 
   32700    1.6435996    -5.222335    4650.7121            2 
   32800    1.6502721   -5.2378957    4658.0733            1 
   32900    1.6469494   -5.2132347    4655.6824            2 
   33000    1.6556609   -5.2853484    4646.8039            1 
   33100     1.628626   -5.2410769    4635.1322            1 
   33200    1.6657604   -5.2121993     4645.947            2 
   33300    1.6443315    -5.224131    4671.6795            1 
   33400    1.6386336   -5.2654836    4666.0586            1 
   33500    1.6461115   -5.2793962    4635.0107            4 
   33600    1.6532936   -5.1892888    4649.1535            1 
   33700     1.646482   -5.2234486    4644.7545            1 
   33800    1.6259024   -5.2587647    4633.9875            1 
   33900    1.6331574   -5.2384253    4640.6364            1 
   34000    1.6358452   -5.1906539    4636.3576            2 
   34100    1.6481852   -5.2552972     4625.116            2 
   34200    1.6042867   -5.2613911    4647.9691            3 
   34300    1.6416637   -5.2222467    4642.5614            1 
   34400    1.6828874   -5.2474929    4650.3678            1 
   34500    1.6271255   -5.2561803    4677.4794            2 
   34600    1.6503222   -5.2340856    4664.5825            1 
   34700    1.6847615      -5.2319    4650.8003            1 
   34800    1.6308206   -5.2346967    4666.4867            1 
   34900    1.6335012   -5.2854018    4643.3112            2 
   35000    1.6778493   -5.2628032    4633.3833            1 
   35100    1.6507291   -5.2709876    4645.3396            1 
   35200    1.6197763   -5.3086542    4637.7586            1 
   35300    1.6527697   -5.2664858    4638.0807            2 
   35400    1.6874875   -5.2647301    4628.1043            1 
   35500    1.6292962   -5.2868764    4649.4436            1 
   35600    1.6431978    -5.256301    4682.6981            2 
   35700    1.6745786   -5.2377523    4643.5187            1 
   35800    1.6546263   -5.2467168    4643.0622            1 
   35900    1.6547689   -5.2501678     4659.557            2 
   36000    1.6422676   -5.2479576    4649.5363            1 
   36100    1.6809315   -5.2948656     4619.624            1 
   36200    1.5807696   -5.2820744     4641.843            1 
   36300    1.6472767   -5.2733901    4637.2044            1 
   36400    1.6772859   -5.2489724    4652.9228            2 
   36500    1.6351822   -5.2432123    4663.7086            1 
   36600    1.6503226   -5.2316014    4650.8142            2 
   36700    1.6509682    -5.167277    4680.3451            2 
   36800    1.6555821   -5.2314949    4660.6867            1 
   36900    1.6431342   -5.1985336     4660.441            1 
   37000    1.6440078   -5.1872119    4671.9698            1 
   37100    1.6386296   -5.2480177    4632.3572            2 
   37200    1.6440776   -5.2864206    4630.7305            1 
   37300    1.6593635    -5.282225    4640.9684            1 
   37400    1.6578296   -5.2490301    4674.2827            3 
   37500    1.6028183   -5.2160885    4658.4307            1 
   37600    1.6909115    -5.227131    4625.3462            2 
   37700    1.6534036   -5.2687508    4645.7538            3 
   37800    1.5913795   -5.2764165    4651.3262            2 
   37900     1.639901   -5.2538553    4632.8242            2 
   38000    1.6486054    -5.196524    4643.7485            2 
   38100    1.6404208    -5.235849    4659.2413            1 
   38200    1.6377342   -5.2944998    4638.0069            3 
   38300     1.661982   -5.2409674    4623.4291            2 
   38400    1.6623812   -5.2615966    4645.4983            1 
   38500    1.6207048   -5.2363911    4678.1841            2 
   38600    1.6789522   -5.2128998    4657.2093            2 
   38700    1.6383628   -5.2233153     4657.351            2 
   38800    1.6274868   -5.2422796     4651.004            1 
   38900    1.6774699   -5.2423189    4656.4104            1 
   39000    1.6490361   -5.2633357     4626.037            2 
   39100    1.6328446   -5.2345686    4657.8382            5 
   39200    1.6696728   -5.2614282    4665.5377            1 
   39300    1.6472057   -5.2712588    4658.3227            2 
   39400    1.6499363    -5.223063    4655.3117            2 
   39500    1.6729989   -5.1994655    4649.8242            2 
   39600    1.6228711   -5.2274825    4663.7744            1 
   39700    1.6457048   -5.2357009    4668.5864            2 
   39800    1.6572475   -5.2076303    4651.6884            1 
   39900    1.6662409   -5.2322988    4670.8503       -1e+20 
   40000    1.6220438   -5.2395608    4646.5605            2 
   40100    1.6816514   -5.2291964    4631.9189            2 
   40200    1.6185534   -5.2214519    4646.1192            2 
   40300    1.6178938   -5.2194397    4666.5727            2 
   40400    1.6422013   -5.2529231    4646.0712            1 
   40500    1.6562296   -5.2664167    4606.9814            2 
   40600    1.6485074   -5.2661221     4635.097            2 
   40700    1.6327707   -5.2103667    4674.1736            2 
   40800    1.6631646   -5.1938172    4670.3268            2 
   40900    1.6562073   -5.2217553    4659.7156            2 
   41000    1.6341708   -5.2826809    4645.1696            2 
   41100    1.6345997   -5.2734897     4632.694            1 
   41200    1.6674537   -5.2677008    4646.4436            1 
   41300    1.6467371   -5.2447693    4659.2158            5 
   41400    1.6735541   -5.2422552    4655.9648            3 
   41500     1.619979   -5.2582553    4653.1772            1 
   41600    1.6494085   -5.2444759    4660.1504            3 
   41700    1.6829777   -5.2159311    4655.6596            1 
   41800    1.6781103   -5.2717194    4660.6143       -1e+20 
   41900    1.6273662   -5.2872587    4678.3575            4 
   42000    1.6565573   -5.2218641    4633.1789            1 
   42100    1.6474353   -5.2525883    4645.0883            1 
   42200    1.6485092   -5.2115922     4655.109            1 
   42300    1.6420019   -5.2640051    4653.2257            1 
   42400     1.614321   -5.2765066    4636.9353            1 
   42500    1.6750014   -5.2706863    4650.1488            1 
   42600    1.6525767   -5.2796878    4639.1346            2 
   42700    1.6403683   -5.2716714    4643.3316            2 
   42800     1.640529   -5.2230283    4647.9267            2 
   42900    1.7033608   -5.2380827    4669.3184            2 
   43000    1.6497878   -5.2148315     4632.289            2 
   43100    1.6303502   -5.1928435    4660.7589            1 
   43200    1.6425498   -5.2336157    4664.3196            3 
   43300    1.6552113   -5.2428381     4644.175            2 
   43400    1.6446068   -5.1985413    4657.4457            3 
   43500    1.6444721   -5.1864215    4657.8989            2 
   43600     1.657624   -5.2678281    4641.4611            2 
   43700     1.644241   -5.2660372     4672.609            1 
   43800    1.6255538   -5.2424106    4661.3366            1 
   43900     1.693813   -5.2300565    4638.4309            1 
   44000    1.6274405   -5.1947001    4652.8408            1 
   44100    1.6141765   -5.2150206    4663.4323            1 
   44200     1.699944   -5.2519334    4658.7626            4 
   44300    1.6555962   -5.2487104    4660.3335            1 
   44400    1.6660784   -5.2788716    4660.3107            1 
   44500    1.6310247   -5.2696275    4631.2287            2 
   44600    1.6512314   -5.2845324    4642.1255            1 
   44700    1.6285592   -5.2332883     4685.716            2 
   44800    1.6766112   -5.2307681    4653.3506            3 
   44900    1.6541932   -5.1859734    4640.7985            1 
   45000    1.6436088   -5.2454987    4675.5984            1 
   45100    1.6417558   -5.2369374    4657.2612            3 
   45200    1.6466368     -5.25548    4635.0518            1 
   45300    1.6585141   -5.2675963    4642.8595            2 
   45400    1.6564538   -5.2613309    4656.1099            1 
   45500    1.6279497   -5.2583352    4617.3388            1 
   45600    1.6539978   -5.2617319    4645.3371            1 
   45700    1.6557648    -5.240766    4650.9755            2 
   45800    1.6468892    -5.290112    4618.1878            5 
   45900    1.6275211   -5.2516787    4654.9279            3 
   46000    1.6522818   -5.2406141    4645.9492            2 
   46100    1.6327793   -5.2606549     4617.644            1 
   46200    1.6918104   -5.2645602    4633.6928            1 
   46300    1.6422448   -5.2570181    4661.9811            2 
   46400     1.674983   -5.2329128     4670.652            2 
   46500    1.6419648   -5.2444963    4634.0648            2 
   46600    1.6458283   -5.2514188    4651.0883            1 
   46700    1.6575873   -5.2440829    4640.9633            1 
   46800    1.6287428   -5.2104567    4646.0312            2 
   46900    1.6537037   -5.2525263     4640.063            2 
   47000    1.6135078   -5.2612417    4650.1689            2 
   47100     1.661565   -5.2598592    4644.2478            3 
   47200    1.6686237   -5.2656969     4623.729            1 
   47300    1.6195796   -5.2627823    4650.8715            3 
   47400    1.6466433    -5.258531    4666.1346            1 
   47500    1.6768581   -5.2264127    4660.3784            4 
   47600    1.6501242   -5.2591494    4633.4671            1 
   47700    1.6389956   -5.2827774    4640.5844            2 
   47800     1.677062   -5.2607821     4653.584            2 
   47900    1.6589006   -5.2591635    4637.5102            1 
   48000    1.6210212   -5.2758964    4648.9442            1 
   48100    1.6322564   -5.2176483    4640.0781            2 
   48200     1.682735   -5.2360329    4643.9234            2 
   48300    1.6210188   -5.2582815    4657.7063            2 
   48400    1.6238423   -5.2114163    4636.3882            2 
   48500    1.6213086   -5.2697521    4612.1935            1 
   48600    1.6438942    -5.280444    4633.4027            4 
   48700    1.6258896   -5.2141687    4661.0773            1 
   48800    1.6285927   -5.2106957    4660.6746            1 
   48900    1.6189845   -5.2470727    4629.8265            2 
   49000    1.6883619   -5.2595634    4643.4354            1 
   49100    1.6436363   -5.1910675    4659.0688            2 
   49200       1.6444   -5.2178949    4671.4011            2 
   49300    1.6391387   -5.2779568    4636.8739            1 
   49400    1.6468934    -5.265185    4641.3466            1 
   49500    1.6739401   -5.2631411    4662.2723            1 
   49600    1.6553245   -5.2027951    4676.2966            1 
   49700      1.63871    -5.230911    4643.3446            1 
   49800    1.6781088   -5.2276492    4650.1846            1 
   49900    1.6649743   -5.2171507    4674.6485            2 
   50000    1.6407436   -5.2322763    4664.0155            2 
   50100    1.6488389   -5.2179732    4650.5422            1 
   50200    1.6219686   -5.2208037    4644.5288            3 
   50300    1.6662939   -5.2510729     4645.229            2 
   50400    1.6449634   -5.2879466    4645.3724            1 
   50500    1.6955008   -5.2658128    4667.1189            3 
   50600    1.6712128   -5.2741268    4639.8587            2 
   50700    1.6480305   -5.2786148    4651.6483            1 
   50800    1.6621866   -5.2763144    4659.6101            1 
   50900    1.6825297   -5.2546711    4645.4858            1 
   51000    1.6301026   -5.2445066    4629.9534            2 
   51100      1.66268   -5.2433108    4657.4164            2 
   51200    1.6497194   -5.2244424    4660.0598            2 
   51300    1.6477942    -5.208034    4658.6134            1 
   51400    1.6338016   -5.2653908    4643.7428            2 
   51500    1.6604785   -5.2344387    4633.8955            2 
   51600    1.6451759    -5.246668    4656.0881            2 
   51700     1.615348   -5.2450905    4670.8266            2 
   51800    1.6521519   -5.1907211    4661.8181            2 
   51900    1.6619637   -5.2308336     4632.423            1 
   52000    1.6168614   -5.2408815    4652.9693            2 
   52100    1.6590065   -5.2522777    4638.6976            4 
   52200    1.6457014    -5.227564    4654.6725            1 
   52300    1.6544674   -5.2466535    4643.3226            2 
   52400     1.664196   -5.2649345    4627.5512            1 
   52500    1.5934871   -5.2551653    4621.0532            2 
   52600    1.6232849   -5.2450219    4654.2272            3 
   52700    1.6560671   -5.2229419    4661.3474            2 
   52800    1.6973033   -5.2412911    4655.1902            1 
   52900    1.6512602   -5.2777306    4640.9926            1 
   53000    1.6537761   -5.2695834    4651.7505            1 
   53100    1.6735184   -5.2399493    4658.9149       -1e+20 
   53200    1.6527228   -5.2721475    4649.0427            1 
   53300    1.6894739   -5.2121344    4641.4942            1 
   53400     1.643941   -5.2176286    4671.9774            2 
   53500    1.6539126   -5.2547263    4677.4836            3 
   53600    1.6581216   -5.1993651    4659.5467            2 
   53700    1.6251944   -5.2168313    4653.9904            2 
   53800     1.661998   -5.2437443     4655.654            3 
   53900    1.6097185   -5.2315218    4673.8565            1 
   54000    1.6372806   -5.2348236    4635.2951            2 
   54100    1.6572273   -5.1853347    4648.2392            1 
   54200    1.6521013   -5.2357753      4658.18            2 
   54300    1.6229118   -5.2453781    4650.7918            1 
   54400     1.642266   -5.2733427    4607.8476            1 
   54500    1.6458561    -5.239301    4625.1541            1 
   54600    1.6142255   -5.2310977    4663.8358            1 
   54700    1.6806434   -5.2354859    4648.9087            1 
   54800    1.6356393   -5.2436054    4622.1814            2 
   54900    1.6495469   -5.2434344    4659.8941            1 
   55000    1.6338283   -5.1926086    4653.9561            2 
   55100    1.6465126   -5.2136905     4666.425            2 
   55200    1.6464302   -5.2315787    4656.9815            2 
   55300     1.638473   -5.2268388    4642.7719            2 
   55400    1.6393773   -5.2087682    4642.6146            2 
   55500    1.6491534   -5.2320733    4646.3918            3 
   55600    1.6562407   -5.2938562    4671.0532            2 
   55700    1.6414346   -5.2873262    4617.9521            3 
   55800    1.6278949   -5.2168137    4651.5562       -1e+20 
   55900    1.6466958   -5.2271882    4667.9222            1 
   56000    1.6670073   -5.2391535    4661.1043       -1e+20 
   56100     1.631675   -5.2346547     4630.269            2 
   56200    1.6557099   -5.2416239     4635.465            2 
   56300     1.678846   -5.2513362    4663.2416            2 
   56400    1.6488899   -5.2843342    4656.4245            1 
   56500    1.6564155   -5.2741806    4623.3251            2 
   56600    1.6506185   -5.2519769    4638.7428            1 
   56700    1.6388517   -5.2159624    4671.5241            1 
   56800    1.6760441   -5.2112378    4669.0667            2 
   56900    1.6465185    -5.207253    4657.8479            1 
   57000    1.6494794   -5.2585075    4662.6599            1 
   57100    1.5935094   -5.2288618    4657.0703            1 
   57200    1.6753712   -5.2349349    4643.8077            2 
   57300    1.6457318   -5.2103288    4663.2711            3 
   57400    1.6330518   -5.2162892    4668.7609            1 
   57500     1.673013    -5.249583    4655.9068            2 
   57600    1.6101941   -5.2516925    4651.8087            2 
   57700     1.635565   -5.2370397    4656.4326            2 
   57800    1.6526839   -5.2095799    4636.1924            2 
   57900    1.6189915   -5.2559093    4637.6516            2 
   58000    1.6101989    -5.271083    4635.2117            1 
   58100    1.6553096   -5.2665288    4670.4363            1 
   58200    1.6574281   -5.2290302    4648.0167            1 
   58300    1.6477658   -5.2179314    4641.5165            1 
   58400    1.6375143   -5.2230255    4654.4024            1 
   58500    1.6722109   -5.2591426    4642.1863            1 
   58600    1.6655901   -5.2155822    4678.0167            2 
   58700    1.6493043   -5.2615682    4639.9758            1 
   58800    1.6128866   -5.2475723     4632.509            1 
   58900    1.6644514   -5.2515955    4649.4175            1 
   59000    1.6740447   -5.2505994    4659.9854            2 
   59100    1.6228789   -5.2761728    4663.1747            1 
   59200    1.6486996   -5.2306731    4647.3509            2 
   59300    1.7250816   -5.2560189    4665.8033            1 
   59400    1.6459156    -5.240737    4663.3148            2 
   59500    1.6274316   -5.2186875    4639.4302            2 
   59600    1.6384966   -5.2951995    4628.5138            1 
   59700    1.6299123   -5.2362185    4665.1695            1 
   59800    1.6808621   -5.2301276    4652.8702            1 
   59900    1.6265432     -5.19225    4663.5913            4 
   60000    1.6330668   -5.2295772    4654.2421            1 
   60100    1.6354323   -5.2460827     4617.769            1 
   60200    1.6636331   -5.2302392    4666.2114            1 
   60300    1.6387187     -5.20093    4645.2693            1 
   60400    1.6534382   -5.2621364    4632.9385            3 
   60500    1.6338929   -5.2701491    4650.9456            2 
   60600    1.6592587   -5.2430327    4659.3615            3 
   60700    1.6341095   -5.2452899    4654.1496            2 
   60800    1.6610083   -5.2256065    4628.4981            1 
   60900     1.662351   -5.2689569    4630.8838            1 
   61000    1.6111963   -5.2426317    4655.2667            1 
   61100    1.6551542   -5.2305826    4667.1221            1 
   61200    1.6555622    -5.223679     4644.748            1 
   61300    1.6205206    -5.250276    4631.0751            1 
   61400    1.6641004   -5.2381891    4647.1604            2 
   61500    1.6577662   -5.2301274    4669.2957            1 
   61600    1.6255366   -5.2520983    4682.1869            3 
   61700    1.7012571   -5.2474782     4652.853            6 
   61800     1.660437    -5.205736     4661.137            1 
   61900    1.6151538   -5.2336226    4679.6596            1 
   62000    1.6750571   -5.2783407    4650.1361            4 
   62100    1.6037949   -5.2735337    4625.0689            3 
   62200    1.6517861   -5.2839637     4625.541            3 
   62300    1.6688501   -5.2633252    4642.0827            1 
   62400    1.6583964   -5.2366754      4681.38            1 
   62500    1.6423123   -5.2125714    4682.6844            2 
   62600    1.6790574   -5.2042898    4651.4504            1 
   62700    1.6326217    -5.225003    4668.9567            1 
   62800    1.6342651   -5.2827698    4641.8235            3 
   62900    1.6365529   -5.2386362    4628.8101            1 
   63000    1.6819931   -5.2398398     4660.444            1 
   63100    1.6354544   -5.2292302    4661.5257            2 
   63200     1.626158   -5.2420241    4634.9715            1 
   63300    1.6250513    -5.254698     4626.491            1 
   63400    1.6376825   -5.2174202    4636.8128            1 
   63500    1.6641095   -5.2308674     4667.318            1 
   63600    1.6666919   -5.2490538    4667.6973            2 
   63700    1.6507785   -5.2615854    4644.6363            1 
   63800    1.6504105   -5.2729099    4615.3791            1 
   63900    1.6669877   -5.2869649    4632.1325            1 
   64000    1.6445664    -5.291414    4677.0716            1 
   64100    1.6732976   -5.2629008    4656.0729            1 
   64200    1.6486362   -5.2464889    4621.0067            1 
   64300    1.6537309   -5.2351442    4633.1091            2 
   64400    1.6747754   -5.2335396     4673.218            1 
   64500    1.6236748   -5.1902955    4667.7285            1 
   64600     1.657981   -5.2592982    4628.2872            1 
   64700    1.6379787   -5.2432751    4645.2426            1 
   64800    1.6693135   -5.2460495    4665.7907            2 
   64900    1.6324217    -5.273004     4649.496            1 
   65000    1.6330805   -5.2299066    4643.8019            2 
   65100    1.6569314   -5.2406956    4645.3995            1 
   65200     1.626523   -5.2399838    4643.3185            1 
   65300    1.6490243   -5.2304238    4661.4923            2 
   65400    1.6953223   -5.2140313    4650.3308            2 
   65500    1.6521655   -5.2589371    4641.8657            5 
   65600    1.6074685   -5.2667331    4639.2407            1 
   65700    1.6688935   -5.2775971    4630.6676            3 
   65800    1.6641617   -5.2644448    4656.0198            1 
   65900    1.6532656   -5.2492987    4664.0495            1 
   66000    1.6257116   -5.2859745    4639.5576            2 
   66100    1.6813043   -5.2911973    4619.4443            1 
   66200    1.6765795   -5.2498815    4684.5797            1 
   66300    1.6399324   -5.2315128    4674.8777            1 
   66400    1.6722629   -5.2667999    4627.4592            1 
   66500    1.6409163   -5.2817673    4639.8398            1 
   66600    1.6193618   -5.2524149    4669.3543            1 
   66700    1.6830212    -5.263237    4644.4718            1 
   66800    1.6059063   -5.2225946    4646.3712            1 
   66900    1.6753908     -5.24819    4671.1842            2 
   67000    1.6300843   -5.2235281    4669.1725            1 
   67100    1.6821706   -5.2506967    4637.7402            2 
   67200    1.6242518   -5.2219611    4629.2437            1 
   67300    1.6493898   -5.2644808    4658.7913            1 
   67400    1.6855267    -5.236329     4678.059            2 
   67500     1.664373   -5.2184904    4646.7863            3 
   67600    1.6438925   -5.2235379    4648.2518            4 
   67700    1.6293952   -5.2629203    4657.9171            2 
   67800    1.6482472   -5.2881582    4642.4334            2 
   67900    1.6900902   -5.2456825    4641.3721            3 
   68000    1.6440146   -5.2089641     4646.372            1 
   68100    1.6378545   -5.2628369    4672.0504            2 
   68200    1.6458066   -5.2784018    4633.8004            4 
   68300    1.6857139   -5.2651587    4631.5651            2 
   68400    1.6381822   -5.2379434    4672.1113            1 
   68500    1.6515413   -5.2149491    4666.9056            2 
   68600    1.6378435   -5.2653109     4648.831            1 
   68700    1.6516343   -5.2428021    4663.7192            1 
   68800    1.6282953   -5.2352667    4639.4209            1 
   68900    1.6366312   -5.2149738    4624.6088            2 
   69000    1.6779103   -5.2682272    4662.9925            2 
   69100    1.6355556   -5.2170153     4683.698            4 
   69200    1.6588467   -5.2368727    4649.6148            1 
   69300    1.6503398   -5.2730831    4626.4418            1 
   69400    1.6088186   -5.2588091    4627.4556            4 
   69500    1.6927024   -5.3041475    4633.1677            1 
   69600    1.6407082   -5.2455058    4660.7961            1 
   69700    1.6825701    -5.257652    4661.6679            1 
   69800    1.6278327    -5.230655    4659.8275            2 
   69900    1.6370004   -5.2187849    4648.0398            1 
   70000    1.6788007   -5.2283338    4652.2339            1 
   70100    1.6508932   -5.2507809    4664.9305            2 
   70200    1.6487445     -5.22425    4651.3706            2 
   70300    1.6543769   -5.2000104    4684.4831            1 
   70400    1.6491533    -5.267633    4644.6871            1 
   70500    1.6292657   -5.2464786    4657.4765            1 
   70600    1.6600237   -5.2381929    4667.1088            1 
   70700    1.6384205   -5.2086232    4647.7295            2 
   70800    1.6668185   -5.2751829    4638.4949            1 
   70900     1.625762   -5.2895985    4635.3079            1 
   71000    1.6421711   -5.2765707    4637.5651            1 
   71100    1.6838423   -5.2442318    4641.9138            1 
   71200     1.622598   -5.2041314    4639.2525            1 
   71300    1.6531584   -5.2610767    4674.2318            1 
   71400    1.6775008   -5.2844168    4642.5858            1 
   71500    1.6376808   -5.2474572    4632.9768            2 
   71600    1.6726913   -5.2367705    4657.3124            2 
   71700    1.6206282   -5.2539061    4670.8663            1 
   71800    1.6601374   -5.2306312    4658.0293            2 
   71900    1.6763572   -5.2465717    4643.1433       -1e+20 
   72000    1.6409695   -5.2636795    4641.4804            2 
   72100    1.6510939   -5.2563222    4658.8874            1 
   72200    1.6522066   -5.2510919    4647.4605            2 
   72300     1.700228   -5.2461666    4649.2052            2 
   72400      1.64446   -5.2479088    4636.4509            1 
   72500    1.6505764   -5.2512809    4656.5311            1 
   72600     1.694882   -5.2808357    4667.0866            4 
   72700    1.6241087   -5.2532263    4640.6315            1 
   72800    1.6538033   -5.2345765    4639.4368            3 
   72900    1.6610229   -5.2284098    4645.3941            1 
   73000    1.6502345   -5.2810258    4649.2673            2 
   73100     1.610128   -5.3005972    4633.1895            2 
   73200     1.630269   -5.2412929    4633.6273            1 
   73300    1.6727624   -5.2379231    4639.6151            1 
   73400    1.6224604   -5.2416344    4661.4504            1 
   73500    1.6562547   -5.2191063     4657.961            1 
   73600    1.6587082   -5.2525737    4650.1997            1 
   73700    1.6272769   -5.2831271    4629.7989            2 
   73800    1.6949581   -5.2945931    4638.4312            1 
   73900    1.6344972   -5.3015085    4641.1083            2 
   74000     1.630617   -5.2688196    4637.4693            1 
   74100    1.6420292   -5.2314329    4639.5136            1 
   74200    1.6693622   -5.2589548    4637.8866            1 
   74300    1.6067617   -5.2754039    4664.3372            3 
   74400    1.6179359   -5.2242304    4659.1677            1 
   74500    1.6953876   -5.2195234    4637.2031            1 
   74600    1.6736413   -5.2553665    4660.5758            2 
   74700    1.6383337   -5.2817855    4646.9112            2 
   74800    1.6446183   -5.2498655    4632.2724            1 
   74900    1.6506366   -5.1912244    4648.1017            1 
   75000    1.6346967    -5.207508    4657.3001            2 
   75100    1.6468115   -5.2422554    4663.8623            1 
   75200     1.681992   -5.2408224    4655.7828            1 
   75300      1.61856    -5.235755    4670.2824            1 
   75400    1.6770297   -5.2217034    4636.9856            2 
   75500    1.6485267   -5.2490977    4615.4901            2 
   75600    1.6237184    -5.279657    4664.6017            1 
   75700    1.6296048   -5.2144461     4654.905            4 
   75800    1.6691672    -5.242863    4637.4066            1 
   75900    1.6793498   -5.2284788    4667.6106            2 
   76000    1.6479624   -5.2584627    4657.4948            2 
   76100     1.668244   -5.3045557    4650.6183            2 
   76200    1.6202016   -5.2866132    4617.7287            1 
   76300    1.6460293   -5.2611794    4642.5726            3 
   76400     1.629865   -5.2628652    4664.5465            3 
   76500    1.6791036   -5.2174002    4652.2762            2 
   76600    1.6600541   -5.2512435    4643.1084            1 
   76700    1.6171286    -5.296157    4645.9051            3 
   76800     1.661897   -5.2691536    4620.0617            2 
   76900    1.6676283   -5.2568523    4639.1252            2 
   77000    1.6235405   -5.2299273    4694.6443            1 
   77100    1.6630092   -5.2392191    4654.5405            1 
   77200    1.6415322   -5.2203712    4645.1424            1 
   77300    1.6579567   -5.2454349    4657.5123            3 
   77400    1.6401874   -5.2169753    4652.4017            2 
   77500    1.6571999   -5.2365921    4653.5456            1 
   77600    1.6526988   -5.2857474    4644.0224            2 
   77700    1.6443236   -5.2871073    4661.0938            1 
   77800    1.6698216   -5.2785145     4656.666            2 
   77900    1.6508562   -5.2371574    4634.8363            2 
   78000     1.665377   -5.2258483    4661.1425            1 
   78100    1.6283853   -5.2192346    4673.8644            2 
   78200    1.6787547   -5.2234789    4652.1507            2 
   78300    1.6379877   -5.2305468    4659.5511            1 
   78400    1.6468179   -5.2387891    4657.1647            1 
   78500     1.683138   -5.2403041    4662.8762            2 
   78600    1.6299868   -5.2400409    4629.7574            2 
   78700     1.657934   -5.2676389    4660.7353            3 
   78800    1.6445878   -5.2422912    4663.5691            3 
   78900    1.6463774    -5.272975     4624.033            1 
   79000    1.6413264   -5.2236508    4651.5945            4 
   79100    1.6444191   -5.2004758    4660.3606            2 
   79200    1.6557146   -5.2346809     4652.458            1 
   79300    1.6107207   -5.2475492    4634.4058            1 
   79400    1.6368758   -5.2582228    4639.5823            1 
   79500     1.666695   -5.2351381    4649.8026            2 
   79600    1.6438273    -5.263732    4650.4333            1 
   79700    1.6913522   -5.2301655    4669.5741            1 
   79800    1.6778583   -5.2451357    4664.2263            2 
   79900    1.6327831   -5.2387949     4656.039            1 
   80000    1.6713617   -5.2377193    4644.4467            2 
   80100    1.7046398   -5.2636075    4670.9287            1 
   80200      1.59889   -5.2089374    4702.3194            3 
   80300    1.6869638   -5.2164933    4655.9464            1 
   80400    1.6457695   -5.2259644    4658.6908            3 
   80500    1.6732906   -5.2278126    4669.8849            2 
   80600     1.653333     -5.23454    4663.1993            2 
   80700    1.6334695   -5.2218355    4650.3257            2 
   80800    1.6605796   -5.2236115    4662.8251            1 
   80900    1.6400919   -5.2011271    4668.6709            2 
   81000    1.6589684    -5.193607    4661.6358            1 
   81100    1.6387897   -5.2159512    4652.3955            2 
   81200    1.6155026     -5.26303    4676.2992            1 
   81300    1.6911137   -5.2583975    4635.4568            4 
   81400    1.6522409    -5.244925    4633.9774            1 
   81500     1.625437   -5.2771676    4638.7774            1 
   81600    1.6316107   -5.3023711    4640.1059            2 
   81700    1.6687055   -5.2773448    4650.0224            1 
   81800    1.6746728    -5.255969    4645.5632            1 
   81900    1.6239636   -5.2246919      4653.18            1 
   82000    1.6559667   -5.2410814    4650.6685            1 
   82100    1.6442266   -5.1873194    4670.9737            1 
   82200    1.6510886   -5.2428226    4627.9632            2 
   82300     1.639257   -5.2767831    4648.1797            2 
   82400    1.6474879   -5.2339673     4667.567            2 
   82500    1.6957729   -5.2411447    4639.9557            1 
   82600    1.6282814   -5.2497185     4659.798            4 
   82700    1.6331245   -5.2243104    4670.0077            1 
   82800    1.6891477   -5.2196448    4669.9943            1 
   82900    1.6497115    -5.218782     4648.322            2 
   83000     1.643295   -5.2331429    4647.5825            1 
   83100    1.6889477   -5.2343539    4679.1447            1 
   83200    1.6321518   -5.2040165     4641.057            1 
   83300    1.6527055   -5.2177613    4633.9381            1 
   83400    1.6189415   -5.2666543    4635.4663            2 
   83500     1.678205   -5.2937578    4649.1228            1 
   83600    1.6512586   -5.2350182    4637.1409            2 
   83700    1.6395015   -5.2740769    4631.9683            2 
   83800    1.6608662   -5.2984967    4664.3911            2 
   83900    1.6415572   -5.2088448    4646.2651            2 
   84000    1.6358218   -5.2640251    4627.6876            5 
   84100     1.629256   -5.2079407    4663.0092            2 
   84200    1.6862405   -5.2489769    4664.3411            1 
   84300      1.60242   -5.2248975    4661.7156            1 
   84400    1.6372508   -5.1919542    4671.6184            1 
   84500    1.6760033   -5.2415636    4649.9327            2 
   84600    1.6299477   -5.2401799    4651.9239            1 
   84700    1.6594037   -5.2498412    4653.9047            1 
   84800    1.6668319   -5.2027425    4654.6683            1 
   84900    1.6425158   -5.2277274    4665.0451            1 
   85000    1.6357988   -5.2741617    4649.9909            3 
   85100    1.6851576   -5.2353511    4641.3982            1 
   85200    1.6351501   -5.1996821    4651.9211            2 
   85300    1.6324177   -5.2022214    4658.7477            1 
   85400    1.6553545   -5.2131823    4652.6122            1 
   85500    1.6161989   -5.2458894    4650.6363            1 
   85600    1.6335546   -5.2393738    4665.3415            2 
   85700    1.7043709   -5.2221442    4639.7347            1 
   85800    1.6588375   -5.2286316    4664.9896            1 
   85900    1.6129435   -5.2410437    4667.9287            2 
   86000    1.6681396    -5.265619     4644.815            2 
   86100    1.6358192   -5.2356249    4648.4855            1 
   86200    1.6521549   -5.2085179    4657.9037            3 
   86300    1.6222049   -5.2263388    4653.1524            1 
   86400    1.6804034   -5.2166393    4650.7942            1 
   86500    1.6685568    -5.266134    4633.6455            2 
   86600     1.639681   -5.2889326    4653.4936            1 
   86700    1.6499826   -5.2390612    4660.6149            3 
   86800    1.6643808   -5.2078077    4647.2951            3 
   86900     1.647976   -5.2203391    4633.1175            2 
   87000    1.6204255    -5.287647    4660.1437            2 
   87100    1.6483351   -5.2547778    4649.7757            1 
   87200    1.6576325   -5.2267202    4646.9417            1 
   87300    1.6470471   -5.2751609    4635.6935            2 
   87400    1.6326731   -5.2466001    4639.5279            1 
   87500    1.6489646   -5.2283931    4657.7473            1 
   87600    1.6386597   -5.2704556    4639.2881            2 
   87700    1.6352787    -5.228979    4626.9346            2 
   87800    1.6380632   -5.2040988    4652.8847            1 
   87900    1.6357584   -5.2036288    4691.8314            1 
   88000    1.6650184   -5.2474705    4646.8613            1 
   88100    1.6377893   -5.2225329    4657.8821            1 
   88200    1.6765028   -5.2394645    4666.8901            1 
   88300    1.6443182   -5.2149793    4667.9829            1 
   88400    1.6382271   -5.2284687    4670.1434            1 
   88500    1.6854448   -5.2241035    4651.1941            1 
   88600    1.6603121   -5.2630136    4629.6459            3 
   88700    1.6409827   -5.2913085    4649.0498            1 
   88800    1.6605657   -5.2728055    4651.9865            2 
   88900    1.6829541   -5.2746343    4640.9567            2 
   89000    1.6281673   -5.2494395    4649.8766            1 
   89100    1.6604954   -5.2371427    4645.2789       -1e+20 
   89200    1.6628099    -5.197003    4683.4074            1 
   89300    1.6530661    -5.220228    4658.7796            2 
   89400    1.6490856   -5.2438525    4670.6116            1 
   89500    1.6947023    -5.226516    4669.0164            2 
   89600    1.6370754   -5.2270916    4644.8964            1 
   89700    1.6164231   -5.2396865     4647.072            2 
   89800    1.6561441   -5.2869869     4605.043            1 
   89900    1.6243827   -5.2695071    4628.2305            1 
   90000     1.634172   -5.2596214    4655.7129            3 
   90100    1.6595982   -5.2329896    4642.7566            3 
   90200    1.6489871   -5.2518961    4626.0731            1 
   90300     1.632873   -5.3074732    4645.9854            1 
   90400    1.6562559   -5.2662657    4645.5664            1 
   90500    1.6591088   -5.2408068    4636.4489            1 
   90600    1.6043528   -5.2505021    4621.5575            1 
   90700    1.6415848   -5.2411083    4648.9571            3 
   90800    1.6506445   -5.2468568     4670.396            1 
   90900    1.6957221   -5.2475593    4674.5907            1 
   91000    1.6577329   -5.2234604    4677.4818            2 
   91100    1.6311268   -5.2277841    4657.4025            2 
   91200    1.6639857   -5.2285062    4659.0336            1 
   91300    1.6464353   -5.2062691    4669.8691            2 
   91400    1.6660189   -5.2656382    4653.0646            2 
   91500    1.6457642   -5.2591585    4638.8229            2 
   91600    1.6578516   -5.2258023     4645.051            2 
   91700     1.671933   -5.1876625      4673.01            2 
   91800     1.663808   -5.2664037    4667.9539            1 
   91900    1.6426841   -5.2767632     4648.013            2 
   92000    1.6955654   -5.2668489    4622.7969            1 
   92100    1.6167183   -5.1991354     4668.266            1 
   92200    1.6396127   -5.2504446    4657.1384            1 
   92300    1.6803876   -5.2467957    4641.9427            2 
   92400    1.6493524   -5.2596623    4666.0119            1 
   92500    1.6216752   -5.2448098    4653.0626            1 
   92600    1.6847201   -5.2440601    4628.0128            1 
   92700    1.6131439    -5.171382    4653.5685            1 
   92800    1.6437093   -5.2474971     4653.877            1 
   92900    1.6700578   -5.2703507    4630.6395            2 
   93000    1.6517789    -5.253601    4648.3056            2 
   93100    1.5934068   -5.2552446    4655.4436            1 
   93200    1.6604755   -5.2469623    4626.6729            2 
   93300    1.6622008   -5.2158853     4639.835            2 
   93400    1.6244719   -5.2455799    4682.5108            1 
   93500     1.672358   -5.2467428    4643.9853            4 
   93600    1.6604245   -5.2705177    4649.7977            1 
   93700    1.6776308   -5.2432086    4660.0984            3 
   93800    1.6556333   -5.2030104    4679.2164            1 
   93900    1.6614347   -5.1796616    4655.0193            1 
   94000    1.6494056   -5.2574141    4667.0045            1 
   94100    1.6580307   -5.2531364    4653.3449            1 
   94200    1.6429006   -5.2578783    4641.0479            1 
   94300    1.6670917   -5.2480576    4660.2221            2 
   94400     1.645997   -5.1876122    4690.4399            1 
   94500    1.6911368   -5.2257943    4672.0648            1 
   94600    1.6504965   -5.2496665    4667.1386            1 
   94700    1.6467748   -5.2547851    4659.2065            3 
   94800    1.6552713    -5.233759    4653.7834            4 
   94900    1.6583816    -5.219231    4670.7506            2 
   95000     1.657432    -5.280429    4631.4242            2 
   95100    1.6495261   -5.2650613     4650.176            1 
   95200    1.6543149   -5.2421189    4659.8015            1 
   95300    1.6837733   -5.2133865    4650.4607            1 
   95400    1.6277277   -5.2409099    4656.0836            1 
   95500    1.6319944    -5.258595     4650.292            1 
   95600    1.6640594    -5.261276    4621.4664            1 
   95700     1.674054   -5.2461817    4654.1264            2 
   95800    1.6410956   -5.2612618    4665.3541            1 
   95900    1.6825428   -5.2679022    4644.1965            1 
   96000    1.6406175   -5.2379551    4658.3413            1 
   96100    1.6473343   -5.2254493    4653.6531            2 
   96200    1.6359954   -5.2557171    4634.8268            2 
   96300    1.6340466    -5.243048    4658.4571            1 
   96400    1.6742477   -5.2467594    4638.4381            3 
   96500    1.6324524    -5.235288    4650.6492            2 
   96600     1.661323   -5.2366995    4670.8946            2 
   96700    1.6774131   -5.2043592    4660.1452            1 
   96800    1.6563441     -5.24275    4649.6498            1 
   96900    1.6140714   -5.2661549    4653.9158            2 
   97000    1.6634693   -5.2901797    4636.4515       -1e+20 
   97100    1.6779835   -5.2479145    4624.1379            1 
   97200    1.6650661   -5.2281828    4677.4858            2 
   97300    1.6906189   -5.2173963    4681.2445            1 
   97400    1.6294868   -5.2043391    4637.3256            1 
   97500     1.668987   -5.2525361    4629.7415            2 
   97600     1.603331   -5.2555547    4640.4579            1 
   97700    1.6512992   -5.2494528    4634.4252            2 
   97800    1.6752944   -5.2537574    4654.2041            1 
   97900    1.6449725   -5.2701053    4666.7561            3 
   98000    1.6611358   -5.2174864    4644.8778            2 
   98100    1.6529253   -5.2407054    4642.7887            2 
   98200    1.5966352   -5.2638306    4643.1586            1 
   98300    1.6420864   -5.2779099    4631.4412            1 
   98400    1.6653983   -5.2337725    4650.4522            3 
   98500    1.6579784   -5.2422681    4649.7387            1 
   98600    1.6337955   -5.2637355     4629.001            1 
   98700    1.6529157   -5.2476236    4662.5618            1 
   98800    1.6355806   -5.2337297    4662.8435            3 
   98900    1.6588201   -5.2265259    4643.0636            2 
   99000    1.6312242   -5.2202076    4670.9231            1 
   99100     1.661747   -5.2454728    4655.3611            1 
   99200    1.6554534   -5.2103559    4648.6424            2 
   99300    1.6241331   -5.2429422    4655.6748            2 
   99400    1.6524411   -5.2985368     4654.116            1 
   99500    1.6688125   -5.2629159     4629.007            2 
   99600    1.6284114   -5.2639195     4626.842            1 
   99700    1.6552593   -5.2795193    4657.5042            1 
   99800    1.6762203   -5.2421461    4654.6311            1 
   99900    1.6443332   -5.2530281    4648.1077            1 
  100000    1.6666163   -5.2621368    4655.2402            2 
  100100    1.5947122   -5.2215254    4642.1801            1 
  100200    1.6729188   -5.2624915    4663.8878            1 
  100300    1.6627802   -5.2522823    4642.6849            3 
  100400    1.6130129   -5.2567372    4623.4563            3 
  100500    1.6497524   -5.2376309    4626.6135            2 
  100600    1.6269733   -5.2272433    4644.7074            1 
  100700    1.6671983    -5.272808    4674.8646            2 
  100800    1.6265774   -5.2228019    4638.2716            2 
  100900    1.6568787   -5.2392462    4638.8393            2 
  101000    1.6475257   -5.2466594    4657.1844            1 
  101100     1.625085   -5.2667723    4632.8446            1 
  101200    1.6253276   -5.3171885    4599.6834            1 
  101300    1.6265556   -5.2468622    4633.8564            1 
  101400    1.6363732   -5.2303218    4668.9339            1 
  101500    1.6524962   -5.2016507    4655.8436            2 
  101600    1.6310451   -5.2227457    4640.0587            1 
  101700    1.6489251   -5.2246733    4635.7554            2 
  101800    1.6498461   -5.2223951    4670.5725            1 
  101900    1.6275119   -5.1848381    4688.4801            1 
  102000      1.66853   -5.2218553    4634.2639            1 
  102100    1.6262142   -5.2309743    4653.1404            1 
  102200    1.6411504   -5.2742166    4656.5145            1 
  102300     1.669165   -5.2430127    4636.7994            1 
  102400    1.6639032   -5.2192374    4660.1643            1 
  102500    1.6340866   -5.2730138    4675.3799            2 
  102600    1.6283222   -5.2444838     4640.067            4 
  102700    1.6948542   -5.2446034    4622.4644            1 
  102800    1.6354712   -5.2270472    4664.6223            2 
  102900     1.655582   -5.2476344    4662.4595            1 
  103000    1.6517766   -5.2596228    4642.2363            3 
  103100    1.6469908   -5.2251711    4668.7412            2 
  103200    1.6329089   -5.2254286    4650.9931            2 
  103300    1.6735412   -5.2691344    4641.0909            5 
  103400    1.6571889   -5.2627985    4647.4477            1 
  103500    1.6109681   -5.2685142    4640.2854            2 
  103600    1.6570778   -5.2504405    4634.7616            1 
  103700    1.6390434     -5.24949    4632.0032            1 
  103800    1.6174197   -5.2701209    4653.2853            2 
  103900    1.6395686   -5.2589222    4638.7651            3 
  104000    1.6468507   -5.2026469    4624.5904            1 
Loop time of 272.869 on 18 procs for 100000 steps with 4000 atoms

Performance: 63327.164 tau/day, 366.477 timesteps/s
99.6% CPU use with 18 MPI tasks x no OpenMP threads

MPI task timing breakdown:
Section |  min time  |  avg time  |  max time  |%varavg| %total
---------------------------------------------------------------
Pair    | 32.577     | 34.397     | 36.014     |  16.6 | 12.61
Neigh   | 5.7408     | 5.8782     | 6.0025     |   2.8 |  2.15
Comm    | 12.423     | 15.053     | 18.991     |  57.3 |  5.52
Output  | 5.6852     | 5.6863     | 5.7012     |   0.2 |  2.08
Modify  | 206.24     | 209.41     | 213.09     |  16.3 | 76.74
Other   |            | 2.448      |            |       |  0.90

Nlocal:        222.222 ave         230 max         214 min
Histogram: 1 0 1 4 2 5 1 1 2 1
Nghost:        2167.72 ave        2189 max        2149 min
Histogram: 1 1 2 4 2 4 0 1 0 3
Neighs:        21941.9 ave       23558 max       20718 min
Histogram: 2 3 0 3 4 2 2 0 1 1
FullNghs:      43883.6 ave       45477 max       41602 min
Histogram: 1 0 1 1 3 5 2 1 0 4

Total # of neighbors = 789905
Ave neighs/atom = 197.47625
Neighbor list builds = 7625
Dangerous builds = 12

#clear
#
#next RN
#
#jump SELF
Total wall time: 0:04:35
