
units lj                  # Use reduced LJ style units
atom_style atomic         # Uncharged point particles
atom_modify map hash      # Needed for indexing of clusters etc
                          # Used to be able to find where atoms are in relation to each other.

lattice fcc 1.0 spacing 1 1 1
Lattice spacing in x,y,z = 1.5874011 1.5874011 1.5874011
region box block 0 10 0 10 0 10 units lattice
create_box 2 box
Created orthogonal box = (0.0000000 0.0000000 0.0000000) to (15.874011 15.874011 15.874011)
  3 by 4 by 4 MPI processor grid
create_atoms 1 box
Created 4000 atoms
  using lattice units in orthogonal box = (0.0000000 0.0000000 0.0000000) to (15.874011 15.874011 15.874011)
  create_atoms CPU = 0.010 seconds
set type 1 type/fraction 2 0.47 78393
Setting atom values ...
  1873 settings made for type/fraction
mass 1 1.0
mass 2 1.0
pair_style lj/cut  3.5
pair_modify tail  yes
pair_coeff 1  1  1.0  1.0   # Intearaction between 1 and 1 set with epsilon = 1 and sigma = 1
pair_coeff 1  2  1.5  0.8
pair_coeff 2  2  0.5  0.88

write_data data.0
System init for write_data ...
Neighbor list info ...
  update every 1 steps, delay 10 steps, check yes
  max neighbors/atom: 2000, page size: 100000
  master list distance cutoff = 3.8
  ghost atom cutoff = 3.8
  binsize = 1.9, bins = 9 9 9
  1 neighbor lists, perpetual/occasional/extra = 1 0 0
  (1) pair lj/cut, perpetual
      attributes: half, newton on
      pair build: half/bin/atomonly/newton
      stencil: half/bin/3d
      bin: standard
WARNING: Not all mixed pair coeffs generated from mixing. Use write_data with 'pair ij' option to store all pair coeffs. (../write_data.cpp:312)


#############################
#   M E L T   S Y S T E M   #
#############################

velocity all create 2.4 3143649 mom yes dist gaussian # Assign velocities
                                                    # Temperature 2.4, random number seed, zero linear momentum
                                                                                # Gaussian distribution

timestep 0.002   # simulation timestep
thermo 1000       # output thermodynamic data every 1000 steps bf 100

# Define a fix  in this case with index 1 applied to all
# particles in the simulation. This fix is for simulations
# in the anisotropic NPT ensemble. Note that we use the MTK
# correction.
fix 1 all npt temp 2.4 2.4 0.1 iso 5.68 5.68 0.5 mtk yes tchain 5 pchain 5 # Use NPT ensemble
                                                                         # Set temperature and pressure and damping
                                                                         # Numbers of thermostats in chain and in barostat
run 10000          # run for 10000 steps
Per MPI rank memory allocation (min/avg/max) = 3.642 | 3.644 | 3.648 Mbytes
Step Temp E_pair E_mol TotEng Press Volume 
       0          2.4   -5.4815223            0   -1.8824223   -4.2035566         4000 
    1000    2.3936865   -4.9677666            0   -1.3781344    5.7329522    3746.3007 
    2000    2.4231946   -4.9612155            0   -1.3273323    5.8438474    3744.4134 
    3000    2.4142548   -5.0138864            0   -1.3934095    5.4591535     3744.551 
    4000    2.3488872   -4.9401425            0   -1.4176925    5.5281585     3778.063 
    5000    2.3883519    -4.939143            0   -1.3575108    5.5254454    3763.0244 
    6000    2.4140213   -4.9528868            0   -1.3327601    5.5798138    3771.0942 
    7000     2.396621   -4.9130535            0   -1.3190207    5.8774733    3755.2418 
    8000    2.3645676   -4.9654433            0   -1.4194786    5.7306173    3746.9221 
    9000    2.3507065   -4.9637019            0   -1.4385236    5.8421281    3737.6267 
   10000    2.3714849   -5.0310629            0   -1.4747248    5.5082913    3733.4742 
Loop time of 2.57613 on 48 procs for 10000 steps with 4000 atoms

Performance: 670774.690 tau/day, 3881.798 timesteps/s
99.6% CPU use with 48 MPI tasks x no OpenMP threads

MPI task timing breakdown:
Section |  min time  |  avg time  |  max time  |%varavg| %total
---------------------------------------------------------------
Pair    | 1.1689     | 1.2348     | 1.3014     |   2.7 | 47.93
Neigh   | 0.21336    | 0.22081    | 0.22844    |   0.7 |  8.57
Comm    | 0.79237    | 0.86294    | 0.95397    |   3.9 | 33.50
Output  | 0.00025006 | 0.00025422 | 0.00032524 |   0.0 |  0.01
Modify  | 0.21356    | 0.24155    | 0.27227    |   3.6 |  9.38
Other   |            | 0.01574    |            |       |  0.61

Nlocal:        83.3333 ave          95 max          71 min
Histogram: 2 1 3 3 10 15 7 5 1 1
Nghost:        1719.69 ave        1745 max        1689 min
Histogram: 1 4 3 5 7 8 7 2 8 3
Neighs:        10228.3 ave       11788 max        8401 min
Histogram: 2 0 2 5 8 17 5 5 2 2

Total # of neighbors = 490960
Ave neighs/atom = 122.74000
Neighbor list builds = 903
Dangerous builds = 198

# Equilibrate just above the melting temperature to avoid step fn in T

fix 1 all npt temp 1.25 1.25 0.1 iso 5.68 5.68 0.5 mtk yes tchain 5 pchain 5
run 2000
Per MPI rank memory allocation (min/avg/max) = 3.644 | 3.646 | 3.649 Mbytes
Step Temp E_pair E_mol TotEng Press Volume 
   10000    2.3714849   -5.0310629            0   -1.4747248    5.5082913    3733.4742 
   11000    1.2678097   -7.0996166            0   -5.1983776    5.6340065    2928.5484 
   12000    1.2466155    -7.150838            0   -5.2813822    6.0755972    2897.5485 
Loop time of 0.638871 on 48 procs for 2000 steps with 4000 atoms

Performance: 540954.232 tau/day, 3130.522 timesteps/s
99.6% CPU use with 48 MPI tasks x no OpenMP threads

MPI task timing breakdown:
Section |  min time  |  avg time  |  max time  |%varavg| %total
---------------------------------------------------------------
Pair    | 0.2833     | 0.31249    | 0.33483    |   2.2 | 48.91
Neigh   | 0.040313   | 0.042518   | 0.045367   |   0.5 |  6.66
Comm    | 0.20854    | 0.23398    | 0.26656    |   2.8 | 36.62
Output  | 5.2489e-05 | 6.0573e-05 | 7.0446e-05 |   0.0 |  0.01
Modify  | 0.040267   | 0.044798   | 0.049201   |   1.2 |  7.01
Other   |            | 0.005027   |            |       |  0.79

Nlocal:        83.3333 ave          93 max          77 min
Histogram: 3 8 6 12 2 9 4 0 3 1
Nghost:        2037.21 ave        2058 max        2015 min
Histogram: 1 1 7 7 5 9 8 6 3 1
Neighs:        13193.0 ave       14920 max       11455 min
Histogram: 1 2 5 9 9 6 6 4 4 2

Total # of neighbors = 633266
Ave neighs/atom = 158.31650
Neighbor list builds = 141
Dangerous builds = 10

#############################
# L I N E A R  Q U E N C H  #
#############################

# Define solid atoms. This closely follows ten Wolde  Ruiz-Montero and Frenkel  Faraday Discuss  1996  104  93-110
# Compute components of the per-atom q6 vector
compute q6 all orientorder/atom degrees 1 6 components 6 nnn NULL cutoff 1.3 # compute the Q6 parameter.
                                                                             # Use all neighbours within 1.3 unit cell.

# get number of connections
compute coord_number all coord/atom orientorder q6 0.5

# An atom is solid if it has 8 or more connections (of a possible 14)
variable is_solid atom c_coord_number>=8
group solid dynamic all var is_solid    # Must be dynamic to update
dynamic group solid defined

# do clustering
compute cluster solid cluster/atom 1.3 # Create a cluster where all atoms within are solid and max 1.3 units from another member

# define chunks one chunk per cluster
compute clus_chunks solid chunk/atom c_cluster nchunk every compress yes  # Says which atoms are in which chunk

# count the size of each chunk
compute size_chunks solid property/chunk clus_chunks count


# Find the maximum entry in the vector of chunk sizes
variable max_n equal max(c_size_chunks)


# Thermo style which includes this variable
# thermo_style custom step temp pe vol v_max_n

thermo ${N}  # Print the thermo information every 100 steps
thermo 1000  

# Reset the npt fix at a lower temperature (below freezing)
fix 1  all npt temp  ${temp} ${temp}  0.1  iso  5.68  5.68  0.5  mtk yes tchain  5  pchain  5
fix 1  all npt temp  0.45 ${temp}  0.1  iso  5.68  5.68  0.5  mtk yes tchain  5  pchain  5
fix 1  all npt temp  0.45 0.45  0.1  iso  5.68  5.68  0.5  mtk yes tchain  5  pchain  5

dump dmp2 all dcd ${N} traj.dcd
dump dmp2 all dcd 1000 traj.dcd


compute msd all msd com yes
variable twopoint equal c_msd[4]/6/(step*dt+1.0e-6)
fix 9 all vector 10 c_msd[4]
variable fit equal slope(f_9)/6/(10*dt)
thermo_style custom step temp pe c_msd[4] v_twopoint v_fit v_max_n

fix 1 all npt temp 1.25 ${temp} 0.1 iso 5.68 5.68 0.5 mtk yes tchain 5 pchain 5
fix 1 all npt temp 1.25 0.45 0.1 iso 5.68 5.68 0.5 mtk yes tchain 5 pchain 5
run 5000000 # 5000000  # Run for this many steps
Neighbor list info ...
  update every 1 steps, delay 10 steps, check yes
  max neighbors/atom: 2000, page size: 100000
  master list distance cutoff = 3.8
  ghost atom cutoff = 3.8
  binsize = 1.9, bins = 8 8 8
  4 neighbor lists, perpetual/occasional/extra = 1 3 0
  (1) pair lj/cut, perpetual
      attributes: half, newton on
      pair build: half/bin/atomonly/newton
      stencil: half/bin/3d
      bin: standard
  (2) compute orientorder/atom, occasional
      attributes: full, newton on
      pair build: full/bin/atomonly
      stencil: full/bin/3d
      bin: standard
  (3) compute coord/atom, occasional
      attributes: full, newton on
      pair build: full/bin/atomonly
      stencil: full/bin/3d
      bin: standard
  (4) compute cluster/atom, occasional
      attributes: full, newton on
      pair build: full/bin/atomonly
      stencil: full/bin/3d
      bin: standard
Per MPI rank memory allocation (min/avg/max) = 9.836 | 9.841 | 9.844 Mbytes
Step Temp PotEng c_msd[4] v_twopoint v_fit v_max_n 
   12000    1.2466155    -7.150838 1.9721523e-34 1.3695501e-36 8.3333333e+20            3 
   13000    1.2054147   -7.1590931   0.45857466 0.0029395811  0.037080512            1 
   14000    1.2343525   -7.1400442   0.86289804 0.0051362977  0.034723826            8 
   15000    1.2333328   -7.1262201    1.3033515 0.0072408415  0.035166516            1 
   16000    1.2564985   -7.1583822    1.7487922 0.0091082926  0.035967206            2 
   17000    1.2417794   -7.1489432    2.1526479  0.010552195  0.035670427            1 
   18000    1.2233528    -7.111664    2.5696331  0.011896449  0.035335021            1 
   19000    1.2526594    -7.119497    2.9688942  0.013021466  0.035205817            2 
   20000    1.2633452   -7.0720534    3.4668905  0.014445377  0.035215775            3 
   21000    1.2416561   -7.1508529    3.7466534  0.014867672  0.035185072            1 
   22000     1.212018   -7.1535434    4.1495479  0.015717984  0.034665856            2 
   23000    1.2785954   -7.1156868    4.5522535  0.016493672  0.034431292            1 
   24000    1.2314593   -7.1484262    4.9893242  0.017324042   0.03433762            1 
   25000    1.2434999   -7.1329141    5.4456666  0.018152222  0.034325138            1 
   26000    1.2378014   -7.1813575    5.7836796  0.018537434  0.034272871            2 
   27000    1.2376301   -7.1671918    6.1487312  0.018977565  0.034119076            3 
   28000    1.2267535   -7.1525512    6.4937111  0.019326521  0.033939198            2 
   29000    1.2567389   -7.1430298    6.7549356  0.019410734  0.033613498            1 
   30000    1.2312146   -7.1393838    7.2517737  0.020143815  0.033408405            1 
   31000    1.2584755   -7.1532371    7.6902949  0.020672835  0.033354678            2 
   32000    1.2267617   -7.0942019    8.0983097  0.021089348  0.033288561            2 
   33000     1.267181   -7.1593178    8.5448932  0.021578013  0.033245495            1 
   34000    1.2274988    -7.144711    8.8955958  0.021802931  0.033224492            1 
   35000     1.265947   -7.1630945    9.2901107  0.022119311  0.033208738            1 
   36000    1.2503783   -7.1745768     9.623191  0.022275905  0.033174371            5 
   37000    1.2581266   -7.0908684    10.171788  0.022909433  0.033187276            1 
   38000    1.2512837   -7.1844953    10.479392  0.022981122   0.03319535            2 
   39000    1.2302522   -7.1335052    10.935528  0.023366512  0.033225827            1 
   40000    1.2342239   -7.1652613    11.308989  0.023560394  0.033256357            2 
   41000    1.2440601   -7.1225017    11.729805  0.023841066  0.033247941            2 
   42000    1.2592605   -7.1352802    12.120566  0.024048742  0.033249456            1 
   43000    1.2477641   -7.1437838    12.377352  0.023987116  0.033210573            2 
   44000     1.269594   -7.1430864     12.71681  0.024084867  0.033151107            1 
   45000    1.2622194   -7.1628187    13.214044  0.024470451  0.033097384            1 
   46000    1.2498197   -7.1277912    13.654851  0.024737048  0.033081785            3 
   47000    1.2426867   -7.1379167     14.07971  0.024964025  0.033094418            2 
   48000    1.2829151    -7.106046    14.570952  0.025296791  0.033102241            2 
   49000    1.2564429   -7.1680179    15.059064  0.025610653  0.033162391            1 
   50000    1.2540217   -7.1446308    15.347721  0.025579535  0.033217794            1 
   51000    1.2518421   -7.1498815    15.691864  0.025640301  0.033227046            2 
   52000    1.2613913    -7.159836     16.15103  0.025883061  0.033234761            1 
   53000    1.2381164   -7.1297257    16.600238  0.026101003  0.033257084            3 
   54000    1.2430399   -7.0678408    17.021857  0.026268298  0.033300233            3 
   55000    1.2483095   -7.1687406     17.41362  0.026384273  0.033330711            1 
   56000    1.2339411    -7.149718    17.990501  0.026771579  0.033378867            1 
   57000    1.2653577   -7.0952472    18.303803  0.026759946  0.033432844            1 
   58000     1.277251   -7.1677871    18.674149  0.026830674  0.033472341            1 
   59000    1.2612364   -7.1283992    18.908779  0.026707314  0.033478017            1 
   60000    1.2302169   -7.2025585    19.336965  0.026856895  0.033475323            3 
   61000    1.2461186   -7.0826702    19.879774  0.027158161  0.033482978            1 
   62000    1.2437577   -7.1303731    20.268034  0.027241981  0.033505421            3 
   63000    1.2649346   -7.1250394    20.840221   0.02756643  0.033538847            2 
   64000    1.2391638   -7.1441604    21.263943  0.027687426   0.03358432            2 
   65000    1.2358649   -7.1518624    21.752898  0.027888331  0.033625755            1 
   66000    1.2224685   -7.1600793    22.032369  0.027818647  0.033667409            4 
   67000    1.2450158   -7.1680251    22.208827  0.027622919  0.033673844            2 
   68000    1.2332942    -7.192944    22.648873  0.027755971  0.033665672            1 
   69000    1.2408406     -7.17781    22.928745  0.027691721   0.03364829            2 
   70000    1.2636773   -7.1646218    23.362901  0.027812977  0.033627746            2 
   71000     1.233503   -7.1785969    23.990831  0.028158252   0.03362717            1 
   72000     1.239812   -7.1739797    24.201161  0.028010603  0.033629908            2 
   73000    1.2483708   -7.1888354    24.542364  0.028016397  0.033624396            2 
   74000    1.2350929   -7.1701305    25.094721  0.028259821   0.03361962            2 
   75000    1.2302518   -7.1621264    25.573125  0.028414583  0.033628257            2 
   76000    1.2266429   -7.1971082     25.91688  0.028417631   0.03363497            1 
   77000    1.2427896   -7.1834313    26.504173  0.028684169  0.033649156            1 
   78000       1.2434   -7.1848076    26.942698  0.028784934  0.033675308            1 
   79000    1.2334725    -7.191274    27.258724  0.028753928  0.033691762            1 
   80000    1.2357043   -7.1589344    27.813042  0.028971919  0.033700881            2 
   81000    1.2468067   -7.1620391     28.28873  0.029103631  0.033722401            2 
   82000    1.2207475   -7.1926529    28.580758  0.029045486  0.033757396            3 
   83000    1.2259088   -7.1771211    28.927239  0.029043413   0.03377988            1 
   84000    1.2197118   -7.1785738    29.267604  0.029035322    0.0338003            1 
   85000    1.2379275   -7.1776157    29.636595  0.029055485  0.033814697            1 
   86000    1.2568017   -7.1462455    30.054714  0.029122784  0.033818674            2 
   87000    1.2223671   -7.1283917     30.43955  0.029156657  0.033816402            2 
   88000    1.2336132   -7.1304321    30.916002  0.029276517  0.033817968            2 
   89000    1.2592153   -7.1520544    31.187078  0.029201384  0.033815353            3 
   90000    1.2569024   -7.1978404    31.411245  0.029084486  0.033803203            1 
   91000    1.2187725   -7.1454627    31.976619  0.029282618   0.03378145            2 
   92000    1.2639428   -7.1679652    32.104351  0.029080028  0.033764544            1 
   93000    1.2206668   -7.1674819      32.6027  0.029213889  0.033743946            3 
   94000    1.2357653   -7.1583341     32.96234  0.029221932  0.033731362            1 
   95000    1.2517072   -7.1520169    33.288483  0.029200424  0.033709809            2 
   96000    1.2356313   -7.1439238    33.748455  0.029295534  0.033693494            2 
   97000    1.2088223   -7.1367577    34.177704  0.029362288  0.033674502            3 
   98000    1.2219328   -7.1459695      34.4675  0.029309098  0.033652193            2 
   99000     1.245773   -7.1790637    34.832237  0.029320065  0.033633482            2 
  100000    1.2300122    -7.147122    35.249563  0.029374635  0.033611986            1 
  101000    1.2616121   -7.1857732    35.634981    0.0294018  0.033591953            2 
  102000     1.245239   -7.2170498    35.811045   0.02925739  0.033569884            1 
  103000    1.2314913   -7.2079159     36.17404  0.029267022  0.033542951            2 
  104000    1.2461068   -7.2100185    36.658156  0.029373522  0.033518424            2 
  105000    1.2621043    -7.195447    37.022458  0.029382903  0.033491543            1 
  106000    1.2377841   -7.2056655    37.289488  0.029315635  0.033462741            1 
  107000     1.250818   -7.1636013    37.593741  0.029278615  0.033426695            1 
  108000    1.2400928   -7.1619838    38.080639  0.029383209  0.033392507            1 
  109000     1.222975   -7.2096702    38.262267  0.029252498  0.033360368            5 
  110000    1.2676479   -7.1394926    38.996929  0.029543128  0.033331952            4 
  111000    1.2193824   -7.1795132    39.230331    0.0294522  0.033310194            1 
  112000    1.2249363   -7.2059248     39.88486  0.029676235  0.033287555            2 
  113000      1.23816   -7.1573789    40.378838  0.029777904  0.033274938            3 
  114000    1.2246077   -7.1867301     40.74054  0.029781096  0.033262885            4 
  115000    1.2359132    -7.179665    41.167215  0.029831315  0.033255665            1 
  116000    1.2359448   -7.2236247    41.294972  0.029665928   0.03323874            1 
  117000     1.228271   -7.1328078     41.93026  0.029864857  0.033228631            1 
  118000    1.2410391   -7.1964831    42.544806  0.030045767  0.033226392            2 
  119000    1.1993188   -7.1906602    42.948522  0.030075996  0.033229545            3 
  120000     1.234756   -7.2077028     43.45573   0.03017759  0.033234801            2 
  121000    1.2342792   -7.1687395    43.886676  0.030224983  0.033241949            7 
  122000    1.2367931   -7.2033597    44.335879   0.03028407  0.033252435            1 
  123000    1.2413505   -7.1866025     44.65519  0.030254193   0.03326497            1 
  124000    1.2373652   -7.1985158    45.029134  0.030261515  0.033272268            1 
  125000     1.238218   -7.1776439    45.562086  0.030374724  0.033284669            2 
  126000    1.2177363   -7.2146254    45.884403  0.030346827  0.033289256            2 
  127000    1.2635626   -7.1929516    46.303624  0.030382955   0.03328997            1 
  128000    1.2556957   -7.2367615    46.307429  0.030148065  0.033287197            3 
  129000    1.1922072   -7.2414984    46.806015  0.030236444    0.0332834            1 
  130000    1.2294043   -7.2186344    47.589664  0.030506195    0.0332845            1 
  131000    1.2269884   -7.1782341    47.799245  0.030406644    0.0332905            3 
  132000    1.2251148   -7.2111968    48.013972  0.030311851  0.033293819            2 
  133000    1.2487945   -7.1657188    48.608158  0.030456239  0.033297466            1 
  134000    1.2608642   -7.1734071    49.078995  0.030521763  0.033302459            1 
  135000    1.2522033   -7.2074768    49.306783  0.030436286  0.033302798            5 
  136000    1.2509209   -7.1483643    49.813392  0.030522911  0.033300486            2 
  137000    1.2057281   -7.2100564    49.999579  0.030413369  0.033301418            3 
  138000    1.2463492   -7.1410647    50.659992  0.030591783  0.033296385            1 
  139000    1.2391054   -7.1830369    50.692343  0.030391093  0.033294481            1 
  140000    1.2359234    -7.237917    51.111284  0.030423383  0.033287637            1 
  141000    1.2051598   -7.1897422    51.461368   0.03041452  0.033278836            2 
  142000    1.2477277   -7.1766795    52.076867  0.030561542   0.03327439            1 
  143000    1.2198151    -7.227765      52.3745   0.03052127  0.033272663            1 
  144000     1.226942   -7.1818463     52.92818  0.030629734  0.033269287            1 
  145000    1.2798718   -7.1800754    53.302828  0.030633809  0.033267512            1 
  146000    1.2392453   -7.1454185     53.65684   0.03062605  0.033265908            3 
  147000     1.255301   -7.1850147    54.150761   0.03069771  0.033265309            1 
  148000    1.2495442   -7.1558945    54.613077  0.030750606  0.033267424            4 
  149000     1.251825   -7.1810025    55.014467  0.030768718  0.033268867            2 
  150000    1.2103977   -7.1594991    55.707429  0.030948572  0.033273828            1 
  151000    1.2264864    -7.195436    55.885954  0.030842138  0.033278169            1 
  152000    1.2235536   -7.1856336    56.382722   0.03091158   0.03328388            4 
  153000    1.2065872   -7.1435961    57.012172  0.031052381  0.033288601            5 
  154000    1.2257201     -7.18366    57.150262  0.030925466  0.033295308            2 
  155000    1.2377203   -7.1527675    57.444293  0.030884028   0.03329816            2 
  156000    1.2460195   -7.1552422     57.78266  0.030866806  0.033300716            2 
  157000    1.2602047   -7.1662716    58.001686  0.030786457  0.033299212            1 
  158000    1.2486121   -7.2331756    58.260737  0.030728237  0.033297201            1 
  159000    1.2283549   -7.2013412    58.931681  0.030886625  0.033295173            3 
  160000    1.2395218   -7.2018079    59.085759  0.030773833  0.033292544            1 
  161000    1.2047911     -7.22456    59.386892  0.030738557  0.033287523            1 
  162000    1.2196921   -7.2301634    59.933639  0.030830061  0.033280023            2 
  163000    1.2077614   -7.2255001    60.070394  0.030710835  0.033274276            2 
  164000    1.2245727   -7.2060005     60.37229  0.030676977  0.033264999            1 
  165000    1.2084902   -7.1969274    61.012392  0.030814339  0.033258524            3 
  166000    1.2382191    -7.203401    61.366005  0.030806227  0.033253008            1 
  167000    1.2453637   -7.1799062    61.553267  0.030715203  0.033242958            1 
  168000    1.2246738   -7.2328568    61.789144  0.030649377  0.033230998            2 
  169000    1.2135045   -7.1728073    62.082151  0.030612501  0.033216983            1 
  170000     1.233281   -7.2107193     62.33682  0.030557264  0.033202725            1 
  171000    1.1902002   -7.2173786    62.549347  0.030482138  0.033184518            2 
  172000    1.1905433   -7.1830497    63.020565  0.030533219  0.033165369            4 
  173000     1.245571   -7.1696952    63.878442  0.030769962    0.0331509            1 
  174000    1.2390027    -7.163333    64.143666  0.030720146  0.033137764            3 
  175000    1.2021223   -7.1887135    64.284945  0.030611879  0.033121709            2 
  176000    1.2230663   -7.1835351    64.697448  0.030633261  0.033106246            2 
  177000    1.2267452   -7.1978808    65.260537    0.0307253  0.033092537            1 
  178000     1.211088   -7.1772511      65.5961  0.030709785  0.033079982            2 
  179000    1.2373124   -7.2229644    65.509498  0.030497904   0.03306515            2 
  180000    1.1884473   -7.1995618    65.932516  0.030524313  0.033048015            2 
  181000    1.2125855   -7.1878821    66.341741   0.03054408    0.0330291            1 
  182000    1.2401536   -7.2615946    66.312056  0.030362663  0.033008386            2 
  183000    1.2108456   -7.2526259    66.830337  0.030432758  0.032988175            2 
  184000    1.2232676   -7.2198777     67.10852  0.030393351  0.032967966            3 
  185000    1.2252553   -7.2082995    67.544828  0.030425598  0.032946502            1 
  186000    1.2338045   -7.2027097    68.131034  0.030524657  0.032925476            1 
  187000    1.2191996   -7.2347225    68.013602  0.030309092   0.03290402            2 
  188000    1.2444905   -7.1907712    68.386528  0.030313177  0.032880036            1 
  189000    1.2081055    -7.198248    68.993727  0.030420514  0.032857056            1 
  190000    1.2138015   -7.1860132    69.560836  0.030509139  0.032834968            2 
  191000    1.2539977   -7.2291629     69.69445  0.030407701  0.032815282            1 
  192000    1.2032779   -7.2738374    69.801739  0.030295894  0.032794454            1 
  193000    1.2050407    -7.235829    70.470262  0.030427574  0.032772088            1 
  194000    1.2330968   -7.1786513    71.218686  0.030592219  0.032754682            1 
  195000    1.2604126   -7.1792969    71.793285  0.030680891  0.032741388            2 
  196000    1.1856049    -7.193675    72.245614  0.030716673  0.032730716            2 
  197000    1.2366917   -7.2007004    72.583322  0.030703605  0.032720624            1 
  198000    1.2185585   -7.2187023    72.608643  0.030559193  0.032709886            4 
  199000    1.2392014   -7.2370086    72.994508  0.030567214  0.032696447            4 
  200000    1.2191525   -7.2406165    73.322658  0.030551107  0.032681853            1 
  201000    1.2087261   -7.1716976    74.063841  0.030706402  0.032667802            1 
  202000    1.1837568   -7.2311275     73.94191  0.030504088  0.032652884            1 
  203000     1.187536   -7.2011931    74.522208  0.030592039  0.032637768            3 
  204000    1.2167595    -7.202368    74.849294  0.030575692  0.032624856            1 
  205000    1.1989499   -7.2122767    75.131324  0.030541189  0.032613789            3 
  206000    1.2212672   -7.1813416    75.923661  0.030713455  0.032602779            2 
  207000    1.2170693   -7.2130378    76.323862  0.030726192  0.032594178            3 
  208000    1.2258496   -7.2387868    76.728247  0.030740484  0.032586518            2 
  209000    1.2203992     -7.19512     77.09266    0.0307387  0.032577594            1 
  210000    1.2456239   -7.2192953    77.304805   0.03067651   0.03256873            1 
  211000    1.2208553   -7.2393776    77.768492  0.030714254  0.032559772            3 
  212000    1.2005148    -7.171453    78.349989  0.030797952  0.032553797            1 
  213000    1.2137297   -7.1995744    78.734885  0.030803946  0.032546836            2 
  214000    1.2224984   -7.2312184    78.908236  0.030727506    0.0325393            2 
  215000    1.2160591    -7.247489    79.209569  0.030701383  0.032530034            1 
  216000    1.2134638   -7.2574325    79.765061  0.030773558  0.032522353            1 
  217000    1.2286201   -7.2538838    80.113347  0.030765494   0.03251588            4 
  218000    1.2169801    -7.231094    80.523126  0.030781011  0.032508535            2 
  219000     1.218112    -7.206314    80.934155  0.030796862  0.032502392            2 
  220000    1.2273736   -7.2302952      81.3045  0.030797159  0.032496823            3 
  221000    1.2352241   -7.2129375    81.811116  0.030848837  0.032490185            2 
  222000    1.2243834   -7.2608107    82.199022  0.030855489  0.032485552            1 
  223000     1.189866   -7.1731994    82.635936  0.030880395  0.032480449            2 
  224000    1.2225994   -7.2235131    82.974874  0.030868629  0.032476028            2 
  225000    1.1943689   -7.2067824    83.238951  0.030829241  0.032469985            2 
  226000    1.1963948   -7.2248005    83.818088  0.030906375   0.03246456            3 
  227000    1.1821168    -7.217237    84.292179  0.030944265  0.032461367            3 
  228000    1.2218123   -7.2269325    84.753768  0.030977254   0.03245979            1 
  229000    1.2275436   -7.1922796    85.260964  0.031026552  0.032456543            1 
  230000    1.2020259   -7.2122485    85.480867  0.030971328  0.032453668            2 
  231000    1.2143441   -7.1746248    85.961097  0.031010497  0.032450939            2 
  232000    1.2058903   -7.2170102    86.398588  0.031033976  0.032448132            4 
  233000    1.2006265   -7.1888025    86.356223  0.030885631  0.032446187            2 
  234000    1.2361778   -7.2439877    87.033573  0.030994862  0.032443557            3 
  235000    1.2100922   -7.2242606    87.492697  0.031025779  0.032441906            2 
  236000    1.2283422   -7.2286953    87.898933  0.031037759  0.032439269            1 
  237000    1.2005143   -7.2321102     87.73658  0.030849712  0.032436034            2 
  238000    1.2247248   -7.1904483    88.651411   0.03104041  0.032434057       -1e+20 
  239000    1.2324714   -7.2753264    88.611971  0.030896782  0.032430648            2 
  240000    1.2057409   -7.2529282    89.149998   0.03095486  0.032427111            1 
  241000    1.1887896   -7.2138324    89.800149  0.031051227  0.032424839            1 
  242000    1.2451879   -7.1885213    90.503918  0.031165261  0.032423705            3 
  243000      1.20947   -7.2624191    90.123889  0.030906683  0.032420579            3 
  244000    1.2146552   -7.2393664    90.695632  0.030975284  0.032416329            5 
  245000    1.2071287   -7.2314645    90.849767  0.030901281  0.032412692            2 
  246000    1.1774054    -7.262747    91.335532  0.030940221  0.032408824            1 
  247000    1.1834926   -7.2163203    92.068973  0.031062406  0.032405591            1 
  248000    1.2152178   -7.2079511    92.324473  0.031023008  0.032403696            3 
  249000     1.227618   -7.2042436    92.606978  0.030992964  0.032402176            1 
  250000    1.2061671   -7.2313772    93.087873  0.031029291   0.03240093            4 
  251000    1.2076073    -7.229604    93.716739  0.031114455  0.032399849            1 
  252000    1.2304451   -7.2467195    94.064001   0.03110582   0.03239769            3 
  253000    1.2105756   -7.2000402    94.758424  0.031211602  0.032397198            2 
  254000    1.2129424   -7.2305433    95.127876  0.031209933   0.03239675            1 
  255000    1.1790167   -7.1894724    95.793119  0.031304941  0.032398002            2 
  256000    1.1799903   -7.2056831     96.31098   0.03135123  0.032401011            6 
  257000     1.204024   -7.2369495    96.601544  0.031323458   0.03240644            2 
  258000    1.2101438   -7.1732095    97.184832   0.03139045  0.032409536            4 
  259000    1.2490232   -7.2628974    97.086516  0.031237618  0.032412969            2 
  260000    1.2071796   -7.1888971    97.625144   0.03129011  0.032414495            2 
  261000    1.2417344   -7.2265967    97.872781  0.031249291  0.032415784            1 
  262000    1.2215753   -7.2494121    97.982476   0.03116491  0.032415392            2 
  263000    1.2322549   -7.2263502    97.932398  0.031030544  0.032413321            5 
  264000    1.2147427   -7.2496507    98.667179  0.031144943  0.032411887            3 
  265000    1.2094669   -7.2152548    98.601454  0.031006746  0.032408357            1 
  266000    1.2137314   -7.2786408    98.949556  0.030999234  0.032402371            2 
  267000    1.2007556    -7.287934    99.203244  0.030962311  0.032396646            2 
  268000    1.2066256   -7.2045528    100.15035  0.031141279  0.032391524            3 
  269000    1.2123475   -7.2327896     100.2128  0.031044856  0.032387357            2 
  270000    1.2012537   -7.2219605     100.0732  0.030886791   0.03238123            2 
  271000    1.2178034   -7.2211907    100.51451  0.030908522  0.032374971            2 
  272000    1.2151124   -7.2658902     100.6646  0.030840869  0.032368388            3 
  273000    1.2049749    -7.246113    101.22166  0.030897944  0.032361578            1 
  274000    1.2050064   -7.2650664    101.53864  0.030881581  0.032353841            1 
  275000    1.1980892   -7.2696126    101.70016   0.03081823  0.032346822            2 
  276000    1.2328671   -7.2628251    102.14866  0.030841986  0.032338848            1 
  277000    1.2118118   -7.2150681    102.58744  0.030862646   0.03233106            1 
  278000    1.1969847   -7.2518709    102.60776  0.030757723  0.032322497            1 
  279000     1.214444   -7.2021801    102.87427  0.030727083  0.032312425            2 
  280000    1.1907612   -7.2266475    103.54789  0.030817823  0.032302287            2 
  281000    1.1921759   -7.2258604    103.60081  0.030723846  0.032291407            1 
  282000    1.1993409   -7.2390947    103.68647  0.030640208  0.032279655            1 
  283000    1.1940946   -7.2501034     103.6836  0.030531094  0.032266441            1 
  284000    1.2244281   -7.2097307    104.46354  0.030652448  0.032252315            2 
  285000    1.2211938   -7.2472155    104.76645  0.030633464  0.032240598            1 
  286000    1.2154566    -7.255428    105.01489  0.030598745  0.032228396            2 
  287000    1.1914288   -7.2661803    105.02532  0.030495157  0.032215991            1 
  288000    1.2382839   -7.2763863    105.65664  0.030571943  0.032203193            2 
  289000    1.2332766   -7.2183112    106.10662   0.03059591  0.032190677            4 
  290000    1.2149752    -7.220888    106.59546  0.030630881  0.032179501            1 
  291000     1.205085   -7.2484703    106.88737  0.030609213  0.032167229            2 
  292000    1.1840721   -7.2230802    107.42476  0.030657752  0.032155395            2 
  293000    1.2130022    -7.238276    107.66526  0.030621518  0.032143276            2 
  294000    1.2185484   -7.2589113    107.77913   0.03054964  0.032130691            3 
  295000    1.1939667   -7.2457385    108.46558  0.030639995  0.032119062            1 
  296000    1.2210219   -7.2679848     108.2589  0.030478294  0.032107055            2 
  297000    1.1993789    -7.231216    108.82386  0.030534193  0.032093783            3 
  298000    1.2020059   -7.1989713    109.66383  0.030666618  0.032082276            4 
  299000    1.1950444   -7.2215514    109.57794  0.030540117  0.032069123            3 
  300000    1.1895138    -7.257555    109.70565  0.030473792  0.032054959            1 
  301000    1.2040459   -7.2771966    110.33501  0.030546792   0.03204235            2 
  302000    1.2192028    -7.192377    110.72365  0.030552883  0.032029822            7 
  303000    1.2034496   -7.2010413    111.01448  0.030532035  0.032016915            1 
  304000    1.2160321   -7.2571983      110.955  0.030415296  0.032003443            1 
  305000    1.2210287   -7.2600397    111.65804  0.030507662  0.031991725            1 
  306000    1.1878511   -7.1800472    112.26907  0.030574365  0.031979308            1 
  307000    1.2147996   -7.2658561    112.37091  0.030502419  0.031966843            1 
  308000    1.2312788   -7.2111759    113.12728  0.030608031  0.031954637            2 
  309000    1.2036086   -7.2704623    112.63467  0.030376125  0.031940497            1 
  310000    1.1797548   -7.2601472    112.68677  0.030292143  0.031926885            3 
  311000    1.2126769   -7.2174694    114.08318  0.030568911   0.03191315            6 
  312000     1.231873   -7.2938371    113.71155  0.030371676  0.031900599            1 
  313000    1.2202684   -7.2566411    114.75497  0.030552441  0.031888025            2 
  314000    1.2142816   -7.2194968    115.07809  0.030540894   0.03187719            2 
  315000    1.2325916   -7.2675526    114.81892  0.030375376  0.031865645            1 
  316000    1.2032236   -7.1909815     115.9212  0.030569936  0.031854324            2 
  317000     1.197477   -7.2390429    116.13016  0.030528433  0.031844017            6 
  318000    1.2282234   -7.2660267    116.28066  0.030471871   0.03183348            3 
  319000    1.2025308   -7.2705278    115.99581  0.030301935  0.031820988            2 
  320000    1.2061713   -7.2461598    117.09385  0.030493191  0.031810483            2 
  321000    1.1934631   -7.2610567    117.35513  0.030466026  0.031799529            2 
  322000    1.1741074   -7.2547902    117.89505  0.030511141  0.031787752            2 
  323000    1.1956638   -7.2527324    118.05978   0.03045918  0.031777472            7 
  324000    1.2030774   -7.2596802    118.43463  0.030461581   0.03176664            3 
  325000    1.2219424   -7.2640789    119.15638  0.030552918  0.031756535            3 
  326000    1.1914639   -7.3351601    119.14209  0.030455543  0.031745953            3 
  327000    1.1968417   -7.2408001    119.62385  0.030485182  0.031735869            1 
  328000    1.2167621   -7.2189067    119.58736  0.030382968  0.031724309            1 
  329000    1.1713506    -7.263514    120.00838   0.03039726  0.031711811            3 
  330000    1.1901353   -7.2833821    119.87431  0.030271289  0.031699219            2 
  331000    1.1944202   -7.2301999    120.18624  0.030258369  0.031685918            4 
  332000    1.1844507   -7.2659351    120.91189  0.030349371  0.031673454            1 
  333000    1.2063222   -7.2813807     120.9523  0.030268342  0.031661488            2 
  334000    1.2036536     -7.24129    121.38643  0.030286036  0.031649084            2 
  335000    1.1957655   -7.2427029    121.83988  0.030308428  0.031637082            1 
  336000    1.2079617   -7.2822838     121.6515  0.030171504  0.031624274            3 
  337000    1.2033552   -7.2734598    122.40089  0.030267283  0.031610789            2 
  338000    1.2090754   -7.2175725    122.69641  0.030250593  0.031597866            1 
  339000    1.2011805   -7.2455377    123.10635  0.030262132  0.031585749            3 
  340000    1.2135746    -7.295568    122.95726  0.030136584  0.031572542            2 
  341000    1.1841869   -7.2567442    123.68442  0.030225908  0.031559087            2 
  342000    1.2164869   -7.2470111    123.73318  0.030149409   0.03154584            1 
  343000    1.2119318   -7.2551897     124.2444  0.030185714   0.03153205            2 
  344000    1.1889337   -7.2687474    124.22793  0.030093974  0.031518139            3 
  345000    1.1725928   -7.3162452    124.38024  0.030043536  0.031503804            2 
  346000    1.1646911   -7.2551543    124.78423  0.030054005  0.031490293            2 
  347000    1.1885274   -7.2937417    125.40863  0.030117345  0.031476401            1 
  348000    1.2001263   -7.1883464    126.30601  0.030245691  0.031463594            3 
  349000    1.2190056   -7.2849219    125.57493  0.029984464  0.031450591            2 
  350000    1.2066168   -7.3475558    126.25356   0.03006037  0.031436748            2 
  351000    1.2040515   -7.2756395    127.12657  0.030181996  0.031423355            3 
  352000    1.1904481   -7.2659394    127.00688  0.030067916   0.03141066            2 
  353000    1.1919177   -7.2626697     127.6398  0.030132153  0.031398356            2 
  354000    1.2079368   -7.2934505    127.39466  0.029989328  0.031385427            4 
  355000     1.188045   -7.2833371    128.20772  0.030095708  0.031373304            2 
  356000    1.1967964    -7.276148     128.2826  0.030028699  0.031360318            2 
  357000    1.1963084   -7.2922271    128.57033  0.030011749  0.031346092            3 
  358000    1.2061751   -7.2565857     129.1875  0.030071578  0.031332449            2 
  359000    1.1771259    -7.278153    129.52193  0.030065443   0.03131947            2 
  360000    1.1859151   -7.2715744    129.53609  0.029985207  0.031305632            1 
  361000    1.1880822   -7.2441985    130.03212  0.030016648  0.031292786            4 
  362000    1.2051039   -7.2590195    130.32933  0.030002148  0.031280018            4 
  363000    1.1987799   -7.2621579    131.02405  0.030078983  0.031267803            2 
  364000    1.1684904   -7.3059193    130.68287  0.029918239  0.031254371            2 
  365000    1.1783461   -7.3102578    131.08317  0.029927665  0.031240679            2 
  366000     1.189476   -7.2845377    131.94616  0.030042386  0.031227154            2 
  367000    1.1841203   -7.2987166     132.3631    0.0300552  0.031214579            2 
  368000    1.1894175   -7.3069758    132.48353    0.0300008  0.031203099            1 
  369000    1.1692503   -7.2811668    132.75646  0.029981134  0.031191502            2 
  370000    1.2130129   -7.2744707    133.29434  0.030021249  0.031180308            2 
  371000    1.2088993   -7.2184254    133.77321   0.03004789  0.031169211            1 
  372000    1.1832357   -7.3202683    134.18943  0.030060357   0.03115819            1 
  373000    1.1872151   -7.2849966    134.31127  0.030006987  0.031147043            1 
  374000    1.1884049   -7.2450377    135.25178  0.030136314  0.031135996            1 
  375000    1.1807877   -7.2168175    135.29091  0.030064647  0.031125031            1 
  376000    1.1819011   -7.2579584    135.54611  0.030041247  0.031114173            2 
  377000    1.2108877   -7.3327149    135.60717   0.02997506  0.031103166            1 
  378000    1.1887862   -7.3515334    136.07249  0.029998345  0.031091816            1 
  379000     1.186613   -7.2775151    136.41337  0.029994144  0.031080923            1 
  380000    1.2074308   -7.2619498    136.63877  0.029964642  0.031069484            4 
  381000    1.2044821   -7.2554046    137.19874  0.030008472  0.031057884            3 
  382000    1.2099792   -7.2566442    137.10358  0.029909159  0.031046127            2 
  383000    1.1850422   -7.3002621    137.90794  0.030006079  0.031034984            1 
  384000    1.1918315   -7.2808653    138.15134  0.029980759  0.031024266            4 
  385000    1.1979635   -7.3221746    137.95298  0.029859953  0.031013988            2 
  386000    1.1929601   -7.3120475    138.43803  0.029887312  0.031002894            2 
  387000    1.1912298    -7.286424    139.26295  0.029987715  0.030992308            1 
  388000    1.1698846   -7.3376505    138.75413  0.029801145  0.030981475            1 
  389000    1.1724997    -7.288068    139.34173  0.029850413  0.030970415            3 
  390000    1.1958195   -7.2433187    140.62113   0.03004725  0.030959785            2 
  391000    1.2007583   -7.2874709     140.7985  0.030008206  0.030950019            5 
  392000    1.1764785   -7.3334125    140.44788  0.029857116  0.030939653            2 
  393000    1.1789333   -7.3419723    140.85248  0.029866937   0.03092883            2 
  394000    1.1597798   -7.2973458     141.3736  0.029901353  0.030918313            4 
  395000    1.1872061   -7.3005556    141.72359  0.029899491  0.030908167            1 
  396000    1.2183395   -7.3111371     141.8637  0.029853473  0.030897538            4 
  397000    1.2014158   -7.3317386    142.21362  0.029851726  0.030887585            3 
  398000     1.197302   -7.3096126     142.4892  0.029834423  0.030877672            1 
  399000    1.1895139   -7.2643382    143.06737  0.029880402  0.030867707            2 
  400000    1.1823002   -7.3300105    143.17395  0.029827906  0.030856394            2 
  401000    1.1682221   -7.2570863    144.06389  0.029938464  0.030846109            1 
  402000     1.207315   -7.2650696    144.32951  0.029919053  0.030836565            3 
  403000     1.166929    -7.268616    144.45973  0.029871739  0.030826833            1 
  404000    1.1872964     -7.30165    144.48016  0.029802013  0.030816073            1 
  405000    1.1853802   -7.2787977    144.51928  0.029736478  0.030805351            1 
  406000    1.1835527   -7.2984858    145.05066  0.029772304  0.030794191            5 
  407000    1.2000631   -7.2700671    145.65656  0.029823211  0.030782489            2 
  408000    1.1619641   -7.3363508    145.69021  0.029756988  0.030771547            2 
  409000    1.1899489   -7.3148104    145.89212  0.029725371  0.030760138            2 
  410000    1.1956124   -7.2949466    146.98201  0.029874392  0.030750222            2 
  411000    1.1853705   -7.2819365      146.947  0.029794606   0.03073947            2 
  412000    1.1837209   -7.3499894    147.15406  0.029764172  0.030728589            3 
  413000     1.181314   -7.3048591      147.206  0.029702582  0.030718541            2 
  414000    1.2187783   -7.3072358    147.79406  0.029749208  0.030708014            3 
  415000    1.2051339   -7.3090047    148.26653  0.029772395  0.030697576            2 
  416000    1.2029871   -7.2962672    148.39794  0.029727152  0.030688229            2 
  417000    1.1964126   -7.3007966    148.26344  0.029628985  0.030677969            3 
  418000    1.1936889   -7.2587556     149.9168  0.029887719  0.030667375            4 
  419000    1.1991413   -7.2946599    149.63573  0.029760487  0.030657437            2 
  420000     1.194953   -7.3088133    149.31373  0.029625741  0.030647143            2 
  421000    1.1913707    -7.312888    150.02699  0.029696554  0.030636566            2 
  422000    1.1894679   -7.3037472    150.25021  0.029670263  0.030625858            2 
  423000    1.1783522   -7.3181832    150.57368  0.029663845  0.030616023            4 
  424000    1.1975628   -7.2974183     150.9583  0.029669477  0.030605553            2 
  425000     1.165678   -7.3318844    151.44692  0.029695475  0.030595452            2 
  426000    1.2000948   -7.2908702    151.88168  0.029710814  0.030585691            1 
  427000    1.1901663    -7.288592    152.14853  0.029693313  0.030575952            3 
  428000    1.1872952   -7.2894655    152.66576  0.029724642  0.030566313            2 
  429000    1.1623407   -7.2665727    153.09603  0.029738934  0.030556585            2 
  430000    1.1701971    -7.298647    153.22595  0.029694952  0.030547686            2 
  431000    1.1784968    -7.289896    153.99942  0.029775604  0.030538577            2 
  432000    1.1722908   -7.3296669    154.59931  0.029822397  0.030530596            1 
  433000    1.1771702   -7.2897754    154.59168  0.029752055  0.030522262            2 
  434000    1.1988969   -7.2980979    154.48614  0.029663238  0.030513328            2 
  435000    1.1430833   -7.3009875    154.94997  0.029683902  0.030504609            4 
  436000    1.1856167    -7.270083    155.63216  0.029746207  0.030495665            2 
  437000    1.1910927   -7.2814656    155.60703  0.029673347  0.030486442            1 
  438000    1.1829174   -7.2944026    155.47513  0.029580505  0.030476802            2 
  439000    1.1915577   -7.3066845     156.2365   0.02965765  0.030467237            2 
  440000    1.1874048   -7.2844478    157.05738  0.029745716  0.030457965            4 
  441000    1.1624281   -7.3381416      157.017  0.029670636  0.030448596            3 
  442000    1.1536155   -7.2816399    157.68215  0.029728913  0.030439768            2 
  443000    1.2155583   -7.2825897    158.39152  0.029795244  0.030431163            4 
  444000    1.1710002   -7.3230907    157.16787  0.029498473  0.030422118            1 
  445000    1.1913705   -7.3191706    158.05534  0.029598377  0.030412645            2 
  446000    1.1732277   -7.3041326     158.7896  0.029669207  0.030403732            2 
  447000    1.1685771   -7.3085396    159.00566  0.029643113  0.030394516            4 
  448000    1.1918164   -7.3299951    159.52916  0.029674322  0.030385756            2 
  449000    1.2005916   -7.3412484     159.1482  0.029537527   0.03037675            1 
  450000    1.1883448   -7.3088618    159.86356  0.029604363  0.030367774            4 
  451000    1.1820321   -7.3121154    160.19918  0.029600734  0.030358698            3 
  452000    1.1895516   -7.3217223    160.82964  0.029651483  0.030349027            5 
  453000    1.1698315   -7.3081487    160.62753  0.029548847  0.030339545            2 
  454000    1.1887311   -7.2780572    160.83079  0.029521071  0.030329912            4 
  455000    1.1806521   -7.3274086    161.03459  0.029493515  0.030320532            1 
  456000    1.1686648    -7.314488    161.61818  0.029535487     0.030311            1 
  457000    1.1716324   -7.3314308    161.80219  0.029504411  0.030301142            1 
  458000    1.1790191    -7.305794    162.13946  0.029501357  0.030291299       -1e+20 
  459000    1.1763002   -7.3321021    162.50297  0.029503081  0.030282198            1 
  460000     1.198215   -7.2991959    162.87663  0.029506635  0.030273196            2 
  461000     1.183116   -7.3482295    163.34355  0.029527033  0.030263476            2 
  462000    1.1775811   -7.3301355    163.73823  0.029534313   0.03025486            1 
  463000    1.1737953   -7.3364054    163.68408  0.029460777  0.030246275            2 
  464000    1.1962258   -7.3407046    164.72809  0.029584786  0.030237458            1 
  465000    1.1527184   -7.3090168    164.52532  0.029484825  0.030228687            1 
  466000    1.1667272   -7.3200225    165.63428  0.029619863  0.030220607            1 
  467000    1.1739629   -7.3353215    164.94275  0.029433039  0.030212672            2 
  468000    1.1578402   -7.3469431    165.32262  0.029437789  0.030204731            3 
  469000    1.1753579   -7.3031106    165.91224  0.029479787  0.030195989            5 
  470000     1.172978   -7.3347096    165.89201  0.029413476   0.03018715            4 
  471000    1.1791561   -7.3333064    166.14554  0.029395885  0.030177888            4 
  472000    1.1745225   -7.3041823    166.15028  0.029334443   0.03016821            2 
  473000     1.205725   -7.3367453    166.72162  0.029373083  0.030158861            4 
  474000     1.160783   -7.3415165    167.40129  0.029430606  0.030149017            3 
  475000    1.1839298   -7.3018837    167.56933  0.029398129  0.030139213            5 
  476000    1.1994729   -7.3135867    167.93222  0.029399899  0.030130188            2 
  477000    1.1698018   -7.3134516    168.22752  0.029389853  0.030120331            1 
  478000    1.1732626   -7.3321092    168.84967  0.029436832  0.030110899            2 
  479000    1.1860495   -7.3434246    168.81787  0.029369845  0.030101925            1 
  480000    1.1811381   -7.3212957    169.77942  0.029475594   0.03009297            1 
  481000    1.1742982    -7.318864    170.09173  0.029468422  0.030084823            1 
  482000    1.1858545   -7.3496729     170.0413  0.029398566   0.03007615            1 
  483000    1.1447693   -7.2941715    170.40671  0.029400744  0.030067939            3 
  484000    1.1960026   -7.3033621    171.61251  0.029547608  0.030060046            5 
  485000    1.1756424    -7.341722    170.89916  0.029364117  0.030052052            1 
  486000    1.1729809   -7.3256177    171.36441  0.029383472  0.030043798            2 
  487000    1.1844335    -7.331017     171.6863  0.029378217   0.03003604            1 
  488000     1.179661   -7.3472281    172.29575  0.029422088  0.030028113            2 
  489000    1.1836546   -7.3007667    173.24941  0.029524439   0.03002059            1 
  490000    1.1845087   -7.3442009    172.93201  0.029410206  0.030012838            3 
  491000    1.1674204   -7.3419245     171.9548  0.029184453  0.030004724            3 
  492000    1.1716187   -7.3080436    173.05152  0.029310894  0.029996359            5 
  493000    1.1818619   -7.3171719    172.94574   0.02923356  0.029988147            3 
  494000    1.1591445   -7.3348065    174.20711  0.029387165  0.029979645            4 
  495000    1.1442518   -7.3678601    173.21674  0.029161068  0.029970226            1 
  496000    1.1819705   -7.2958621    174.91271  0.029387215  0.029961256            2 
  497000    1.1559895   -7.3429967    174.17855  0.029204989  0.029952111            2 
  498000    1.1648459   -7.3482202    174.17762  0.029146189  0.029942722            3 
  499000    1.1910159   -7.3393061    175.01564  0.029227729   0.02993344            2 
  500000    1.1738998   -7.3740628    175.02727  0.029171212  0.029923963            3 
  501000    1.1859091   -7.3490949    175.23394  0.029147363  0.029914084            1 
  502000     1.136682   -7.3173716    176.17485  0.029245492  0.029904887            2 
  503000    1.1456455   -7.3555862    176.21573  0.029194123  0.029895984            2 
  504000    1.1806539   -7.3699138    176.52644  0.029187573   0.02988644            1 
  505000    1.1994455   -7.3605262    176.46513  0.029119658  0.029876596            2 
  506000    1.1660736   -7.3325644    177.58552  0.029246628  0.029866948            2 
  507000    1.1607724   -7.3520832    177.31654  0.029144731  0.029857152            1 
  508000    1.1576853   -7.3336903    177.94202  0.029189964  0.029847758            3 
  509000    1.1962033   -7.3397316    177.62293  0.029080375  0.029838158            5 
  510000    1.1743201   -7.3275685    178.14717  0.029109014  0.029828518            3 
  511000    1.1688686   -7.3362425    178.26439  0.029071165  0.029818672       -1e+20 
  512000    1.1815844   -7.3389193    178.24874  0.029011838  0.029808823            1 
  513000    1.1906202   -7.3459796    178.82887  0.029049524  0.029799331            1 
  514000    1.1654585   -7.2967578    179.07647   0.02903315  0.029789442            2 
  515000     1.163453   -7.3035838    180.28079  0.029171648  0.029780115            1 
  516000    1.1773466   -7.3421429    179.84403  0.029044579  0.029770429            1 
  517000    1.1665475   -7.3523441     179.4552  0.028925725  0.029760324            2 
  518000    1.1673572   -7.3268303    180.54107  0.029044573  0.029750173            4 
  519000    1.1528302   -7.3241539    180.57825  0.028994581  0.029739511            3 
  520000    1.1613164    -7.323339    180.96183  0.029000293  0.029729149            1 
  521000    1.1608627    -7.364734    181.01858  0.028953708  0.029718898            2 
  522000    1.1619018   -7.3622607    181.65966  0.029000584  0.029708651            2 
  523000    1.1783452   -7.3352683    182.04292  0.029006201   0.02969855            2 
  524000    1.1728659   -7.3522799    181.99318  0.028942936  0.029688364            2 
  525000    1.1666829   -7.3105763    182.71253  0.029001989  0.029678121            1 
  526000    1.1752852   -7.2929078    182.96328  0.028986578  0.029668266            2 
  527000    1.1964576   -7.3269551    182.91188  0.028923447  0.029658439            1 
  528000    1.1825716   -7.3340787    183.42361  0.028949434  0.029648476            3 
  529000    1.1547881   -7.3824784    182.89276  0.028811083  0.029638824            2 
  530000    1.1538343   -7.3341072    184.93532   0.02907788  0.029629084            3 
  531000    1.1571645   -7.3382525    184.16223  0.028901794  0.029619811            1 
  532000    1.1722617   -7.3386221    184.45222  0.028892891  0.029610063            2 
  533000     1.186175   -7.3406035    185.44116  0.028993302  0.029600527            3 
  534000    1.1731115   -7.3479113    185.95716  0.029019531  0.029591497            2 
  535000    1.1654758   -7.3392818    185.64122  0.028916077  0.029582492            4 
  536000    1.1535035    -7.337799    186.35424  0.028972985  0.029573523            1 
  537000     1.175308   -7.3263571    187.66342  0.029122195   0.02956478            2 
  538000    1.1849841   -7.3443609     187.6895  0.029072104  0.029556676            1 
  539000    1.1500247   -7.3760199    187.47049  0.028984306  0.029548705            7 
  540000    1.1847817   -7.3832715    187.61305  0.028952631  0.029540104            3 
  541000    1.1654469   -7.3181633    188.64302  0.029057766  0.029532293            3 
  542000    1.1507139   -7.3291912    188.53714  0.028987875  0.029524656            3 
  543000    1.1518719   -7.3206902    189.06853  0.029016042  0.029516356            2 
  544000    1.1651495   -7.3623663    189.26373  0.028992606  0.029508473            3 
  545000    1.1612504   -7.3429448    189.68907  0.029004445  0.029500361            1 
  546000    1.1526342   -7.3623836    189.79773  0.028967907  0.029492207            2 
  547000    1.1664528   -7.3245985    190.22569  0.028980147  0.029483876            1 
  548000    1.1615138   -7.3541925    190.58056  0.028981228  0.029475592            2 
  549000    1.1402956   -7.3464093    190.71045  0.028948155  0.029467404            4 
  550000     1.169309   -7.3312842    191.06834  0.028949749  0.029459242            2 
  551000    1.1359105   -7.3261605    191.67233  0.028988556  0.029451273            1 
  552000    1.1642788   -7.3830048    191.13304  0.028854626  0.029443291            2 
  553000     1.164368   -7.3524476    191.76636  0.028897884  0.029435196            1 
  554000    1.1920399   -7.3464303    192.50799  0.028957278  0.029427671            1 
  555000    1.1561978   -7.3154188    193.76101  0.029093245  0.029420525            3 
  556000    1.1923598   -7.3612366    193.35546  0.028980134  0.029412745            2 
  557000    1.1715024    -7.342295    193.30204  0.028920114  0.029405274            3 
  558000     1.144742   -7.3708642    193.30786  0.028869155   0.02939783            1 
  559000    1.1607374   -7.3217667    194.50845  0.028996489  0.029390887            2 
  560000    1.1527636   -7.3699927     195.2961   0.02906192   0.02938451            1 
  561000    1.1561985   -7.3694082    195.18103  0.028993023  0.029378347            1 
  562000     1.169154    -7.385801    195.25932  0.028953042  0.029371967            4 
  563000    1.1494997   -7.3670658     196.0965  0.029025533  0.029365486            1 
  564000    1.1664486   -7.3363847    196.00699  0.028960844  0.029359148            1 
  565000    1.1420195   -7.3367825    197.29521  0.029099588  0.029352534            3 
  566000    1.1823491   -7.3272007    196.84269  0.028981551  0.029345772            2 
  567000    1.1596598    -7.387153    196.86528  0.028933757  0.029338399            2 
  568000    1.1764448   -7.3605373    196.71353  0.028860553    0.0293307            1 
  569000    1.1669327   -7.3850956    196.53832  0.028784171  0.029322924            3 
  570000    1.1770383   -7.3620411     196.5889  0.028741067  0.029314818            1 
  571000    1.1544378   -7.3401966    197.33817  0.028800083  0.029306814            1 
  572000    1.1539173   -7.3658869    197.05416  0.028708357  0.029298863            5 
  573000    1.1762625   -7.4081396     197.4799  0.028720171  0.029290531            3 
  574000    1.1461499   -7.3545654     198.3043  0.028789823  0.029282042            3 
  575000    1.1525936   -7.3406095    198.72959   0.02880139   0.02927407            1 
  576000    1.1454096   -7.3715069    198.72076   0.02875011  0.029266124            6 
  577000     1.153081   -7.3401217    199.75566  0.028849749  0.029258578            3 
  578000    1.1876485   -7.3370592    200.36921  0.028888295  0.029251096            2 
  579000    1.1560363   -7.3707228    201.06392  0.028938388  0.029244487            1 
  580000    1.1414003   -7.3676045    200.77731  0.028847314  0.029237554            1 
  581000    1.1481152   -7.3268626    200.82323   0.02880425  0.029230616            2 
  582000    1.1688629   -7.3696312    201.25653  0.028816799  0.029223852            2 
  583000    1.1587571    -7.369171    202.17292  0.028898359  0.029217295            5 
  584000    1.1473411   -7.3157128    202.45598  0.028889267  0.029210555            2 
  585000     1.152394    -7.382029    201.43573  0.028694548   0.02920364            2 
  586000    1.1520487   -7.3607264    202.38923  0.028781176   0.02919614            2 
  587000    1.1561181   -7.3564839    203.18575  0.028845223  0.029188865            2 
  588000    1.1789995   -7.3915749    202.72646  0.028731075  0.029181441            4 
  589000    1.1352496    -7.386867     203.0567  0.028729018  0.029173938            9 
  590000    1.1546631   -7.3763085    203.27336  0.028710927  0.029166314            2 
  591000    1.1598337   -7.3928922    203.43714  0.028685439    0.0291591            5 
  592000    1.1660809   -7.3774106    203.83781  0.028693385  0.029151944            4 
  593000    1.1603098   -7.3779911    204.64469  0.028758389  0.029145262            2 
  594000    1.1359248   -7.4022641    204.90994  0.028747186  0.029138083           10 
  595000    1.1695364    -7.334118    205.50829  0.028782674  0.029130636            1 
  596000    1.1443987   -7.3735699    204.88428  0.028647131  0.029122961            2 
  597000     1.158294   -7.3248575    205.22098  0.028646145  0.029114841            1 
  598000    1.1777165   -7.4040606    205.37115  0.028619168  0.029106975            1 
  599000    1.1478529   -7.3706242    205.36592  0.028570662  0.029099189            3 
  600000    1.1517826   -7.4050926     205.4625  0.028536459  0.029090929            4 
  601000    1.1546815   -7.3489134    206.74488  0.028666789  0.029082835            1 
  602000    1.1311348   -7.3890058    206.30821  0.028558723  0.029074361            2 
  603000    1.1467195   -7.3529339    206.38029  0.028521323  0.029065535            3 
  604000    1.1641931   -7.3898762    206.36458  0.028471935  0.029056755            2 
  605000    1.1591235   -7.3459991    207.27793  0.028550679  0.029047868            2 
  606000    1.1705913   -7.3494602    207.27937  0.028503764   0.02903881            2 
  607000    1.1519665   -7.3800744    207.28609  0.028457728   0.02903002            1 
  608000    1.1506513   -7.3441378    207.98438  0.028506631   0.02902129            2 
  609000    1.1581069   -7.3658138    208.07716  0.028472518  0.029012568            3 
  610000    1.1722103   -7.3686329    208.08103   0.02842637   0.02900365            2 
  611000    1.1514768   -7.4030767    207.47817  0.028297623  0.028994544            1 
  612000    1.1621499   -7.3678995       208.76  0.028425927  0.028984936            3 
  613000    1.1432878   -7.3855552    209.26599   0.02844834  0.028976013            1 
  614000     1.159117   -7.3886472    209.05032  0.028372737  0.028966792            4 
  615000    1.1669842   -7.3530203    210.01167  0.028456865  0.028957739            2 
  616000    1.1524821   -7.3966417    209.84196  0.028387712  0.028948713            2 
  617000    1.1455883   -7.3726723    209.69142   0.02832137  0.028939941            3 
  618000    1.1553602   -7.3598282     211.0859  0.028463579   0.02893073            3 
  619000    1.1452606   -7.3864868    210.74989   0.02837236  0.028922257            2 
  620000    1.1720788   -7.3755764    211.35508  0.028407941  0.028913888            2 
  621000    1.1753619   -7.3543585    212.83699  0.028561056  0.028905632            1 
  622000    1.1447598   -7.3726951    212.55364  0.028477175  0.028898053            1 
  623000    1.1723651   -7.3910956    213.23054  0.028522009  0.028890315            2 
  624000    1.1774359   -7.4106496    212.89562  0.028431573  0.028883134            1 
  625000    1.1470357   -7.3814611    213.19671  0.028426228   0.02887589            2 
  626000    1.1429246   -7.3879204    213.66907    0.0284437  0.028868079            1 
  627000    1.1607965   -7.3823967    213.96042  0.028437058  0.028860174            1 
  628000    1.1484409   -7.3834168    214.47925  0.028460623  0.028852643            2 
  629000    1.1662676   -7.4131878    214.18763   0.02837674  0.028845011            2 
  630000    1.1647187   -7.3656113    215.10423  0.028452941  0.028836951            1 
  631000    1.1627545   -7.3485631    215.07662  0.028404203  0.028829212            1 
  632000    1.1068931   -7.3288094    215.98586  0.028479148  0.028821401            2 
  633000    1.1532671   -7.3735551    215.31747  0.028346166  0.028813565            1 
  634000    1.1675685   -7.3972394    215.46716   0.02832113  0.028804991            3 
  635000    1.1440655   -7.3993218    215.33154  0.028258732  0.028796673            1 
  636000    1.1650885   -7.3816524    216.11981  0.028317586  0.028788348            2 
  637000     1.148065   -7.3882229    216.56183  0.028330956  0.028780207            1 
  638000    1.1412431   -7.3348148    217.40223   0.02839632   0.02877226            2 
  639000    1.1556477    -7.413204    217.16388  0.028320797  0.028764423            1 
  640000    1.1429109   -7.3924713    216.84059  0.028234452  0.028755989            1 
  641000    1.1434623   -7.3950911    217.43428  0.028267587  0.028747412            3 
  642000    1.1413705   -7.4028149    217.76383  0.028266333  0.028738884            1 
  643000    1.1290101   -7.4022521    218.04599  0.028258942  0.028730922            2 
  644000    1.1674357   -7.3977328    218.54987  0.028280263  0.028723125            3 
  645000    1.1500151   -7.4355158    219.15423    0.0283145  0.028715372            4 
  646000    1.1290769   -7.4076696     220.2208  0.028408256  0.028708118            1 
  647000    1.1596856    -7.393852    219.99722  0.028335551  0.028700804            5 
  648000    1.1529202   -7.3699664    220.23916  0.028322938  0.028693729            2 
  649000    1.1357162   -7.3864711    220.73802  0.028343351   0.02868652            2 
  650000     1.156312   -7.3841426    221.22977  0.028362791  0.028679052            2 
  651000    1.1538469   -7.4153313    221.37129  0.028337339  0.028671971            2 
  652000    1.1783249   -7.4489686    220.66257  0.028203294  0.028664947            3 
  653000    1.1526069   -7.3603917    222.25451  0.028363261  0.028657775            2 
  654000    1.1490415    -7.401762    222.07327  0.028296798  0.028650834            1 
  655000     1.137343   -7.3601777    223.28134  0.028407295  0.028644061            3 
  656000     1.150394   -7.4482224    221.89275  0.028187595  0.028636833            1 
  657000    1.1422528   -7.3986785    223.18201   0.02830822  0.028629516            1 
  658000     1.124751   -7.3727193    223.40145   0.02829299   0.02862252            5 
  659000    1.1464541   -7.3688246    224.45148  0.028382837  0.028616017            2 
  660000    1.1589516   -7.4294361    223.73339  0.028249166  0.028609462            3 
  661000      1.12944   -7.3614794    225.10984  0.028379959  0.028603149            2 
  662000    1.1530187   -7.4135439    225.22842  0.028352017  0.028596765            3 
  663000    1.1528623   -7.4296281    224.77959  0.028252839  0.028590372            2 
  664000    1.1485917    -7.419233     225.3679  0.028284124  0.028584104            2 
  665000    1.1540937   -7.3833803     226.1188  0.028335689  0.028577315            1 
  666000    1.1501441   -7.4441644    225.26652  0.028186502  0.028570308            1 
  667000    1.1526237    -7.394345    226.25349  0.028267553  0.028563156            8 
  668000    1.1556048   -7.3642621    227.26047  0.028350858   0.02855646            2 
  669000    1.1447837   -7.3710621    227.29132  0.028312322  0.028549954            1 
  670000    1.1579613   -7.3525873    227.87056  0.028342109  0.028543516            3 
  671000    1.1749662   -7.4315442    226.73115  0.028158365   0.02853657            2 
  672000    1.1579323    -7.412777    227.72856  0.028240149  0.028529604            2 
  673000    1.1698928   -7.4212577    227.07886   0.02811774  0.028522701            3 
  674000    1.1279169   -7.3666488    228.84912  0.028294896  0.028515775            2 
  675000    1.1479304   -7.3973578    228.31434  0.028186956  0.028508786            2 
  676000    1.1534084   -7.3852892    229.64354  0.028309115  0.028502141            2 
  677000    1.1489276   -7.3745381    229.07553  0.028197382  0.028495366            3 
  678000    1.1606292   -7.4330886    229.55368  0.028214562  0.028488658            6 
  679000    1.1471258   -7.3901159    228.04787  0.027988202  0.028481416            3 
  680000    1.1307379   -7.4121361     229.4798  0.028122524  0.028473829            2 
  681000    1.1248589   -7.4035335    229.80077  0.028120505  0.028466655            1 
  682000    1.1581594   -7.3907503    231.18925  0.028248931  0.028459432            2 
  683000    1.1604147   -7.3912738    230.91149  0.028173681  0.028452239            2 
  684000    1.1143631   -7.4262926    230.75063  0.028112894  0.028445052            1 
  685000    1.1487619    -7.453067     230.3239  0.028019939    0.0284381            1 
  686000    1.1363899   -7.4424514    230.36157  0.027983669  0.028431051            3 
  687000    1.1451871    -7.441847    232.11825  0.028156023  0.028424137            3 
  688000    1.1499984   -7.4352148    231.85207  0.028082857   0.02841749            3 
  689000    1.1453555   -7.4185293    233.20077  0.028205222  0.028411005            1 
  690000    1.1537937   -7.4091666    233.17545  0.028161286  0.028404589            2 
  691000    1.1286668   -7.4307521    234.09718  0.028231691  0.028398623            2 
  692000    1.1202317    -7.422055    233.75414  0.028149584  0.028392547            5 
  693000    1.1314691   -7.4359499    234.82126  0.028237285   0.02838643            3 
  694000    1.1574646   -7.4070253     235.0389  0.028222731  0.028380885            3 
  695000    1.1414443   -7.4409034    234.60498  0.028130093  0.028374955            1 
  696000      1.14011   -7.4519315    235.37431   0.02818179   0.02836919            2 
  697000    1.1189198   -7.4440293    236.28836  0.028250641  0.028363243            2 
  698000    1.1194178   -7.4092708    236.18343   0.02819764  0.028357493            1 
  699000    1.1528732   -7.4624601    236.19945  0.028159209    0.0283518            2 
  700000    1.1582774   -7.3957345    237.30471  0.028250561  0.028346138            2 
  701000     1.149475   -7.3922576    237.25268  0.028204076  0.028340488            2 
  702000    1.1176291   -7.4192876    238.36014  0.028295363  0.028335644            1 
  703000    1.1259291   -7.4167936    237.70483  0.028177433  0.028330429            1 
  704000    1.1381168   -7.3998613    238.80556  0.028267703  0.028325526            3 
  705000    1.1551816   -7.3735452    239.32309  0.028288781  0.028321085            2 
  706000    1.1459069   -7.4333544     239.2875  0.028244512  0.028316154            4 
  707000     1.145319   -7.4224295    238.15281  0.028070817  0.028310842            1 
  708000     1.139276   -7.4156531    239.52619  0.028192819  0.028305609            3 
  709000    1.1319998   -7.3941235    240.07355  0.028217389  0.028300389            2 
  710000    1.1619351   -7.4452965    240.01381  0.028170635  0.028294802            2 
  711000    1.1218709   -7.4792096    238.86932  0.027996873  0.028288887            2 
  712000     1.118777   -7.4365221    240.53849  0.028152914  0.028283198            3 
  713000    1.1078582   -7.4208989    241.33319   0.02820631  0.028278264            2 
  714000    1.1598952   -7.4044637    241.16534  0.028147215   0.02827355            1 
  715000     1.127356   -7.4017372    242.31602  0.028241961  0.028268707            3 
  716000    1.1643087   -7.4096788    242.62777    0.0282388  0.028263891            2 
  717000    1.1353306   -7.3824594    242.66814  0.028204108  0.028259321            1 
  718000    1.1560612    -7.462755    242.58302  0.028154947  0.028254758            4 
  719000     1.147954   -7.3976083    243.65732  0.028240302  0.028250003            2 
  720000    1.1304187   -7.4123413    243.58617  0.028192843  0.028245392            1 
  721000    1.1455372   -7.4528237    243.78612  0.028176852  0.028240371            3 
  722000    1.1104323   -7.4395735    243.23836  0.028074603  0.028235353            1 
  723000    1.1540663   -7.4032098    244.52922  0.028184558  0.028230535            7 
  724000    1.1284844   -7.4212236    245.14825   0.02821688  0.028225759            3 
  725000    1.1353328   -7.4184525    244.92164  0.028151913  0.028220953            3 
  726000    1.1457415   -7.4363449    245.41197  0.028169418  0.028216188            5 
  727000    1.1403721    -7.386917    246.58352  0.028264961  0.028211748            1 
  728000    1.1299792   -7.4210356    246.03216  0.028163022  0.028207302            3 
  729000    1.1379455   -7.4005325    246.80027  0.028212194  0.028202466            4 
  730000    1.1232992   -7.4327541    246.68248  0.028160101    0.0281978            1 
  731000    1.1265851   -7.4039847    246.70453  0.028124092  0.028193242            4 
  732000    1.1278277   -7.4355916    247.00599  0.028119989  0.028188532            2 
  733000    1.1623022   -7.4726076    246.67362   0.02804384    0.0281833            4 
  734000    1.1379336   -7.4510044    247.55442  0.028105633  0.028177962            2 
  735000      1.13727   -7.3910746    247.48059  0.028059024  0.028172663            4 
  736000    1.1216746   -7.4662926     247.3469  0.028005763  0.028167336            2 
  737000    1.1245122   -7.4242116    247.55359  0.027991134   0.02816201            2 
  738000     1.130223   -7.4433634    249.11422  0.028129429   0.02815699            2 
  739000     1.129087   -7.4718244    248.03088  0.027969201  0.028151731            3 
  740000    1.1252136   -7.3963126    249.07456  0.028048937  0.028146653            2 
  741000    1.1363091   -7.4283227    248.08985  0.027900343  0.028140947            3 
  742000    1.1138066     -7.43294    248.47694  0.027906216  0.028135029            2 
  743000    1.1266347   -7.4527929    248.11579   0.02782815  0.028129017            3 
  744000    1.1179168   -7.4273213    249.79531  0.027978865  0.028122942            1 
  745000    1.1298587   -7.4101344    249.87487  0.027950209  0.028116989            2 
  746000    1.1277229   -7.4619523    249.26125  0.027844197   0.02811108            3 
  747000    1.1140718    -7.473673    250.11957  0.027902674  0.028105182            1 
  748000    1.1433378    -7.428349     250.2198  0.027876538  0.028099239            3 
  749000    1.1293221   -7.3636599    251.94665  0.028031447  0.028093758            1 
  750000     1.112166   -7.4367048    251.27462  0.027919402  0.028088127            1 
  751000    1.1186982    -7.453263    251.37684  0.027893569  0.028082447            2 
  752000    1.1353391   -7.4525602    251.07368  0.027822882  0.028076422            2 
  753000    1.1292994   -7.4539634    252.03581  0.027892409  0.028070195            1 
  754000    1.1389451   -7.4432782    251.93357  0.027844117  0.028064299            5 
  755000    1.1178659   -7.4160068    252.81009  0.027903984  0.028058551            2 
  756000     1.120777   -7.4788624    251.99938   0.02777771  0.028052538            2 
  757000    1.1269244   -7.4595823    252.64978  0.027812614  0.028046322            2 
  758000    1.1311864   -7.4054133    253.75009  0.027896888  0.028039979            1 
  759000    1.1212506   -7.4576755    253.64138  0.027848197  0.028033903            1 
  760000    1.1191039   -7.4922842    253.23326  0.027766805   0.02802756            1 
  761000    1.0960775   -7.4590004    253.75123  0.027787037  0.028021188            2 
  762000    1.1197087   -7.5152147    253.52062  0.027725352  0.028014815            2 
  763000    1.1418012    -7.489741    253.78878  0.027718303  0.028008073            4 
  764000    1.1387067   -7.4308764    254.83767   0.02779643   0.02800126            2 
  765000    1.1191395   -7.4306928    254.77917  0.027753722  0.027994875            2 
  766000     1.112229   -7.4097158    255.51937  0.027798016  0.027988379            3 
  767000     1.097756   -7.4404833    255.92844  0.027806219  0.027982044            1 
  768000     1.139907   -7.4885738    255.88009  0.027764767  0.027975705            1 
  769000     1.120462   -7.4220182    256.34076  0.027778582  0.027969422            3 
  770000    1.1140573   -7.4427765    256.26603  0.027734419  0.027963473            2 
  771000    1.1434368    -7.417652    257.00281  0.027778082   0.02795739            3 
  772000    1.1292802   -7.4388571    256.59568  0.027698152  0.027951355            8 
  773000    1.1266858   -7.4624215    257.46136  0.027755645  0.027945456            3 
  774000     1.129887   -7.4657919    256.15398  0.027579024  0.027939051            1 
  775000    1.1402698   -7.4297879    257.53141   0.02769155  0.027932658            4 
  776000     1.126029   -7.4149573    258.68027  0.027779238  0.027926596            2 
  777000    1.1585416   -7.4291385    258.45311  0.027719124  0.027920507            1 
  778000    1.1236847   -7.4333025    259.07025  0.027749598   0.02791414            1 
  779000    1.1203539   -7.3890684    259.18838  0.027726614  0.027907789            4 
  780000    1.1209206    -7.427151    258.75219  0.027644465  0.027901578            2 
  781000    1.1162584   -7.4380334     259.5701   0.02769634  0.027895199            1 
  782000    1.1249305   -7.4589543    258.98177  0.027598228  0.027888824            2 
  783000    1.1610571   -7.4422511    259.58301  0.027626969  0.027882518            3 
  784000    1.1112846     -7.45422    259.14204   0.02754486  0.027875613            1 
  785000    1.1226918   -7.4377087    261.12304  0.027720068   0.02786927            1 
  786000    1.1491832   -7.4786007    261.11471  0.027683918  0.027862767            2 
  787000    1.1310957   -7.4684921    260.99367  0.027635924  0.027856618            2 
  788000    1.1316168   -7.4392148     261.8326  0.027689573  0.027850581            4 
  789000    1.1586615    -7.458342    261.55164  0.027624803   0.02784419            1 
  790000    1.1302993   -7.4856633    261.99913  0.027637039  0.027837895            1 
  791000    1.1084186   -7.4406063    263.06455  0.027714344  0.027831688            3 
  792000    1.1030636   -7.4472654    262.92624  0.027664798  0.027825955            3 
  793000    1.1342764   -7.4317622    263.81553  0.027723363  0.027820026            6 
  794000    1.1276209   -7.4451866     263.7204  0.027678464  0.027814462            1 
  795000    1.1414868   -7.4542118    264.54662  0.027730253  0.027809085            3 
  796000    1.1111758   -7.4655915    265.15422  0.027759026  0.027803364            3 
  797000    1.1348686   -7.4467829    264.18345  0.027622694  0.027797517            3 
  798000     1.146498   -7.4531123    264.52785  0.027624044  0.027791601            1 
  799000     1.138961   -7.4548342    264.62582  0.027599689  0.027785389            2 
  800000     1.101853    -7.456767    263.98097  0.027498017   0.02777919            1 
  801000    1.1416824    -7.422673    265.98416  0.027672093  0.027772942            5 
  802000    1.1394111   -7.4624381    264.72602  0.027506859  0.027766922            4 
  803000    1.1397456   -7.4569122     266.5105  0.027657794   0.02776097            8 
  804000     1.117864    -7.470827    266.38069  0.027609939   0.02775522            2 
  805000    1.1244037   -7.4487587    265.99102  0.027535303  0.027749364            1 
  806000    1.1175393   -7.4164488    267.24677  0.027630973  0.027743383            4 
  807000    1.1342045   -7.4818421    266.65893  0.027536031  0.027737349            1 
  808000    1.1302064   -7.4328882    268.18632  0.027659481  0.027731644            2 
[...]
 4800000   0.48770267   -9.1660812    506.45381 0.0087926008 0.0070870444          598 
 4801000   0.47960303   -9.1450345    507.51047 0.0088091104 0.0070845068          566 
 4802000   0.48150556   -9.1656048    507.00592 0.0087985201 0.0070819712          604 
 4803000   0.49101189   -9.1606405    506.95631 0.0087958275 0.0070794361          596 
 4804000   0.48166067   -9.1613245     506.9758 0.0087943347 0.0070769026          583 
 4805000   0.49555731   -9.1619981    506.87444 0.0087907464 0.0070743708          587 
 4806000   0.47093165   -9.1548502    506.60288 0.0087842087 0.0070718397          572 
 4807000   0.49055881   -9.1443507    506.95928 0.0087885598 0.0070693105          605 
 4808000    0.4896483   -9.1669828    505.96925 0.0087695725 0.0070667817          591 
 4809000   0.48408491   -9.1718682    506.98308 0.0087853171 0.0070642548          584 
 4810000   0.49153103   -9.1630466    507.09691 0.0087854628 0.0070617293          595 
 4811000    0.4776087    -9.145363    506.75437 0.0087777034 0.0070592053          570 
 4812000   0.48476082   -9.1535881    506.55749 0.0087724696 0.0070566837          576 
 4813000   0.48359804   -9.1602123    507.02412 0.0087787264 0.0070541632          585 
 4814000   0.48962221   -9.1575569    506.58908  0.008769372 0.0070516429          578 
 4815000   0.48673968    -9.149457    506.88266 0.0087726316 0.0070491218          567 
 4816000   0.49354157   -9.1528045    506.85198 0.0087702792 0.0070466024          589 
 4817000   0.48021347   -9.1639685    505.77604  0.008749845 0.0070440836          589 
 4818000   0.49169617   -9.1609933    507.50682 0.0087779649  0.007041568          599 
 4819000   0.47969252   -9.1597757    507.90686 0.0087830612 0.0070390528          579 
 4820000   0.48830878    -9.140592     507.2776 0.0087703596 0.0070365389          585 
 4821000   0.47230318   -9.1464598    506.41716 0.0087536672  0.007034027          579 
 4822000     0.477574   -9.1619253    507.35587 0.0087680747 0.0070315146          583 
 4823000   0.47385161   -9.1607306    506.55012 0.0087523347 0.0070290041          597 
 4824000   0.48344948   -9.1511181    506.38656 0.0087476949 0.0070264941          586 
 4825000   0.48274894   -9.1612044    506.76899 0.0087524869 0.0070239866          599 
 4826000   0.47981529   -9.1557515    506.41809 0.0087446141 0.0070214817          594 
 4827000   0.48176271   -9.1599818    507.42446 0.0087601765 0.0070189776          586 
 4828000   0.47434972   -9.1461366    506.61782  0.008744439 0.0070164704          589 
 4829000   0.46800074   -9.1641912    506.85803 0.0087467734 0.0070139658          596 
 4830000   0.46662534   -9.1804387    507.07899 0.0087487749 0.0070114638          594 
 4831000   0.47848034   -9.1554583    507.10811 0.0087474663 0.0070089603          593 
 4832000   0.47152513   -9.1608953    507.57197 0.0087536556 0.0070064593          576 
 4833000   0.47670394   -9.1671719    506.83581 0.0087391512 0.0070039603          595 
 4834000   0.47527148   -9.1809513    506.82458 0.0087371497 0.0070014603          580 
 4835000   0.48072624   -9.1771609    506.60498 0.0087315577 0.0069989643          576 
 4836000   0.47297141   -9.1555639    506.35123 0.0087253796 0.0069964684          586 
 4837000    0.4817458   -9.1650458    505.98993 0.0087173512 0.0069939755          575 
 4838000   0.47158449   -9.1548058    505.82485 0.0087127058 0.0069914802          581 
 4839000   0.48050058   -9.1696308     506.9101 0.0087295946 0.0069889871          579 
 4840000   0.47794886   -9.1607138    506.86096 0.0087269449 0.0069864976          588 
 4841000   0.47982599   -9.1465159    506.53785 0.0087195802   0.00698401          586 
 4842000    0.4725792   -9.1659157    506.67654 0.0087201663 0.0069815219          573 
 4843000   0.48374702   -9.1692873    507.02746 0.0087244039 0.0069790349          592 
 4844000   0.48953797   -9.1540698    506.17968 0.0087080182 0.0069765496          605 
 4845000   0.47203657   -9.1537956    506.90533  0.008718702 0.0069740659          597 
 4846000   0.47502637   -9.1622737    506.86566 0.0087162206 0.0069715811          607 
 4847000   0.47474234   -9.1676656    506.82212 0.0087136737 0.0069691005          581 
 4848000   0.47607814   -9.1555128    507.06631 0.0087160738 0.0069666196          593 
 4849000    0.4729336   -9.1797221    506.54389 0.0087052981 0.0069641379          608 
 4850000   0.46914416    -9.162693    507.42006 0.0087185578 0.0069616603          611 
 4851000   0.48332747   -9.1706795     506.5633 0.0087020425 0.0069591826          614 
 4852000   0.47634083   -9.1642586    506.48647 0.0086989294 0.0069567054          605 
 4853000   0.46381967   -9.1618471    506.17404 0.0086917721 0.0069542291          592 
 4854000   0.47606957   -9.1419584    506.88503 0.0087021877 0.0069517536          607 
 4855000    0.4806441   -9.1710911    506.42748 0.0086925417 0.0069492805          610 
 4856000   0.47698552   -9.1709754    507.29692 0.0087056721 0.0069468092          585 
 4857000   0.46274161   -9.1778502    506.41537 0.0086887546 0.0069443378          604 
 4858000    0.4700507   -9.1755418    506.42993 0.0086872158 0.0069418685          579 
 4859000   0.47272507   -9.1612964    506.45089 0.0086857874 0.0069394001          589 
 4860000   0.47088207   -9.1656713     506.9671 0.0086928515 0.0069369348          594 
 4861000    0.4753872   -9.1691519    506.99793 0.0086915918 0.0069344706          592 
 4862000   0.47675257   -9.1795993    506.77859 0.0086860446 0.0069320066          599 
 4863000   0.46967109   -9.1629224    506.42071 0.0086781258 0.0069295447          586 
 4864000   0.47324749   -9.1793659    507.30834 0.0086915491 0.0069270826          622 
 4865000   0.48271936   -9.1647852    506.96225 0.0086838343 0.0069246207          605 
 4866000   0.47296176   -9.1716179    507.07814 0.0086840345 0.0069221607          590 
 4867000    0.4694976   -9.1857791    506.66855 0.0086752371  0.006919704          588 
 4868000   0.47201974   -9.1745433    507.01092 0.0086793159  0.006917245          610 
 4869000   0.47795087   -9.1724459    506.38701  0.008666855 0.0069147891          611 
 4870000   0.47343733   -9.1650987    506.45445 0.0086662295 0.0069123327          588 
 4871000   0.47458444   -9.1776503    505.62649 0.0086502856 0.0069098782          591 
 4872000   0.46958098   -9.1642942     507.0563 0.0086729662 0.0069074265          580 
 4873000   0.47462903   -9.1553391    506.54529 0.0086624476 0.0069049757          576 
 4874000     0.468682   -9.1833547    506.31582  0.008656747 0.0069025238          594 
 4875000   0.47020336   -9.1612487    506.44221 0.0086571318  0.006900075          600 
 4876000   0.47095077   -9.1694248    506.49063 0.0086561838 0.0068976271          573 
 4877000   0.46767942   -9.1762175    507.12067 0.0086651745 0.0068951799          579 
 4878000   0.46887077   -9.1567611    506.41725 0.0086513812 0.0068927317          597 
 4879000   0.45943436    -9.170422    505.82437 0.0086394816 0.0068902858          604 
 4880000   0.46604994   -9.1655315    506.61333 0.0086511839 0.0068878426          584 
 4881000   0.47899615   -9.1754694    506.84652 0.0086533928 0.0068853995          578 
 4882000   0.47156927   -9.1680391    506.01062 0.0086373518 0.0068829573          580 
 4883000   0.48343835   -9.1666044    507.28383 0.0086573116 0.0068805191          595 
 4884000   0.47387201   -9.1769622    505.68017 0.0086281765 0.0068780796          601 
 4885000   0.48453537   -9.1855374    507.01413 0.0086491663 0.0068756425          584 
 4886000   0.47752582   -9.1832186    506.64683 0.0086411317 0.0068732049          585 
 4887000   0.48298893   -9.1852876    506.21758 0.0086320438 0.0068707711          574 
 4888000   0.46607232   -9.1674651     506.7578 0.0086394878 0.0068683372          590 
 4889000   0.47949739   -9.1635908    506.05297 0.0086257069 0.0068659037          582 
 4890000   0.46969995   -9.1838637    506.24006 0.0086271312 0.0068634718          579 
 4891000   0.46464116   -9.1728764    506.82397 0.0086353161 0.0068610403          591 
 4892000   0.46292985   -9.1595305    506.82032 0.0086334888 0.0068586105          590 
 4893000   0.47937756   -9.1618663    506.05634 0.0086187128 0.0068561811          587 
 4894000   0.47872355   -9.1658347    505.82929 0.0086130856 0.0068537528          596 
 4895000   0.46598611   -9.1669723    507.16798 0.0086341161 0.0068513259          591 
 4896000   0.46164797    -9.166163     506.5625 0.0086220469 0.0068489001          578 
 4897000   0.46590405   -9.1672771    505.99671  0.008610658 0.0068464756          616 
 4898000   0.47369983   -9.1711585    506.27052 0.0086135587 0.0068440516          591 
 4899000   0.46293336   -9.1758237    506.01065 0.0086073799 0.0068416304          599 
 4900000   0.46442902   -9.1809588    506.85684 0.0086200143 0.0068392117          604 
 4901000   0.47663815   -9.1804473    506.02417 0.0086040972 0.0068367906          587 
 4902000   0.45905257   -9.1953133    506.72192 0.0086142037 0.0068343722          604 
 4903000   0.46961971   -9.1954108    505.98859 0.0085999829 0.0068319523          603 
 4904000   0.47221092   -9.1730635    506.39682 0.0086051661 0.0068295355          579 
 4905000   0.47118774   -9.1932323    506.46938 0.0086046446 0.0068271193          588 
 4906000   0.46645806   -9.1878447    506.87649 0.0086098058 0.0068247059          614 
 4907000   0.45977888   -9.1809866     506.3109  0.008598446 0.0068222931          610 
 4908000   0.47618925   -9.1799807     505.7281 0.0085867988 0.0068198813          618 
 4909000   0.46520476   -9.1825911    506.69905  0.008601532 0.0068174699          599 
 4910000    0.4615122   -9.1799296    506.77862 0.0086011307 0.0068150584          617 
 4911000   0.46137893   -9.1644541    506.10715 0.0085879854  0.006812647          589 
 4912000   0.45654804   -9.1847476    506.67267 0.0085958311 0.0068102371          610 
 4913000   0.46353077   -9.1730416    506.48932 0.0085909716 0.0068078306          587 
 4914000   0.47503758   -9.1813075    505.98118 0.0085806062 0.0068054233          616 
 4915000   0.45309809    -9.180589    507.08784 0.0085976237   0.00680302          611 
 4916000   0.46432184   -9.1794426    506.23153  0.008581359 0.0068006162          581 
 4917000    0.4666483    -9.175254    506.41364 0.0085827001 0.0067982145          610 
 4918000   0.46958871   -9.1658116        506.4 0.0085807239 0.0067958138          604 
 4919000   0.46519208   -9.1966287    506.13364  0.008574467 0.0067934138          584 
 4920000   0.46746949   -9.1915539    506.14623 0.0085729375  0.006791016          604 
 4921000   0.46119398    -9.184563    505.96716 0.0085681629 0.0067886178          597 
 4922000   0.47045543   -9.1736546    506.76464 0.0085799241 0.0067862212          594 
 4923000   0.45762425   -9.1862694    506.23363 0.0085691927 0.0067838259          607 
 4924000   0.46652558   -9.1786742    506.29836 0.0085685479  0.006781432          598 
 4925000   0.47052788   -9.1844747    505.65669 0.0085559507 0.0067790368          595 
 4926000   0.46282247   -9.1723023    506.65087 0.0085710324 0.0067766462          610 
 4927000   0.45254879   -9.1853702    506.05184  0.008559161 0.0067742533          595 
 4928000   0.47266411   -9.1696918    505.72464 0.0085518913 0.0067718612          598 
 4929000   0.46128113   -9.1890406    506.29371 0.0085597774 0.0067694734          600 
 4930000   0.44850673   -9.1766632    507.13062 0.0085721877 0.0067670861          615 
 4931000   0.45630956   -9.1889455    505.75311 0.0085471694 0.0067646993          609 
 4932000   0.46385247   -9.1763556    506.13376  0.008551868   0.00676231          595 
 4933000   0.46373807   -9.1755563    506.16996 0.0085507461  0.006759924          594 
 4934000   0.46836779   -9.1782237    505.82807 0.0085432385 0.0067575389          599 
 4935000   0.45848422   -9.1852425    506.24388 0.0085485288 0.0067551547          593 
 4936000   0.46094433   -9.1859334    506.00613 0.0085427831 0.0067527715          601 
 4937000   0.46484719   -9.1952168     506.4097 0.0085478648 0.0067503888          609 
 4938000   0.46498181   -9.1839059    505.99723 0.0085391729 0.0067480085          597 
 4939000   0.46406539   -9.1839155    505.82767 0.0085345831 0.0067456307          583 
 4940000   0.45740286   -9.1866056    506.85779 0.0085502326 0.0067432543          606 
 4941000   0.47098719   -9.1695556    506.09595 0.0085356533 0.0067408795          601 
 4942000   0.45681519   -9.1933958    505.84948   0.00852977 0.0067385043          587 
 4943000   0.47538472   -9.1970065     505.9442 0.0085296413 0.0067361299          594 
 4944000   0.46326394   -9.1840534    506.48129 0.0085369689 0.0067337583          590 
 4945000   0.45889468   -9.1929516    506.22914 0.0085309933 0.0067313862          606 
 4946000   0.46531003   -9.1858008    505.76731 0.0085214872 0.0067290158          602 
 4947000   0.45851618   -9.1808911    506.45974 0.0085314288  0.006726646          623 
 4948000   0.46147398   -9.1822935    505.29334 0.0085100604 0.0067242781          601 
 4949000   0.45339333   -9.1771243    505.90826 0.0085186951 0.0067219112          580 
 4950000    0.4737488   -9.1887121    506.54831 0.0085277493 0.0067195472          606 
 4951000   0.46669672   -9.1844748    506.02239 0.0085171749 0.0067171836          622 
 4952000   0.45575354    -9.204157      506.634 0.0085257471 0.0067148193          592 
 4953000   0.45287093   -9.2080375    505.73647 0.0085089251 0.0067124555          610 
 4954000   0.46151153   -9.1963737    505.31991 0.0085002003 0.0067100934          607 
 4955000   0.45702189   -9.1771621    506.42572 0.0085170824 0.0067077346          595 
 4956000   0.45846925   -9.1966771    506.50702 0.0085167309 0.0067053751          607 
 4957000   0.45434625   -9.2008241     505.4905 0.0084979239 0.0067030166          598 
 4958000   0.46347998   -9.1960614    505.53843 0.0084970154 0.0067006591          613 
 4959000   0.45939356   -9.1750835    505.19266 0.0084894916 0.0066983033          609 
 4960000    0.4637617   -9.2035946    506.53299 0.0085102989  0.006695948          587 
 4961000   0.46699398   -9.1820197    507.50261 0.0085248709 0.0066935946          577 
 4962000   0.45700425   -9.1925278    505.94928 0.0084970656 0.0066912412          607 
 4963000   0.45134062   -9.1853673    506.01454 0.0084964495 0.0066888889          590 
 4964000   0.45593734   -9.1862006    506.36073 0.0085005494 0.0066865379          606 
 4965000   0.45288112   -9.1970254    505.29457 0.0084809428 0.0066841879          608 
 4966000   0.45430694   -9.1968479    505.96072 0.0084904134 0.0066818378          590 
 4967000   0.46271322   -9.2013434    506.35819 0.0084953727 0.0066794884          584 
 4968000   0.45685095    -9.206448    506.10879 0.0084894791 0.0066771414          606 
 4969000     0.463778   -9.1809093    505.87936 0.0084839229  0.006674795          616 
 4970000   0.45458461   -9.1905294     506.1714 0.0084871128 0.0066724509          606 
 4971000   0.45770761   -9.1863489     506.1532 0.0084851002 0.0066701097          609 
 4972000   0.45780837   -9.1902693    506.01638 0.0084811004 0.0066677679          612 
 4973000   0.43911385   -9.1950427     505.6327 0.0084729657 0.0066654266          616 
 4974000   0.45973181   -9.1875966    506.12841 0.0084795673  0.006663086          608 
 4975000   0.46067205   -9.1996704    506.28267 0.0084804468  0.006660749          591 
 4976000   0.46877472   -9.1919112    506.01694 0.0084742923 0.0066584108          630 
 4977000   0.45588231   -9.1878508    506.08462 0.0084737229 0.0066560739          590 
 4978000   0.45971631   -9.1938038    506.16833 0.0084734218 0.0066537384          602 
 4979000    0.4588047   -9.2080151    506.21871 0.0084725633 0.0066514029          602 
 4980000   0.45390831   -9.1907217    506.65133 0.0084781013 0.0066490687          594 
 4981000   0.47284803   -9.1940777     505.4706 0.0084566452 0.0066467341          611 
 4982000   0.45059497   -9.1912302    505.77687 0.0084600708 0.0066444038          610 
 4983000   0.45219399   -9.1985262    505.67498 0.0084566691 0.0066420728          588 
 4984000   0.45171791   -9.2108597     505.7687 0.0084565392 0.0066397423          620 
 4985000   0.45684092   -9.2113968    505.67814  0.008453329 0.0066374125          605 
 4986000   0.46530451   -9.1890783    505.31291 0.0084455293 0.0066350843          589 
 4987000   0.45436946   -9.1960505    505.67807 0.0084499377 0.0066327568          615 
 4988000   0.46147198   -9.2200457    506.08068 0.0084549699 0.0066304298          609 
 4989000   0.45393476   -9.1964484    505.34052  0.008440912 0.0066281068          591 
 4990000   0.46231415   -9.1874834    505.82456 0.0084473039 0.0066257843          605 
 4991000   0.44883803     -9.17332    506.44447 0.0084559618 0.0066234633          596 
 4992000     0.454518   -9.2123484     506.0747 0.0084480953 0.0066211444          603 
 4993000   0.45051007   -9.1936207    505.27311 0.0084330248  0.006618825          607 
 4994000   0.45449025   -9.1978458    506.19711 0.0084467547 0.0066165049          613 
 4995000   0.45883775   -9.2009441    505.09523 0.0084266805  0.006614187          605 
 4996000   0.44367473   -9.2162931    505.64943 0.0084342379 0.0066118705          617 
 4997000   0.45878751   -9.1985205     506.3203  0.008443738  0.006609556          599 
 4998000    0.4565356   -9.2030214    505.35127 0.0084258915 0.0066072402          591 
 4999000   0.44942235   -9.2074983    505.78861 0.0084314965 0.0066049253          602 
 5000000   0.45358745   -9.2084394    505.91215 0.0084318692 0.0066026126          611 
 5001000   0.45762484   -9.1933751    504.78131 0.0084113395 0.0066003004          611 
 5002000   0.44885543   -9.2031922    505.54825 0.0084224352  0.006597989          598 
 5003000   0.44289186   -9.2112076    506.36934 0.0084344283 0.0065956793          607 
 5004000   0.45602102   -9.2097055     505.4921 0.0084181338 0.0065933729          609 
 5005000   0.45289501   -9.1885233    505.23522 0.0084121748 0.0065910661          585 
 5006000   0.45755325   -9.2011509    505.67099 0.0084177485 0.0065887608          611 
 5007000   0.45044153   -9.1952685    505.52825 0.0084136917 0.0065864563          599 
 5008000   0.45748672   -9.2149128    505.69751 0.0084148281 0.0065841527          591 
 5009000    0.4478373   -9.2136738    506.00074 0.0084181929 0.0065818501          611 
 5010000   0.44610037   -9.2139082    505.79285 0.0084130548 0.0065795483          592 
 5011000   0.44367404    -9.196137    505.93742   0.00841378 0.0065772455          576 
 5012000   0.45380414   -9.2032879    505.33388 0.0084020663 0.0065749452          605 
Loop time of 12670.9 on 48 procs for 5000000 steps with 4000 atoms

Performance: 68187.567 tau/day, 394.604 timesteps/s
99.4% CPU use with 48 MPI tasks x no OpenMP threads

MPI task timing breakdown:
Section |  min time  |  avg time  |  max time  |%varavg| %total
---------------------------------------------------------------
Pair    | 885.16     | 949.71     | 1008       |  94.4 |  7.50
Neigh   | 83.951     | 87.797     | 90.906     |  20.7 |  0.69
Comm    | 804.37     | 871.09     | 946.77     | 107.4 |  6.87
Output  | 52.235     | 52.241     | 52.348     |   0.2 |  0.41
Modify  | 10573      | 10597      | 10620      |  11.6 | 83.63
Other   |            | 113.5      |            |       |  0.90

Nlocal:        83.3333 ave          92 max          78 min
Histogram: 5 2 15 7 6 5 3 3 1 1
Nghost:        2286.90 ave        2315 max        2268 min
Histogram: 5 5 6 8 10 7 2 2 2 1
Neighs:        15505.1 ave       17949 max       14278 min
Histogram: 4 11 8 9 6 5 1 2 1 1
FullNghs:      31010.1 ave       35440 max       28764 min
Histogram: 4 6 15 10 5 3 2 2 0 1

Total # of neighbors = 1488487
Ave neighs/atom = 372.12175
Neighbor list builds = 266389
Dangerous builds = 0

#clear
#
#next RN
#
#jump SELF
Total wall time: 3:31:14
