
units lj                  # Use reduced LJ style units
atom_style atomic         # Uncharged point particles
atom_modify map hash      # Needed for indexing of clusters etc
                          # Used to be able to find where atoms are in relation to each other.

# Define a lattice with which to populate the simulation cell. With units
# set to 'lj' the second argument to the lattice command is the reduced
# density rho* and the spacings are multiples of that required to acheive
# that density. Also define a simulation cell called 'box' in lattice units
# and fill it with atoms. Here we're creating a box which is ten lattice
# constants in each direction.
lattice fcc 1.0 spacing 1 1 1                 # All equal sizes - gives the right reduced density.
Lattice spacing in x,y,z = 1.5874011 1.5874011 1.5874011

region box block 0 10 0 10 0 10 units lattice # Defines a region, "box", in lattice units
create_box 1 box                              # Creates a simulation box as specified above,
Created orthogonal box = (0.0000000 0.0000000 0.0000000) to (15.874011 15.874011 15.874011)
  2 by 3 by 4 MPI processor grid
                                              # with one type of atom
create_atoms 1 box                            # Creates particles on lattice points
Created 4000 atoms
  using lattice units in orthogonal box = (0.0000000 0.0000000 0.0000000) to (15.874011 15.874011 15.874011)
  create_atoms CPU = 0.003 seconds


# Set the mass of the first (and only) atom type.
mass 1 1.0

# Lennard-Jones interactions between particles, 3.5 sigma cut-off. Apply
# long range tail corrections to energy and pressure and set all coefficients
# to unity since we work in reduced units here. Note that this doesn't shift
# the potential such that it goes to zero at the cutoff. That would require
# pair_modify('shift', 'yes').
pair_style lj/cut  3.5      # non-GPU version
pair_modify tail  yes
pair_coeff 1  1  1.0  1.0   # Intearaction between 1 and 1 set with epsilon = 1 and sigma = 1

write_data data.*
System init for write_data ...
Neighbor list info ...
  update every 1 steps, delay 10 steps, check yes
  max neighbors/atom: 2000, page size: 100000
  master list distance cutoff = 3.8
  ghost atom cutoff = 3.8
  binsize = 1.9, bins = 9 9 9
  1 neighbor lists, perpetual/occasional/extra = 1 0 0
  (1) pair lj/cut, perpetual
      attributes: half, newton on
      pair build: half/bin/atomonly/newton
      stencil: half/bin/3d
      bin: standard

#############################
#   M E L T   S Y S T E M   #
#############################

velocity all create 2.4 1741580 mom yes dist gaussian # Assign velocities
                                                    # Temperature 2.4, random number seed, zero linear momentum
						                                                        # Gaussian distribution

timestep 0.002   # simulation timestep
thermo 100       # output thermodynamic data every 100 steps

# Define a fix  in this case with index 1 applied to all
# particles in the simulation. This fix is for simulations
# in the anisotropic NPT ensemble. Note that we use the MTK
# correction.
fix 1 all npt temp 2.4 2.4 0.1 iso 5.68 5.68 0.5 mtk yes tchain 5 pchain 5 # Use NPT ensemble
                                                                         # Set temperature and pressure and damping
                                                                         # Numbers of thermostats in chain and in barostat
run 1000         # run for 10000 steps
Per MPI rank memory allocation (min/avg/max) = 3.676 | 3.679 | 3.684 Mbytes
Step Temp E_pair E_mol TotEng Press Volume 
       0          2.4   -8.3859253            0   -4.7868253   -2.2405722         4000 
     100    1.2552531   -6.5115672            0   -4.6291582     5.497081    4088.0579 
     200    1.4628633    -6.289567            0   -4.0958206    6.0903972    4138.0466 
     300    1.5904925   -6.0345783            0   -3.6494359    5.7376042    4272.4771 
     400    1.6850752   -5.7072351            0   -3.1802542    5.9705826    4399.2373 
     500    1.7895599   -5.4225046            0   -2.7388358     5.865757    4546.8704 
     600    1.8965854   -5.1442855            0   -2.3001186     5.865539    4691.2751 
     700    2.0304439     -4.92263            0   -1.8777256    5.8141752    4830.4151 
     800    2.1710171   -4.7567122            0   -1.5010006    5.6106115    4968.6247 
     900    2.2247838   -4.5230698            0   -1.1867284    5.8051376    5086.8715 
    1000     2.364264   -4.4348938            0  -0.88938446    5.9115751    5144.0032 
Loop time of 0.321091 on 24 procs for 1000 steps with 4000 atoms

Performance: 538165.183 tau/day, 3114.382 timesteps/s
99.6% CPU use with 24 MPI tasks x no OpenMP threads

MPI task timing breakdown:
Section |  min time  |  avg time  |  max time  |%varavg| %total
---------------------------------------------------------------
Pair    | 0.17878    | 0.1866     | 0.20087    |   1.2 | 58.12
Neigh   | 0.033746   | 0.03537    | 0.037165   |   0.5 | 11.02
Comm    | 0.060668   | 0.074511   | 0.081511   |   2.1 | 23.21
Output  | 0.00020324 | 0.00020966 | 0.00027921 |   0.0 |  0.07
Modify  | 0.019266   | 0.022203   | 0.025885   |   1.4 |  6.91
Other   |            | 0.002195   |            |       |  0.68

Nlocal:        166.667 ave         176 max         152 min
Histogram: 1 0 2 0 3 4 6 4 3 1
Nghost:        1840.88 ave        1857 max        1826 min
Histogram: 3 1 3 4 1 2 4 4 0 2
Neighs:        14784.9 ave       15702 max       13755 min
Histogram: 2 1 1 5 1 3 5 0 4 2

Total # of neighbors = 354837
Ave neighs/atom = 88.709250
Neighbor list builds = 86
Dangerous builds = 16

# Equilibrate just above the melting temperature to avoid step fn in T

fix 1 all npt temp 1.25 1.25 0.1 iso 5.68 5.68 0.5 mtk yes tchain 5 pchain 5
run 1000
Per MPI rank memory allocation (min/avg/max) = 3.677 | 3.680 | 3.685 Mbytes
Step Temp E_pair E_mol TotEng Press Volume 
    1000     2.364264   -4.4348938            0  -0.88938446    5.9115751    5144.0032 
    1100    1.9499649   -4.6617779            0   -1.7375618    5.8205171    4978.7844 
    1200    1.7213197   -4.9482774            0   -2.3669434    5.7402188    4808.4294 
    1300    1.5721809   -5.1954201            0   -2.8377383    5.7003773    4667.9329 
    1400    1.4692769   -5.4052033            0   -3.2018389    5.6740098     4560.708 
    1500    1.3897296   -5.5637068            0   -3.4796336    5.6667574    4476.2103 
    1600    1.2963572   -5.6470084            0   -3.7029588    5.6441736    4434.9383 
    1700    1.2716936   -5.7363737            0   -3.8293102    5.7159049    4387.6158 
    1800    1.2561313   -5.8008832            0   -3.9171572    5.6027564    4366.0004 
    1900     1.242552   -5.8327759            0   -3.9694139    5.6800198    4347.3872 
    2000    1.2686809   -5.8614487            0   -3.9589031    5.5394068    4347.1855 
Loop time of 0.312263 on 24 procs for 1000 steps with 4000 atoms

Performance: 553379.272 tau/day, 3202.426 timesteps/s
99.8% CPU use with 24 MPI tasks x no OpenMP threads

MPI task timing breakdown:
Section |  min time  |  avg time  |  max time  |%varavg| %total
---------------------------------------------------------------
Pair    | 0.18074    | 0.18555    | 0.19628    |   0.8 | 59.42
Neigh   | 0.030735   | 0.031356   | 0.032691   |   0.3 | 10.04
Comm    | 0.06054    | 0.071272   | 0.077005   |   1.5 | 22.82
Output  | 0.00020006 | 0.00020592 | 0.0002652  |   0.0 |  0.07
Modify  | 0.019754   | 0.021385   | 0.023304   |   0.7 |  6.85
Other   |            | 0.00249    |            |       |  0.80

Nlocal:        166.667 ave         176 max         159 min
Histogram: 1 1 7 1 4 5 1 3 0 1
Nghost:        2035.25 ave        2048 max        2013 min
Histogram: 1 0 2 0 4 2 5 1 6 3
Neighs:        17526.7 ave       18387 max       16728 min
Histogram: 3 2 3 3 2 3 1 2 2 3

Total # of neighbors = 420641
Ave neighs/atom = 105.16025
Neighbor list builds = 76
Dangerous builds = 5


# Small amount of linear quench

fix 1 all npt temp 1.25 ${temp} 0.1 iso 5.68 5.68 0.5 mtk yes tchain 5 pchain 5
fix 1 all npt temp 1.25 1.06 0.1 iso 5.68 5.68 0.5 mtk yes tchain 5 pchain 5
run 2000
Per MPI rank memory allocation (min/avg/max) = 3.677 | 3.680 | 3.685 Mbytes
Step Temp E_pair E_mol TotEng Press Volume 
    2000    1.2686809   -5.8614487            0   -3.9589031    5.5394068    4347.1855 
    2100    1.2490418    -5.832649            0   -3.9595546    5.6913522    4344.1959 
    2200    1.2236064   -5.8644139            0   -4.0294632    5.6341272    4337.2567 
    2300    1.2301245   -5.8756365            0    -4.030911    5.4946205    4345.0267 
    2400     1.246232   -5.8509994            0   -3.9821187    5.5478623     4348.924 
    2500    1.2282898   -5.8830507            0   -4.0410766     5.606824      4329.81 
    2600    1.1873697   -5.8883752            0   -4.1077659    5.7407459     4312.165 
    2700    1.1910823    -5.932685            0   -4.1465083    5.5674827    4308.2176 
    2800    1.1689242   -5.9603598            0   -4.2074119    5.6361262    4289.4539 
    2900    1.1505271   -5.9673958            0   -4.2420367    5.5642457    4292.9217 
    3000    1.1864537   -5.9425042            0   -4.1632685     5.809996    4283.2114 
    3100    1.1707196   -5.9703456            0   -4.2147053    5.8200627     4272.024 
    3200    1.1512253    -6.012069            0   -4.2856628    5.7232503    4261.4749 
    3300    1.1245662   -6.0241546            0    -4.337727    5.6360016    4261.0734 
    3400    1.1003175   -6.0568752            0   -4.4068117    5.4218361     4263.037 
    3500    1.1168731   -6.0738681            0   -4.3989772    5.4201136    4259.1031 
    3600    1.0755565   -6.0620982            0   -4.4491667    5.4692511    4255.6626 
    3700     1.129723   -6.0838705            0   -4.3897097    5.6663088    4236.5872 
    3800    1.0933592    -6.069902            0   -4.4302732    5.8369893    4225.5488 
    3900      1.08285   -6.0969778            0   -4.4731089    5.8143566    4216.4113 
    4000    1.0827706   -6.1565485            0   -4.5327987    5.5131625    4216.4404 
Loop time of 0.647332 on 24 procs for 2000 steps with 4000 atoms

Performance: 533883.469 tau/day, 3089.603 timesteps/s
99.8% CPU use with 24 MPI tasks x no OpenMP threads

MPI task timing breakdown:
Section |  min time  |  avg time  |  max time  |%varavg| %total
---------------------------------------------------------------
Pair    | 0.38142    | 0.39478    | 0.41276    |   1.3 | 60.99
Neigh   | 0.053663   | 0.05492    | 0.05927    |   0.5 |  8.48
Comm    | 0.12591    | 0.14862    | 0.16418    |   2.4 | 22.96
Output  | 0.00040829 | 0.00041727 | 0.0005451  |   0.0 |  0.06
Modify  | 0.039885   | 0.042861   | 0.046093   |   1.0 |  6.62
Other   |            | 0.005734   |            |       |  0.89

Nlocal:        166.667 ave         172 max         159 min
Histogram: 1 0 2 3 2 3 6 3 1 3
Nghost:        2081.04 ave        2098 max        2069 min
Histogram: 2 3 4 3 3 5 1 1 1 1
Neighs:        18051.7 ave       18875 max       16865 min
Histogram: 1 0 0 5 3 5 2 2 3 3

Total # of neighbors = 433241
Ave neighs/atom = 108.31025
Neighbor list builds = 129
Dangerous builds = 0

#############################
# F R E E Z E  S Y S T E M  #
#############################

# Define solid atoms. This closely follows ten Wolde  Ruiz-Montero and Frenkel  Faraday Discuss  1996  104  93-110
# Compute components of the per-atom q6 vector
compute q6 all orientorder/atom degrees 1 6 components 6 nnn NULL cutoff 1.3 # compute the Q6 parameter.
                                                                             # Use all neighbours within 1.3 unit cell.

# get number of connections
compute coord_number all coord/atom orientorder q6 0.5

# An atom is solid if it has 8 or more connections (of a possible 14)
variable is_solid atom c_coord_number>=8
group solid dynamic all var is_solid    # Must be dynamic to update
dynamic group solid defined

# do clustering
compute cluster solid cluster/atom 1.3 # Create a cluster where all atoms within are solid and max 1.3 units from another member

# define chunks one chunk per cluster
compute clus_chunks solid chunk/atom c_cluster nchunk every compress yes  # Says which atoms are in which chunk

# count the size of each chunk
compute size_chunks solid property/chunk clus_chunks count


# Find the maximum entry in the vector of chunk sizes
variable max_n equal max(c_size_chunks)


# Thermo style which includes this variable
thermo_style custom step temp pe vol v_max_n

thermo ${N}  # Print the thermo information every 100 steps
thermo 100  

# Reset the npt fix at a lower temperature (below freezing)
fix 1  all npt temp  ${temp} ${temp}  0.1  iso  5.68  5.68  0.5  mtk yes tchain  5  pchain  5
fix 1  all npt temp  1.06 ${temp}  0.1  iso  5.68  5.68  0.5  mtk yes tchain  5  pchain  5
fix 1  all npt temp  1.06 1.06  0.1  iso  5.68  5.68  0.5  mtk yes tchain  5  pchain  5

dump dmp2 all dcd ${N} traj_${rand}.dcd
dump dmp2 all dcd 100 traj_${rand}.dcd
dump dmp2 all dcd 100 traj_462431.dcd


# fix rnuntil all halt ${N} v_max_n >= 3980 error soft message no   # Stop when solidified


run 100000 # 5000000  # Run for this many steps
Neighbor list info ...
  update every 1 steps, delay 10 steps, check yes
  max neighbors/atom: 2000, page size: 100000
  master list distance cutoff = 3.8
  ghost atom cutoff = 3.8
  binsize = 1.9, bins = 9 9 9
  4 neighbor lists, perpetual/occasional/extra = 1 3 0
  (1) pair lj/cut, perpetual
      attributes: half, newton on
      pair build: half/bin/atomonly/newton
      stencil: half/bin/3d
      bin: standard
  (2) compute orientorder/atom, occasional
      attributes: full, newton on
      pair build: full/bin/atomonly
      stencil: full/bin/3d
      bin: standard
  (3) compute coord/atom, occasional
      attributes: full, newton on
      pair build: full/bin/atomonly
      stencil: full/bin/3d
      bin: standard
  (4) compute cluster/atom, occasional
      attributes: full, newton on
      pair build: full/bin/atomonly
      stencil: full/bin/3d
      bin: standard
Per MPI rank memory allocation (min/avg/max) = 9.487 | 9.490 | 9.492 Mbytes
Step Temp PotEng Volume v_max_n 
    4000    1.0827706   -6.1565485    4216.4404            3 
    4100    1.0585904   -6.1552827    4209.2711            4 
    4200    1.0398891   -6.1847603    4194.7374            2 
    4300    1.0518067   -6.1644109    4210.5201            2 
    4400     1.060378   -6.1515948     4201.839            3 
    4500    1.0426886   -6.1542262    4192.9386            3 
    4600    1.0806797   -6.1825238    4185.2087            3 
    4700    1.0771214   -6.1594654    4197.9082            2 
    4800    1.0515105    -6.164311    4182.7313            9 
    4900    1.0665145   -6.1754425    4186.6377            6 
    5000    1.0559706   -6.1724683    4192.8005            4 
    5100    1.0531944   -6.1826435    4207.0149            7 
    5200    1.0629516   -6.1909471    4210.7846            7 
    5300    1.0327123   -6.2012758    4188.2043            6 
    5400    1.0467939   -6.1998929    4187.9326            6 
    5500     1.054763   -6.1740417    4195.6659            6 
    5600    1.0872002    -6.181156    4199.3284            6 
    5700    1.0392677   -6.1673945    4186.1391            7 
    5800    1.0538664   -6.1472433    4202.3806           10 
    5900    1.0448301   -6.1372013    4209.7431            9 
    6000    1.0864444   -6.1390754    4218.7819            9 
    6100    1.0715688   -6.1578735     4205.396            5 
    6200     1.066228   -6.1893982    4191.4398           11 
    6300    1.0755375   -6.1958706    4191.0909            9 
    6400    1.0808371   -6.1702952    4196.0095            3 
    6500    1.0446995   -6.1277835    4216.6038            5 
    6600     1.044278   -6.1742676    4205.0631            5 
    6700    1.0485557   -6.1642206     4198.253            4 
    6800    1.0719521   -6.1378746    4203.1095            5 
    6900     1.059639    -6.169605    4201.6683            9 
    7000    1.0165182   -6.1665518    4194.1437            2 
    7100    1.0607566   -6.2094414    4190.8403           10 
    7200    1.0814949   -6.1853883    4188.8925           14 
    7300    1.0491048   -6.1609728    4204.2489            3 
    7400    1.0719156   -6.1842378    4198.3243            2 
    7500    1.0453596   -6.1689742      4201.75            4 
    7600    1.0484796   -6.1394697    4213.3824            9 
    7700    1.0513063   -6.1530535    4205.2733            6 
    7800    1.0569952    -6.169871    4193.0079            6 
    7900    1.0751839   -6.1529297     4189.804            5 
    8000    1.0659077   -6.1873508    4181.9186            5 
    8100    1.0643828   -6.1947555    4187.7956            4 
    8200    1.0565759   -6.1757665    4189.6501            3 
    8300    1.0675362   -6.1773724    4194.3308            5 
    8400    1.0421223   -6.1585662    4210.0782            8 
    8500    1.0474703   -6.1991478    4199.2165            6 
    8600    1.0322445    -6.180158    4194.6278            6 
    8700    1.0667632   -6.1696891    4199.5165            5 
    8800    1.0712834   -6.1371148    4191.5056            3 
    8900    1.0772721   -6.2037292    4181.1437           13 
    9000    1.0553148   -6.1700964    4189.6405            6 
    9100    1.0651117   -6.1497653    4203.0802            2 
    9200    1.0527107   -6.1632725    4208.5396            5 
    9300    1.0555557   -6.1886422     4206.046            4 
    9400    1.0897966   -6.1782019    4216.9098            4 
    9500    1.0416939   -6.1418604    4196.7382            3 
    9600    1.0616712   -6.1648421    4201.1206            4 
    9700    1.0791072   -6.1477085    4216.1385            6 
    9800    1.0446182   -6.1218996    4215.8938            7 
    9900    1.0557464   -6.1820204    4204.9747            4 
   10000    1.0398306   -6.2034924    4200.0974            4 
   10100    1.0594404   -6.1774472    4209.3122            4 
   10200     1.067769   -6.1339293    4209.9543            3 
   10300    1.0409706   -6.1360766    4203.9352            3 
   10400    1.0725676   -6.1509126    4195.5636            9 
   10500    1.0547865   -6.1795547    4193.5235            4 
   10600    1.0463356   -6.1628627    4193.5672            4 
   10700    1.0733192   -6.1541371    4215.3368            5 
   10800    1.0410215   -6.1245454    4215.5377            4 
   10900    1.0883241    -6.169538    4210.8758            5 
   11000    1.0458959   -6.1542629    4199.9659            7 
   11100    1.0636266   -6.1604932    4199.1576            5 
   11200    1.0566909   -6.1855877    4201.9678            9 
   11300     1.062896   -6.1549487    4204.5174            6 
   11400     1.060198   -6.1606035    4185.9905            4 
   11500    1.0641961   -6.1716401    4188.2235            5 
   11600    1.0667695    -6.152083    4193.9761            4 
   11700    1.0424514   -6.1435465    4194.1938            6 
   11800    1.0819966   -6.1443089    4191.0564            5 
   11900    1.0543699   -6.1552267     4204.389            6 
   12000    1.0515981   -6.1516919    4200.0156            5 
   12100    1.0528557   -6.1345157    4204.0175            6 
   12200    1.0630739   -6.1119951    4207.3302            3 
   12300    1.0773651    -6.131757    4187.3212            5 
   12400    1.0680608   -6.1609905    4186.5875            6 
   12500     1.056351   -6.1774149    4186.5548            7 
   12600    1.0816502   -6.1822356    4197.0217            8 
   12700    1.0441307   -6.1736681    4192.3111            8 
   12800    1.0408658   -6.1829759    4201.8069            7 
   12900    1.0589125   -6.1939378    4198.0519            8 
   13000    1.0658866   -6.1839425    4186.8342            7 
   13100     1.086737   -6.2040876    4176.3346           11 
   13200    1.0435178   -6.1806503    4161.4395            6 
   13300    1.0667491   -6.1859487    4185.7649            3 
   13400    1.0563417   -6.1532705    4193.7822            4 
   13500    1.0748766   -6.2197259    4200.7665            6 
   13600    1.0407961   -6.2162262    4195.0515            5 
   13700     1.035368   -6.1672069     4209.324            4 
   13800       1.0737   -6.1753078     4202.967            8 
   13900    1.0411319   -6.1731749    4195.0474           11 
   14000    1.0692262   -6.1716893    4209.5284            5 
   14100    1.0400877   -6.1298743    4209.1505            4 
   14200    1.0387207   -6.1933893    4198.2446            3 
   14300     1.062858   -6.1854414    4189.1394            6 
   14400    1.0816714   -6.1488768    4195.7811            6 
   14500    1.0767881   -6.1641616     4206.352            8 
   14600    1.0459062   -6.1663785     4187.321            9 
   14700    1.0871522   -6.1930773    4187.6546            4 
   14800    1.0753961   -6.1658624    4202.4295            5 
   14900    1.0577348   -6.1151454    4203.9694            6 
   15000    1.0505196    -6.157778    4198.7484            3 
   15100     1.068713   -6.1847292    4196.0874            4 
   15200    1.0466413   -6.1458513    4197.8018            6 
   15300    1.0536311   -6.1486072    4214.8289            5 
   15400    1.0525733   -6.1316376    4224.9793            4 
   15500    1.0593599   -6.1676611    4210.1146            4 
   15600     1.056683   -6.1861592    4204.8452            5 
   15700    1.0653209   -6.1706062     4221.562            3 
   15800    1.0598122   -6.1594312    4224.4412            7 
   15900    1.0447507   -6.1683709    4209.1971            6 
   16000    1.0360283   -6.1427553    4202.5911            6 
   16100    1.0579066    -6.129946    4215.1734            8 
   16200    1.0438701   -6.1516443    4203.4807            7 
   16300    1.0520587   -6.1404935    4194.4876            3 
   16400     1.051419   -6.1674824    4189.4783            7 
   16500    1.0585208   -6.1680915    4184.2532            7 
   16600     1.066355   -6.1611062    4202.3946            3 
   16700    1.0723963   -6.1348882    4202.2685            5 
   16800    1.0479553   -6.1408787    4173.1331            8 
   16900    1.0733684   -6.1594184    4177.7948            7 
   17000    1.0941975   -6.1713165    4193.2076            6 
   17100    1.0525971   -6.1653242    4191.5896            4 
   17200    1.0482333   -6.1492075    4195.2741            8 
   17300    1.0772993   -6.1451801    4213.8193            5 
   17400     1.057867   -6.1663765    4184.6662           11 
   17500    1.0322633   -6.1327142    4193.6147            4 
   17600    1.0768093   -6.1510784    4197.7357           17 
   17700    1.0541681   -6.1783392    4203.9887            4 
   17800    1.0616753    -6.172921     4209.883            4 
   17900    1.0494939   -6.1178652    4213.6042            3 
   18000    1.0584813   -6.1371304     4209.079            4 
   18100     1.077267   -6.1701462    4209.8039            3 
   18200     1.036825   -6.1595354    4213.4507            2 
   18300    1.0587922   -6.1621968    4212.2392            8 
   18400    1.0454613   -6.1579759    4197.1684            4 
   18500    1.0526018   -6.1545544    4203.8343            4 
   18600    1.0676811   -6.1423085    4214.0126            5 
   18700    1.0574078   -6.1481825    4200.3506            5 
   18800    1.0667723   -6.1827105    4196.4743            8 
   18900    1.0672296   -6.1238837    4197.8154            4 
   19000    1.0672156   -6.1470954    4193.4702            5 
   19100    1.0664585   -6.1720932    4186.5006            3 
   19200    1.0576825    -6.148893    4195.3782            4 
   19300    1.0596682   -6.1443209    4201.9983            6 
   19400    1.0979423   -6.1419067    4208.8248            3 
   19500    1.0661632   -6.1568904     4203.032            5 
   19600    1.0560545   -6.1825415    4196.1226            8 
   19700    1.0698815   -6.1621321    4203.2335            5 
   19800    1.0699964   -6.1600828    4204.6998            5 
   19900     1.053269   -6.1875073    4200.1324            3 
   20000    1.0565259   -6.1831746    4197.7059            4 
   20100    1.0342371    -6.179074    4194.9917           25 
   20200    1.0593863   -6.1748683    4200.2643           16 
   20300    1.0415699   -6.1481823     4212.203           20 
   20400    1.0432195    -6.163912    4211.4665            6 
   20500    1.0521499   -6.1875275    4197.6336            6 
   20600    1.0579478   -6.1555293    4203.9624           10 
   20700    1.0619939   -6.1625491    4200.3499            4 
   20800    1.0565373   -6.1730331    4184.6602            7 
   20900    1.0775102   -6.1709999    4189.7636            9 
   21000    1.0692964   -6.1594757    4179.2238            7 
   21100    1.0464748    -6.151736    4184.1719            8 
   21200    1.0701082   -6.1773686    4199.4872           12 
   21300    1.0577695   -6.1903752     4204.007            3 
   21400    1.0474599   -6.2180049     4203.211            5 
   21500    1.0509023   -6.1683871    4215.3634            4 
   21600    1.0484119   -6.1837375    4212.3166            5 
   21700    1.0618026   -6.1960286    4210.3562            7 
   21800    1.0402749   -6.1571152    4211.9749            3 
   21900    1.0816704   -6.1578347    4213.1209            4 
   22000    1.0438749   -6.1445742    4207.9447            4 
   22100    1.0604578   -6.1624169    4205.5536            9 
   22200    1.0632977   -6.1666381    4196.1673            4 
   22300    1.0780155   -6.1624017    4205.2131            7 
   22400    1.0540208   -6.1657917    4209.1513           15 
   22500    1.0153758    -6.159914    4198.1318            8 
   22600    1.0594885   -6.1719784    4196.7545            3 
   22700    1.0936787   -6.1776531    4206.7202           13 
   22800    1.0501204   -6.1450078    4197.0347            8 
   22900    1.0652937   -6.2013572    4201.4114            7 
   23000    1.0427601   -6.1813334    4214.0835            8 
   23100    1.0437439   -6.1572429    4206.3254            5 
   23200    1.0679561   -6.1665296    4208.0521            6 
   23300    1.0820502   -6.2148427    4206.2331            7 
   23400    1.0525171   -6.1886449    4192.3007            4 
   23500    1.0730584   -6.1576783    4206.2913            8 
   23600    1.0689824   -6.1424104    4199.9858            4 
   23700     1.050623   -6.1372879    4205.7485            8 
   23800    1.0683697   -6.1543354    4201.1728           12 
   23900    1.0533933    -6.147254    4190.7834            6 
   24000    1.0524199   -6.1872182    4172.0708            4 
   24100    1.0609614   -6.1480161    4193.8355            8 
   24200    1.0399857   -6.1392391    4215.7226            4 
   24300    1.0708382   -6.1615691    4223.4021           12 
   24400    1.0510952   -6.1437253    4214.1079            6 
   24500    1.0327484   -6.1850456    4204.6388            8 
   24600    1.0617507   -6.1962028    4189.9041            6 
   24700      1.05923   -6.1453947    4188.6848            3 
   24800    1.0656224   -6.1536784    4193.9341            7 
   24900     1.081199   -6.1618524    4193.2425            8 
   25000    1.0443797   -6.1382795    4205.9506            6 
   25100    1.0786542   -6.1457146     4212.184            4 
   25200    1.0585556   -6.1629701    4203.1965            5 
   25300    1.0539956    -6.194836     4195.404            8 
   25400     1.067805   -6.1562973    4204.7561            8 
   25500    1.0620228   -6.1655896     4206.487           17 
   25600    1.0523301   -6.1602842     4199.317            6 
   25700    1.0674363   -6.2210475    4185.3598            4 
   25800    1.0532903   -6.1793535     4189.209           11 
   25900    1.0717289   -6.1714563    4197.6271            6 
   26000    1.0302726   -6.1659392    4198.4504            4 
   26100    1.0667585   -6.1584477    4199.6343            6 
   26200    1.0527284    -6.158436     4195.657            8 
   26300    1.0488456   -6.1748164    4193.2526            3 
   26400    1.0674926   -6.1438999    4199.7249            8 
   26500     1.059514   -6.1685319    4196.8923            6 
   26600    1.0267241    -6.177511     4187.555           12 
   26700    1.0499599   -6.1547745    4186.4245            5 
   26800    1.0642434   -6.1461356     4190.589            5 
   26900    1.0971167   -6.1400193    4206.5571            5 
   27000    1.0662998   -6.1517531    4210.5305            3 
   27100    1.0614783   -6.1825778    4200.8389            3 
   27200    1.0389126   -6.1852327    4204.3951            3 
   27300    1.0514902   -6.1554513    4205.9144            7 
   27400      1.08196   -6.1496179    4204.1461            3 
   27500    1.0596157    -6.170478    4200.3112            6 
   27600    1.0425997    -6.165894    4201.1399           10 
   27700    1.0449495   -6.1856426     4205.702            6 
   27800    1.0378165   -6.2150392    4200.5276            7 
   27900    1.0467749   -6.1702133    4208.7149            8 
   28000    1.0686413   -6.1656341    4200.4853            5 
   28100    1.0578391   -6.1670973    4194.9055            6 
   28200    1.0538632    -6.146606    4204.6965            5 
   28300    1.0640116    -6.171378    4210.0824            7 
   28400     1.067271   -6.1893148    4184.9791            5 
   28500    1.0622143    -6.187423    4179.0337            7 
   28600    1.0834813   -6.1692756    4194.2558            3 
   28700    1.0539759   -6.1444761    4194.3072            4 
   28800    1.0543781   -6.1781866    4202.3732            7 
   28900    1.0410685   -6.1375051    4210.1451            8 
   29000    1.0641949   -6.1502984     4215.802            5 
   29100    1.0434493   -6.1681842    4210.3707            4 
   29200    1.0856209   -6.1858838    4200.9406            3 
   29300    1.0419163   -6.1443941    4210.9671            5 
   29400    1.0563178   -6.1829358    4200.9585            5 
   29500    1.0656883   -6.1421047    4197.3387            7 
   29600    1.0667669   -6.1523469    4182.3452            5 
   29700    1.0713142   -6.1723161    4169.8612            3 
   29800    1.0978264   -6.1705082    4191.8563            6 
   29900    1.0646752   -6.1628957    4188.6055            4 
   30000     1.042341    -6.166233    4193.6055            4 
   30100    1.0606581   -6.1725053    4204.8635            3 
   30200    1.0415453   -6.1390651    4215.9767            7 
   30300    1.0556382   -6.1625955    4212.3868            5 
   30400    1.0648369   -6.1539336    4206.1982            2 
   30500    1.0620918     -6.15875    4208.7404            7 
   30600    1.0438002   -6.1834937    4207.1715            6 
   30700    1.0535284   -6.1569004    4213.3209            4 
   30800    1.0627631   -6.1673491    4203.4061            3 
   30900    1.0489586   -6.1921398    4190.0484            3 
   31000    1.0731429   -6.1871916    4187.5456            8 
   31100    1.0714754   -6.1886815     4192.521            4 
   31200    1.0718881   -6.1605057     4197.449            5 
   31300    1.0517985   -6.1952128    4196.7588            5 
   31400    1.0659561   -6.1883469     4196.592           14 
   31500    1.0878546   -6.1774191    4217.4264            3 
   31600    1.0518832   -6.1671277    4209.5986            3 
   31700     1.048111   -6.1808298    4209.8553            4 
   31800    1.0783851   -6.1826958    4203.9916            6 
   31900    1.0555802   -6.1672551    4186.6556            5 
   32000    1.0646522   -6.1713036    4197.9447            7 
   32100    1.0505045   -6.1520972    4201.4742            4 
   32200    1.0537464   -6.1310159    4212.3872            4 
   32300    1.0400361   -6.1534906    4234.3592            7 
   32400    1.0495875    -6.168437    4216.1356            4 
   32500    1.0440714    -6.163982    4204.5962            8 
   32600    1.0628566   -6.1700036    4201.1548            6 
   32700    1.0618298   -6.1914056    4196.1183            5 
   32800    1.0706368   -6.1604803    4196.9982            4 
   32900    1.0660019   -6.1381804    4203.4999            5 
   33000    1.0484469   -6.1745506    4203.3168            4 
   33100    1.0767214   -6.1804901    4209.7008            4 
   33200       1.0787   -6.1551349    4224.8803            7 
   33300     1.051549   -6.1452967    4210.3593            5 
   33400    1.0590515   -6.1831745    4190.7255           14 
   33500    1.0608141    -6.134091    4199.1786            9 
   33600     1.073769   -6.1469176    4201.9237            3 
   33700    1.0725216   -6.1767192    4178.2241            5 
   33800    1.0833343    -6.180789    4186.2842            9 
   33900    1.0704899   -6.1905551    4195.8457            3 
   34000     1.058893   -6.1700809    4193.0861            3 
   34100    1.0791066   -6.1644573    4203.0124            4 
   34200    1.0605581   -6.1732339    4199.8517            4 
   34300    1.0516994   -6.1763934    4203.8038            7 
   34400    1.0721286   -6.1720812    4207.7263            3 
   34500    1.0326422   -6.1583969     4190.136            6 
   34600    1.0745391   -6.1870465    4197.7565            4 
   34700    1.0774423   -6.1772031    4188.0098            4 
   34800    1.0669761   -6.1778257    4185.4274            8 
   34900    1.0613334    -6.149157    4196.9296            4 
   35000    1.0582971    -6.142607    4194.2051            3 
   35100    1.0462804   -6.1741111    4184.4434            4 
   35200    1.0612504   -6.1417819    4202.3034            2 
   35300    1.0559404   -6.1563041     4201.278            4 
   35400    1.0284596    -6.156877    4197.7086            6 
   35500     1.067578   -6.1639303      4203.08            4 
   35600    1.0635736    -6.162262    4205.7248            5 
   35700    1.0355036   -6.1640832    4203.4231            8 
   35800    1.0739964   -6.1676572    4185.8341            9 
   35900    1.0675295   -6.1804831     4187.381           18 
   36000    1.0695357   -6.1587805    4202.6013           12 
   36100    1.0764557   -6.1301855    4205.6291            4 
   36200    1.0631717   -6.1689726    4176.3892            5 
   36300    1.0799168    -6.191776    4185.8043            4 
   36400    1.0779892   -6.1621975     4192.433            4 
   36500    1.0676666   -6.1447829    4199.2517            3 
   36600    1.0486522   -6.1586339    4197.0898            7 
   36700    1.0585523   -6.1699359      4197.01            6 
   36800    1.0657829   -6.1479475    4215.0542            3 
   36900    1.0629682   -6.1383406     4220.053            3 
   37000    1.0640197   -6.1749237    4203.2687            3 
   37100    1.0620733   -6.1764658    4195.8461            4 
   37200    1.0868161   -6.1756325    4208.5717            2 
   37300    1.0666806   -6.1814731    4205.6459            8 
   37400    1.0462973     -6.18821    4197.9145            6 
   37500    1.0633718    -6.163732    4206.4336            6 
   37600     1.062649   -6.1773359    4211.6963            4 
   37700    1.0530348   -6.1810915     4204.692            4 
   37800    1.0587011   -6.1787588    4197.0155            5 
   37900    1.0598209   -6.1366023    4208.4452            4 
   38000    1.0228347   -6.1564895    4209.2967            5 
   38100    1.0446299   -6.1612823    4212.4017            6 
   38200    1.0508727   -6.1504347    4204.7178            6 
   38300    1.0609713   -6.1662947    4195.5311            8 
   38400    1.0716329   -6.1701797    4187.2918            4 
   38500    1.0507034   -6.1619629    4184.2838            6 
   38600    1.0616853   -6.1637852    4186.4052            6 
   38700     1.080549   -6.1465465    4191.8077            5 
   38800    1.0586861   -6.1525726    4193.0423            9 
   38900    1.0472824   -6.1650998    4187.5521            4 
   39000     1.064294   -6.1396585    4199.6012            6 
   39100    1.0937189   -6.1561795     4198.606            4 
   39200    1.0554174   -6.1558714     4183.404            5 
   39300      1.04816   -6.1945954    4188.3766            3 
   39400    1.0327859   -6.1732544    4197.7936            6 
   39500    1.0575145   -6.1678163    4197.2055            3 
   39600    1.0777303   -6.1843427    4191.5924            5 
   39700    1.0918433   -6.1584347     4192.663            5 
   39800    1.0717616   -6.1621303    4181.9225           10 
   39900    1.0634567   -6.1747078    4183.2995            4 
   40000    1.0489037   -6.1666181    4192.9659            6 
   40100    1.0537091   -6.1428662    4212.3865            4 
   40200    1.0656756   -6.1654333    4216.3652            5 
   40300    1.0582696   -6.1490922    4203.9378            4 
   40400    1.0855588   -6.1393719    4210.0823            4 
   40500    1.0499727   -6.1522622    4207.7259            3 
   40600     1.048068   -6.1442434    4216.3567            4 
   40700    1.0569822   -6.1550744    4224.0031            5 
   40800    1.0495701   -6.1854079    4206.7531            4 
   40900    1.0578771   -6.1655796    4207.4406            4 
   41000    1.0463759   -6.1506624    4208.4342            4 
   41100    1.0553652   -6.2022087    4181.5046            7 
   41200    1.0589667   -6.1776077    4199.7322            4 
   41300    1.0625832   -6.1557544    4202.4958            7 
   41400    1.0556601   -6.1975398    4191.5245            7 
   41500    1.0696903    -6.172194    4188.9871            5 
   41600    1.0548531   -6.1865024    4183.8488            4 
   41700    1.0690853   -6.1677033    4185.6519            5 
   41800    1.0728394   -6.1447648    4190.5831            7 
   41900    1.0477541   -6.1300981    4193.8941            3 
   42000    1.0535777    -6.122537    4202.5508            5 
   42100    1.0699478   -6.1511374    4207.5392            6 
   42200    1.0622938   -6.1781333    4194.5561           10 
   42300    1.0377899   -6.1684476    4188.6692            4 
   42400    1.0676397   -6.1561331     4191.267            7 
   42500    1.0607918   -6.1422024    4189.8509            7 
   42600    1.0808764   -6.1601701    4186.5366            7 
   42700    1.0555456   -6.1723104    4182.0215            3 
   42800    1.0964142   -6.2036915    4182.8007            5 
   42900     1.034651   -6.1512484    4188.8782            3 
   43000    1.0514859   -6.1530398    4196.4475            6 
   43100    1.0659519   -6.1832935    4198.1672            5 
   43200    1.0322903   -6.1998561    4189.6584            4 
   43300     1.054187   -6.1647868    4188.3689            6 
   43400    1.0572295   -6.1599075    4190.0503            3 
   43500    1.0434604   -6.1906624    4177.7777            3 
   43600     1.056831   -6.1875431    4190.8879            4 
   43700    1.0489042   -6.1747635    4198.7348            5 
   43800    1.0584622    -6.174401    4206.7878            4 
   43900    1.0878404   -6.1734925    4201.3912            3 
   44000    1.0517545   -6.1509035    4201.2142            3 
   44100    1.0507284   -6.1671465    4195.7017            7 
   44200    1.0733853   -6.1951826    4181.7586            7 
   44300    1.0826059   -6.1553394    4200.3866            6 
   44400    1.0651765   -6.1300924    4194.2399           14 
   44500     1.060198   -6.1580157    4181.2338            7 
   44600    1.0613503   -6.1722088    4176.3306            7 
   44700    1.0753329   -6.1445705    4194.5696            9 
   44800    1.0520159   -6.1032624    4204.1112            7 
   44900    1.0769496   -6.1350809    4215.0709            3 
   45000    1.0515313   -6.1537032     4196.655            4 
   45100    1.0605485    -6.137358    4201.0096            8 
   45200    1.0736723   -6.1341426    4209.1694            6 
   45300    1.0551255   -6.1473933    4195.3469            3 
   45400    1.0486482   -6.1563666    4189.0279            3 
   45500    1.0744954   -6.1472942    4176.1197            7 
   45600    1.0926377   -6.1369971    4181.6035            6 
   45700    1.0700184   -6.1666661    4189.8152            4 
   45800      1.05678   -6.1888594    4189.2355           10 
   45900    1.0657564   -6.1916487    4195.4077            8 
   46000    1.0825788   -6.1923317    4214.9971            5 
   46100    1.0279585   -6.1692051    4203.8752            5 
   46200    1.0666532   -6.1854978    4200.7538            4 
   46300    1.0427427   -6.1787614     4199.661            9 
   46400    1.0565144   -6.1769499    4196.8468            7 
   46500    1.0821556   -6.1801167    4210.3987            4 
   46600    1.0638449   -6.2138109    4201.2171            8 
   46700    1.0502696    -6.180857    4216.4452            4 
   46800    1.0450288   -6.1598596    4212.6767            5 
   46900    1.0774314   -6.1603043     4205.037            6 
   47000    1.0468307   -6.1617017    4196.4897            5 
   47100    1.0693131   -6.1671249    4190.9475           13 
   47200    1.0369918   -6.1638195    4193.5668            4 
   47300    1.0650052   -6.1931656    4181.3773            4 
   47400    1.0667859   -6.1431827    4190.0068           11 
   47500    1.0736422   -6.1670285    4188.2585            8 
   47600    1.0583517   -6.1822558    4181.2163            5 
   47700    1.0611417   -6.1406523    4196.3975            6 
   47800    1.0750149   -6.1501208    4194.8173            4 
   47900    1.0691556    -6.146402    4182.7005            4 
   48000    1.0790148   -6.1743545    4180.6199            7 
   48100    1.0622146   -6.1587105    4187.4256            3 
   48200    1.0320892   -6.1422487     4197.424            5 
   48300    1.0527249   -6.2233998    4187.9694            6 
   48400    1.0606832   -6.1834344    4200.3658            5 
   48500    1.0398891   -6.1662035    4197.7246            5 
   48600    1.0396613   -6.1836988    4190.8379           11 
   48700    1.0537191    -6.153429     4201.769            2 
   48800    1.0518274   -6.1657448     4202.824            5 
   48900    1.0527444   -6.1565451    4197.8607           10 
   49000    1.0820553   -6.1549685     4203.538            3 
   49100    1.0528426   -6.1743694    4192.6648            3 
   49200    1.0630259   -6.1782625    4182.0705            4 
   49300    1.0562032   -6.1440649    4188.7749            3 
   49400    1.0548326   -6.1504639    4203.8378            5 
   49500    1.0286162   -6.1755516    4196.3616            6 
   49600    1.0764317    -6.196869    4197.5233            4 
   49700    1.0723473    -6.139587    4205.0918            5 
   49800    1.0727671   -6.1466213    4219.2603            4 
   49900    1.0367403   -6.1458295    4213.7877            6 
   50000    1.0377243   -6.1755866    4206.0216            9 
   50100    1.0575918    -6.146982     4206.476            7 
   50200    1.0748258   -6.1666332    4189.6487            5 
   50300    1.0554525   -6.1823196    4183.7867            7 
   50400    1.0701728   -6.1632664    4195.9366           11 
   50500    1.0626695   -6.1465141    4202.7925           10 
   50600    1.0491263     -6.16336    4199.0101            7 
   50700    1.0173808    -6.163812    4190.0388            7 
   50800    1.0505702   -6.1835352    4195.2834           10 
   50900    1.0650714    -6.177657    4197.5862            3 
   51000    1.0705421   -6.1484767    4200.7207            5 
   51100    1.0510927   -6.1419821    4206.6715            4 
   51200    1.0648103   -6.1791036     4206.737            6 
   51300    1.0962132   -6.1751015    4196.3201            4 
   51400     1.057651   -6.1709897    4181.9349            4 
   51500    1.0881587   -6.1773659    4175.6623           12 
   51600    1.0435306   -6.1676877    4182.2346            6 
   51700    1.0572358    -6.142246    4204.2212            8 
   51800    1.0469089   -6.1397863    4208.0114           12 
   51900    1.0450049   -6.1753514    4204.2113           13 
   52000    1.0781228   -6.1914092    4195.0456           14 
   52100    1.0534437   -6.1637152    4190.7729            5 
   52200    1.0658801   -6.1478077    4198.4543            4 
   52300    1.0783543   -6.1400933    4201.2591            8 
   52400    1.0584303   -6.1817249    4190.3241            9 
   52500    1.0879321   -6.1743347    4193.1581            9 
   52600    1.0719212   -6.1611911    4176.5866            4 
   52700    1.0336043   -6.1537269    4181.9894            6 
   52800    1.0677773   -6.1863114    4187.9223            5 
   52900    1.0713441   -6.1815341     4191.907            8 
   53000    1.0700888   -6.1768039    4204.3265            4 
   53100    1.0261772   -6.1682501    4199.2113            8 
   53200    1.0688449   -6.1760995    4207.7977            6 
   53300    1.0453016   -6.1581231     4208.293            8 
   53400    1.0655793   -6.1740097    4198.5177            7 
   53500    1.0449508   -6.1890289     4198.225           16 
   53600    1.0674271   -6.1694693    4206.1309            4 
   53700    1.0589348   -6.1348032    4199.4753            2 
   53800    1.0821274   -6.1096456    4189.6238            6 
   53900    1.0806495   -6.1733606    4190.7704            3 
   54000    1.0609237   -6.1526039    4189.6181            3 
   54100    1.0859287    -6.165101    4197.6123            6 
   54200     1.033207   -6.1425995    4203.9858            3 
   54300     1.077046   -6.1403711    4213.1153            4 
   54400    1.0473894   -6.1555738    4210.7089            7 
   54500    1.0526164   -6.1747632    4197.0154            5 
   54600    1.0812043   -6.1881307    4203.0008           14 
   54700    1.0774957   -6.1589951    4197.2225            9 
   54800    1.0542571   -6.1593767    4197.5033            8 
   54900    1.0566134   -6.1580276    4198.6514           15 
   55000    1.1036911   -6.1657579    4200.6837           10 
   55100    1.0397795   -6.1364617    4191.9029            3 
   55200    1.0918949   -6.1529345    4191.8194            3 
   55300    1.0676254   -6.1525861     4188.841            4 
   55400    1.0444381   -6.1763536     4189.883            4 
   55500    1.0513682   -6.1784189    4201.1737            7 
   55600    1.0568741   -6.1604054    4213.2928            4 
   55700    1.0613176   -6.1587373    4211.0887            5 
   55800    1.0509375   -6.1879889    4197.2005            3 
   55900    1.0629131   -6.1828362    4199.7734           11 
   56000    1.0607555   -6.1713812     4207.132            6 
   56100    1.0693111   -6.2005292    4201.9163            5 
   56200    1.0382925   -6.1819242    4186.9406            8 
   56300    1.0556581    -6.186786    4200.7654            8 
   56400    1.0515457   -6.1503316    4202.6299            7 
   56500    1.0750056   -6.1927308    4193.6114            6 
   56600    1.0442375   -6.1672665    4186.7043            7 
   56700    1.0678128   -6.1724699    4210.2122            8 
   56800     1.056716   -6.1593461    4208.1977           11 
   56900    1.0535845   -6.1732117    4199.8724            8 
   57000    1.0481377   -6.1933171    4188.5267            7 
   57100    1.0653238   -6.2217009    4189.1995            3 
   57200    1.0867769   -6.1882076    4181.6696            4 
   57300     1.048834   -6.1587384    4191.6375            9 
   57400    1.0673458   -6.1698215     4203.281            8 
   57500    1.0741474   -6.1592742     4211.695            5 
   57600    1.0489924   -6.1485652    4207.6654            5 
   57700    1.0439075   -6.1714267    4201.5219            3 
   57800    1.0586527   -6.1590508    4210.1201            5 
   57900    1.0673714   -6.1939275    4201.6923            3 
   58000    1.0328074    -6.168937    4194.8437            4 
   58100    1.0614512   -6.1425225    4201.7874            3 
   58200    1.0854123   -6.1460713    4191.8216            3 
   58300    1.0680065   -6.1697149     4183.722            5 
   58400    1.0575698   -6.1746427    4194.7197            5 
   58500    1.0769939   -6.1847171    4201.6165            4 
   58600    1.0470896   -6.1906487    4189.0003            6 
   58700    1.0491508   -6.1989883    4195.0316            5 
   58800    1.0627847   -6.1580023    4196.8537            5 
   58900    1.0574282   -6.1587499    4192.2167            5 
   59000    1.0632193   -6.1673031    4190.0564            4 
   59100    1.0723217   -6.1571388    4181.1318            5 
   59200    1.0610842   -6.1444908    4179.0847            6 
   59300    1.1060555   -6.1452738    4182.3202            3 
   59400    1.0635358   -6.1301998    4174.8884            5 
   59500    1.0520661   -6.1523523    4185.0364            4 
   59600    1.0636339   -6.1606219     4196.189            6 
   59700    1.0396344   -6.1150181    4201.0496            3 
   59800    1.0552038   -6.1233081    4207.7685            6 
   59900    1.0377527   -6.1561114     4181.856            9 
   60000    1.0706585   -6.1785723    4189.1024            4 
   60100    1.0554528   -6.1449149    4203.6031            7 
   60200    1.0622455   -6.1130052    4206.2613            3 
   60300    1.0612715   -6.1265401    4194.1565            3 
   60400    1.0620567   -6.1421811    4186.7912            8 
   60500    1.0780536   -6.1473687    4209.0106            5 
   60600    1.0550612   -6.1567984    4185.2971            5 
   60700    1.0744294   -6.2056701    4189.1913            4 
   60800    1.0831782   -6.1960215    4200.9417            6 
   60900    1.0333136   -6.1720981    4208.5612            3 
   61000    1.0484979   -6.1577046    4206.5215            4 
   61100    1.0502511    -6.150031    4207.4687            7 
   61200     1.045552   -6.1598245    4200.0931            8 
   61300    1.0505831   -6.1601985    4194.4431            8 
   61400    1.0846399   -6.1650294    4210.3482            8 
   61500     1.059037   -6.1307534    4211.5921            6 
   61600    1.0458202   -6.1503144    4189.4138            4 
   61700    1.0826136   -6.1973286    4186.8767           12 
   61800    1.0592583   -6.1532379    4194.3186            9 
   61900    1.0631464   -6.1304967    4202.9361            6 
   62000     1.042962   -6.1505295    4193.4865            5 
   62100    1.0729723   -6.1759352    4185.5129            5 
   62200    1.0332187   -6.1636232    4175.9243            9 
   62300    1.0793284   -6.1720475    4176.8708            4 
   62400    1.0558198    -6.154126    4178.0463            6 
   62500    1.0669366   -6.1338248    4178.7859            6 
   62600    1.0660575    -6.139001    4183.9366            6 
   62700    1.0597878   -6.1797578    4176.2297            4 
   62800    1.0625653   -6.1934506    4173.6389            6 
   62900    1.0837049   -6.2046413    4176.7278            6 
   63000    1.0545472   -6.1653704    4197.1324           13 
   63100    1.0530571   -6.1368765    4206.1054           17 
   63200    1.0746107   -6.1608288      4207.89            4 
   63300    1.0589364   -6.1812709    4194.8917            3 
   63400    1.0520666   -6.2096612     4184.192            8 
   63500    1.0711346   -6.1875236    4185.8108            5 
   63600    1.0411304   -6.1523967     4195.072            2 
   63700    1.0721325   -6.1721605     4193.649            3 
   63800     1.058464   -6.1842165    4178.7664            5 
   63900    1.0584996   -6.1712109    4186.0322           10 
   64000    1.0637326   -6.1289672    4194.9161            9 
   64100     1.079829   -6.1160924    4204.7092            9 
   64200    1.0538839    -6.124817     4208.338            8 
   64300    1.0656871   -6.2000036    4203.6898            7 
   64400    1.0723072    -6.208057    4196.5301            3 
   64500    1.0517638   -6.1427887    4209.5447            4 
   64600    1.0668147   -6.1458077     4211.832            5 
   64700    1.0538144   -6.1758369    4207.4042            5 
   64800    1.0807377   -6.1764274    4206.4179            6 
   64900    1.0644493   -6.1678839     4215.068            2 
   65000    1.0439894   -6.1679547    4195.7649            6 
   65100    1.0554595   -6.1306193    4210.2373            7 
   65200    1.0657572   -6.1661084    4200.9469            5 
   65300    1.0689033   -6.1664401    4198.1172            6 
   65400    1.0619696   -6.1496714    4199.2512            8 
   65500    1.0548427    -6.180993    4186.5735            5 
   65600    1.0594056   -6.1451226    4201.0134           13 
   65700    1.0571978   -6.1723498     4202.736           12 
   65800    1.0402209   -6.1509459    4189.1573            5 
   65900    1.0575919   -6.2028706    4171.5633            5 
   66000    1.0803556   -6.1784362    4176.5716            5 
   66100    1.0902823   -6.1572303    4185.1237            7 
   66200    1.0802531   -6.1853141    4192.7902            4 
   66300    1.0353371   -6.1484005    4199.6306            2 
   66400    1.0690279   -6.1733855    4205.0418            5 
   66500    1.0384762   -6.1856753    4197.2257            3 
   66600    1.0539484   -6.1618687    4206.2697            5 
   66700    1.0691102   -6.1797044    4193.4267            4 
   66800    1.0564911   -6.1709934    4200.6219           10 
   66900     1.073697   -6.1586047    4194.1156            4 
   67000    1.0546386   -6.1577642    4193.2682            5 
   67100     1.036831   -6.1744122    4190.1215            5 
   67200    1.0643696   -6.1848671    4177.5658            5 
   67300     1.061491   -6.1405933    4195.9684           11 
   67400    1.0643454   -6.1609717     4191.516            5 
   67500     1.054441    -6.176403    4188.5802            7 
   67600    1.0687793   -6.1965388    4184.2861            5 
   67700    1.0768746   -6.1587275    4188.7474            3 
   67800    1.0528261   -6.1399559    4194.5094            5 
   67900    1.0371244   -6.1615331    4191.6039            3 
   68000    1.0246455   -6.1926282    4187.2205            4 
   68100    1.0602988   -6.2139574    4185.7841            8 
   68200    1.0606626   -6.1781138    4189.2417            7 
   68300    1.0858826   -6.1690321    4189.6637            4 
   68400    1.0796153    -6.151327    4194.1084            6 
   68500    1.0625712   -6.1747075    4195.3511            4 
   68600    1.0542219   -6.1421287    4198.9346           17 
   68700    1.0431054   -6.1536122    4206.3792           16 
   68800    1.0670137   -6.1722993    4204.5616            5 
   68900    1.0560815    -6.177882    4203.2711            9 
   69000    1.0660694   -6.2065329    4195.3437           10 
   69100    1.0592368   -6.1405604    4208.3738           13 
   69200    1.0762465   -6.1886234    4200.5477           17 
   69300    1.0431885   -6.1768065    4206.5028            4 
   69400    1.0627228   -6.1635966    4215.2711            6 
   69500    1.0502566   -6.1694784    4205.9818            6 
   69600    1.0416393    -6.164613    4204.5902            4 
   69700    1.0703327   -6.1693336      4202.35            9 
   69800    1.0508008   -6.1814841     4195.868            6 
   69900     1.078557    -6.179973    4208.4926            6 
   70000    1.0516781   -6.1404978    4205.5312            4 
   70100    1.0552206   -6.1814092     4189.436            3 
   70200    1.0626664   -6.1831215     4196.946            4 
   70300     1.072837   -6.1715072     4208.295            2 
   70400    1.0489336   -6.1710854    4208.5094            5 
   70500    1.0552538   -6.1781209    4210.0145            5 
   70600    1.0519646   -6.1357672    4202.5538            7 
   70700    1.0508023   -6.1520492     4193.085            9 
   70800    1.0596909   -6.1770513    4181.7303           10 
   70900    1.0627832   -6.1396033    4203.2153            9 
   71000    1.0553672   -6.1507706    4205.5036            5 
   71100    1.0472583   -6.2006859    4204.7659            6 
   71200    1.0643046   -6.1757928    4205.3315            4 
   71300    1.0618241   -6.1463278     4204.452            6 
   71400    1.0288566   -6.1679887    4196.6745            6 
   71500      1.05374   -6.1617456    4185.2129            6 
   71600     1.062059   -6.1695272    4188.1905            4 
   71700    1.0723299   -6.1754651    4190.7451            6 
   71800    1.0620961   -6.1246603     4196.319            3 
   71900    1.0513115    -6.156426    4181.4506            6 
   72000      1.06632   -6.1522543    4188.5322           15 
   72100    1.0772334   -6.1334945    4191.4041           15 
   72200    1.0565464   -6.1272712    4206.0773            7 
   72300     1.046201   -6.1465525     4197.382            6 
   72400    1.0525901   -6.1609404    4192.0723            5 
   72500    1.0704972   -6.1515946    4199.1198            7 
   72600    1.0619678   -6.1493274    4200.8937            7 
   72700    1.0544587    -6.150607    4198.6649           12 
   72800    1.0492406   -6.1307956     4210.306            9 
   72900    1.0649354   -6.1569031    4209.8716            4 
   73000      1.06422   -6.1799436    4194.4099            3 
   73100    1.0329632   -6.1671136    4197.6447            5 
   73200    1.0568329   -6.1298566    4207.7799            4 
   73300    1.0586753   -6.1692348    4191.6828            3 
   73400    1.0413758    -6.168692    4202.6414            5 
   73500    1.0714018   -6.1652357    4202.7234            5 
   73600    1.0395349   -6.1650787    4190.6572           13 
   73700    1.0601599   -6.1684267    4181.5472            8 
   73800    1.0538482   -6.1630347    4181.9667            4 
   73900    1.0677278   -6.1585152    4178.8041            5 
   74000    1.0665766   -6.1319833    4178.4117            4 
   74100    1.0656412   -6.1070359    4201.7347            8 
   74200    1.0607136   -6.1121308    4205.9732            9 
   74300    1.0682432   -6.1819712    4191.8891            7 
   74400    1.0435268   -6.1717981    4195.1694            6 
   74500    1.0622436   -6.1435823    4215.0504            3 
   74600    1.0608907   -6.1767487    4214.8702            4 
   74700     1.037801   -6.2046043    4207.6661            5 
   74800    1.0557814    -6.171438    4204.5043            4 
   74900    1.0630291   -6.1877649    4199.7205            7 
   75000    1.0380262   -6.2121188    4193.2288            5 
   75100    1.0627673   -6.1738617    4192.5299            3 
   75200    1.0787167   -6.1533018    4196.1103            4 
   75300    1.0688681   -6.1637509    4203.8087            6 
   75400    1.0599249   -6.1444446    4191.9491           13 
   75500    1.0404451   -6.1511734    4184.7965           10 
   75600    1.0623621   -6.1688371    4189.7933            6 
   75700    1.0508772   -6.1448318    4197.7038            6 
   75800    1.0713108   -6.1435114    4204.2467            4 
   75900    1.0450218   -6.1378045    4196.1378            3 
   76000    1.0632109   -6.1175465    4215.3822           14 
   76100    1.0709015   -6.1331425    4201.3512            6 
   76200    1.0558279   -6.1465773    4193.5106            4 
   76300    1.0715243   -6.1393003    4206.0016            7 
   76400    1.0588031      -6.1146    4203.5146            3 
   76500    1.0879003   -6.1724565    4189.3441            5 
   76600    1.0560861   -6.1570299    4193.5646            6 
   76700    1.0552384   -6.1671229    4197.5327            5 
   76800    1.0776365   -6.1468752    4194.9019            5 
   76900    1.0694283   -6.1312376    4199.7063            7 
   77000    1.0592672   -6.1616578    4180.4808            6 
   77100    1.0716557   -6.1675811    4192.1545            4 
   77200    1.0758549   -6.1484183    4202.0991            7 
   77300    1.0289133   -6.1384797    4195.9802            6 
   77400    1.0414355   -6.1584045    4195.7214            5 
   77500    1.0389302   -6.1636939    4197.0905            9 
   77600    1.0692015   -6.1700972    4199.9389            5 
   77700    1.0802754   -6.1633814    4186.9625           13 
   77800    1.0653407   -6.1439809     4184.956            7 
   77900    1.0915163   -6.1387098     4195.479            5 
   78000    1.0544446   -6.1360569    4195.1592            9 
   78100     1.045652   -6.1597017    4201.3007            6 
   78200    1.0638605   -6.1275175    4210.9118            5 
   78300    1.0637949   -6.1755417    4212.3958            7 
   78400    1.0418199   -6.1781319    4209.1451            7 
   78500    1.0530943   -6.1824576    4221.1468            9 
   78600    1.0622657   -6.1517321    4224.1014            5 
   78700    1.0646815   -6.1801044    4204.0066            9 
   78800    1.0551438    -6.169514    4204.8478            6 
   78900    1.0893051   -6.1640506    4209.4796            6 
   79000    1.0571211   -6.1453674    4202.2185            6 
   79100    1.0421568   -6.1810492    4191.4693            7 
   79200    1.0460892   -6.1613376    4202.0233            5 
   79300    1.0560827   -6.1379415    4207.2187            6 
   79400    1.0529103   -6.1500534    4207.4735            3 
   79500    1.0628622   -6.1768966    4197.8906            8 
   79600    1.0859768    -6.161076    4215.5274            4 
   79700    1.0428681    -6.149436    4211.5843           14 
   79800    1.0526991    -6.154687    4198.6538           16 
   79900    1.0639612   -6.2010124    4195.5039            7 
   80000    1.0541833   -6.1526669    4194.3871            5 
   80100    1.0560204   -6.1226099    4204.1141            5 
   80200    1.0485498   -6.1392584    4209.1695            3 
   80300    1.0320221   -6.1557638    4201.9847            3 
   80400    1.0709797   -6.1544201    4198.4844            3 
   80500     1.057368   -6.1542948    4192.1183            6 
   80600     1.038238   -6.1324137    4191.3942            6 
   80700    1.0646327   -6.1378668     4195.093            6 
   80800    1.0500715   -6.1496662    4195.5238            7 
   80900    1.0809248   -6.1589806      4208.23            8 
   81000    1.0504996   -6.1603781    4200.8298            8 
   81100    1.0706746   -6.1669826    4203.8836            4 
   81200    1.0556468   -6.1420462    4208.4433            9 
   81300     1.062352   -6.1610081    4198.8058            7 
   81400    1.0525606   -6.1787756    4185.4411            5 
   81500    1.0777498   -6.1643102    4197.9358            9 
   81600    1.0511165   -6.1552462    4207.5457           10 
   81700    1.0566037   -6.1430432    4213.3312            7 
   81800    1.0643105   -6.1743863    4205.6493            5 
   81900    1.0417565    -6.161377    4201.3867            5 
   82000    1.0802398   -6.1962231    4195.5299            2 
   82100     1.063927   -6.2173371    4186.7432            2 
   82200     1.053964   -6.1930061    4196.1558            4 
   82300    1.0534475   -6.1762608    4202.0174            6 
   82400     1.075966   -6.2271486    4189.7205            7 
   82500     1.044641   -6.1942116    4188.5048            9 
   82600    1.0561105    -6.169175    4193.1283            2 
   82700     1.057643   -6.1613193    4191.6524            3 
   82800    1.0751184   -6.1687596    4190.5574            6 
   82900    1.0409965   -6.1630314    4190.4538            5 
   83000     1.071258   -6.1637586    4204.8692            5 
   83100    1.0781416   -6.1493885    4197.0821            5 
   83200    1.0715737   -6.1872826    4181.9194            4 
   83300    1.0611965   -6.1725715    4185.1751            5 
   83400    1.0645364   -6.1617762    4198.7306            5 
   83500    1.0597405   -6.2056249      4184.64            4 
   83600    1.0255947   -6.1793567    4183.1168            3 
   83700    1.0639117   -6.1768827    4188.2486            6 
   83800    1.0763248   -6.1528827    4197.4147            4 
   83900    1.0675959   -6.1662855    4187.6027            4 
   84000    1.0620016   -6.1731951    4184.5709            5 
   84100    1.0680939   -6.1690555    4203.5326           11 
   84200    1.0586023   -6.1499157    4210.4013            3 
   84300    1.0498408   -6.1959751    4209.0959            5 
   84400     1.050081   -6.1739149    4212.2319            5 
   84500    1.0547449   -6.1318505    4221.0662            2 
   84600    1.0663635    -6.172672    4208.0497            6 
   84700    1.0554337   -6.1811727     4203.508           11 
   84800    1.0818445   -6.1775194    4206.6371            5 
   84900    1.0740479    -6.178981    4209.2091            6 
   85000    1.0522828     -6.19586    4190.3367            5 
   85100    1.0498116   -6.1979086    4183.4422            4 
   85200    1.0652129   -6.1724256    4206.0254            5 
   85300     1.072418   -6.1676125    4204.3129            3 
   85400    1.0548653   -6.1613247    4196.7958           10 
   85500    1.0742227   -6.1547209    4217.5887            5 
   85600    1.0559198   -6.1785049    4208.6429            8 
   85700      1.06058   -6.1753852    4200.4582            8 
   85800    1.0445549   -6.2016266    4189.9467           10 
   85900    1.0589293   -6.1889988    4204.3078            9 
   86000    1.0570253   -6.1571349    4201.4797            6 
   86100    1.0552862   -6.2003613    4189.1361            5 
   86200    1.0461828   -6.1883428    4192.1435           11 
   86300    1.0544793   -6.1782659    4202.4887            5 
   86400    1.0840271   -6.1741729    4211.9588            6 
   86500    1.0362466   -6.1481047    4210.5051            6 
   86600    1.0718144    -6.157845    4208.0165            3 
   86700    1.0504887   -6.1442165    4197.8817            5 
   86800    1.0290574   -6.1627276    4182.0687            8 
   86900    1.0652685   -6.1778407    4201.5541            7 
   87000    1.0547649   -6.1400781    4215.3417            6 
   87100    1.0384801   -6.1648026    4215.2153            5 
   87200    1.0694385   -6.1743654    4202.1339            7 
   87300    1.0264772   -6.1642123    4189.4713            6 
   87400    1.0798901   -6.1876587    4190.6401            2 
   87500    1.0743629   -6.1593554    4199.3339            8 
   87600    1.0665565   -6.1157588    4210.7959            5 
   87700    1.0484481   -6.1375876    4216.4138            4 
   87800    1.0560255   -6.1733248    4205.5877            7 
   87900       1.0607   -6.1671837    4202.6587            5 
   88000    1.0636934   -6.1660373    4192.7463            7 
   88100    1.0724148   -6.1559403    4188.6981            6 
   88200    1.0661089   -6.1482465    4198.3423            8 
   88300    1.0474924   -6.1435779     4196.755           10 
   88400    1.0827255   -6.1605761    4198.9387            6 
   88500    1.0796689   -6.1459214    4195.7974            9 
   88600    1.0611361   -6.1759413    4178.8309            4 
   88700    1.0537754   -6.1481682    4180.0355            8 
   88800    1.0450896   -6.1243094    4209.0883            5 
   88900    1.0654417   -6.1251606    4204.4194            5 
   89000    1.0572696   -6.1533088    4206.0074            8 
   89100     1.067204   -6.1572439    4211.2187            5 
   89200    1.0572434    -6.168283    4206.5548            2 
   89300    1.0622582   -6.1775261    4208.7786            4 
   89400    1.0681158   -6.1626486    4210.6315            3 
   89500    1.0565582   -6.1550011     4210.523            5 
   89600    1.0409564   -6.1626671    4197.4295            4 
   89700    1.0743671   -6.1588005    4192.3476            4 
   89800    1.0650017   -6.1482099    4183.8725            5 
   89900    1.0437159    -6.150109     4181.383            8 
   90000    1.0462991   -6.1559429    4194.4398            6 
   90100    1.0748191   -6.1543859    4201.8786            7 
   90200    1.0608753   -6.1766697    4195.6206            4 
   90300    1.0442547   -6.1766133    4205.4419            7 
   90400    1.0685509   -6.1658496     4209.084            7 
   90500    1.0475696   -6.1905044    4194.1008            5 
   90600    1.0598155   -6.1729821     4191.789            5 
   90700    1.0778227   -6.1492339    4194.6169            5 
   90800    1.0615986   -6.1820969    4182.6484           11 
   90900     1.073212   -6.1865633    4191.8013            3 
   91000    1.0711796   -6.1523706    4203.6577            7 
   91100    1.0438659    -6.138284    4202.1239            5 
   91200    1.0617454   -6.1626586     4204.058            4 
   91300    1.0474097   -6.1777312    4218.5132            5 
   91400    1.0351483    -6.197545    4211.0398            7 
   91500    1.0621452   -6.1804731    4209.9187            7 
   91600    1.0846782   -6.1855502    4197.6637            3 
   91700    1.0538962   -6.1765411    4200.6096            2 
   91800    1.0310976   -6.1274155      4200.53            2 
   91900    1.0748984   -6.1400712    4198.8007            6 
   92000    1.0606714   -6.1581921    4187.7395            4 
   92100    1.0284106   -6.1620036    4182.2383            4 
   92200    1.0811314   -6.1870286    4201.2659            6 
   92300     1.049527   -6.1839041    4204.4094            8 
   92400    1.0464746   -6.1731086    4196.8957           11 
   92500    1.0374219   -6.1916845    4181.5911            9 
   92600    1.0840545   -6.2035528     4185.091            6 
   92700    1.0856422   -6.1935431    4192.1469            5 
   92800    1.0356964   -6.1604615    4206.3129            3 
   92900    1.0569739   -6.1421515    4215.5471            8 
   93000    1.0459985    -6.143399    4207.1246            7 
   93100    1.0557852    -6.180172    4201.3795            2 
   93200    1.0442953   -6.1122364     4209.395            3 
   93300    1.0581124   -6.1563764    4210.5711            3 
   93400    1.0433856   -6.1479252    4208.2647            3 
   93500    1.0606872   -6.1423241     4223.299            9 
   93600    1.0673236    -6.114895    4219.3964           10 
   93700     1.060752   -6.1537867    4194.4746            4 
   93800    1.0832786   -6.1760223      4188.96            3 
   93900    1.0501524   -6.1889129    4180.4923            4 
   94000    1.0661243    -6.176515     4190.307            4 
   94100    1.0577083   -6.1479813    4192.3473            3 
   94200    1.0730068   -6.1515672    4208.0257            6 
   94300    1.0776547   -6.1430257    4209.5874            4 
   94400    1.0581358   -6.1576504    4185.4727            2 
   94500    1.0734331   -6.1835919     4182.322            9 
   94600    1.0555297   -6.2070661    4181.8985            9 
   94700    1.0561076   -6.1764187    4188.3529            3 
   94800    1.0660571   -6.1637385    4201.3399            7 
   94900    1.0473482   -6.1417092    4204.5022           14 
   95000    1.0652453   -6.1792206    4206.3996            7 
   95100    1.0580362   -6.1684441    4202.6063            4 
   95200    1.0403483   -6.1618396    4193.9866            5 
   95300    1.0703676   -6.1682091    4203.4839            4 
   95400    1.0614943   -6.1819112    4196.7255            6 
   95500    1.0500149    -6.194306    4195.4798            4 
   95600    1.0494131   -6.1858083    4197.1172            8 
   95700     1.073693   -6.1743486    4202.6349            6 
   95800    1.0667632   -6.1525638    4199.0139            4 
   95900     1.066868   -6.1877325    4177.5179            6 
   96000    1.0747424   -6.1636304    4180.4008            4 
   96100    1.0584527   -6.1552541    4180.3022            5 
   96200    1.0353544   -6.1913556    4183.8409            3 
   96300     1.076704   -6.1975996     4206.134            2 
   96400    1.0398496   -6.1761858    4205.7194            8 
   96500    1.0628138   -6.1860442    4206.2871            8 
   96600    1.0645985     -6.15639    4215.6555            7 
   96700    1.0848235   -6.1274215    4213.2192            3 
   96800    1.0924398   -6.1682692    4197.5191            5 
   96900    1.0630968   -6.1586638    4190.0384            4 
   97000     1.053639   -6.1882499    4196.2672            9 
   97100    1.0637218   -6.1540256    4213.1596            5 
   97200    1.0517319   -6.1352485    4212.8659            6 
   97300    1.0616118   -6.1716059    4197.8858            4 
   97400    1.0667915   -6.1811906    4186.2449            8 
   97500     1.052778   -6.1628565    4187.0532            6 
   97600    1.0785607   -6.1586646    4192.4853           10 
   97700    1.0615073   -6.1864008    4171.7119            6 
   97800    1.0636241   -6.2141553    4175.2823            5 
   97900    1.0886144   -6.2126074    4189.9483            3 
   98000    1.0418632   -6.1633828     4213.064            4 
   98100    1.0436397   -6.1464001     4221.554            2 
   98200    1.0611178   -6.1398228    4227.7445            3 
   98300    1.0607226   -6.1862478     4203.633            2 
   98400    1.0626202   -6.1501879    4201.2297            7 
   98500    1.0792271   -6.1469741    4204.1666            3 
   98600    1.0360724   -6.1353019    4203.2756            2 
   98700    1.0422391   -6.1608723    4208.6966            5 
   98800    1.0742772    -6.159175    4217.5354            3 
   98900    1.0624387   -6.1722989    4207.9422            4 
   99000    1.0644939   -6.1867751    4188.8394            5 
   99100    1.0593224   -6.1701034    4190.6393            7 
   99200     1.078355   -6.1564421     4203.659            3 
   99300    1.0433118    -6.141073    4204.3512            4 
   99400    1.0422649   -6.1608411    4208.4225            3 
   99500    1.0628423   -6.1962728    4191.6514            3 
   99600    1.0540176   -6.1590033    4195.2594            4 
   99700    1.0652156   -6.1215298    4199.9378            4 
   99800    1.0524339   -6.1406008    4205.0685            3 
   99900    1.0743952   -6.1228753    4209.7625            3 
  100000    1.0693688   -6.1486146    4196.4781            3 
  100100    1.0689433   -6.1663393     4185.318            8 
  100200    1.0346274   -6.1546948    4187.0209            3 
  100300    1.0756909   -6.1755831    4179.4115            5 
  100400    1.0668223   -6.1672219    4182.7061            4 
  100500    1.0726792   -6.1753463    4191.7835            5 
  100600    1.0780612   -6.1859559    4186.3974            3 
  100700    1.0489016   -6.1828027    4185.7323            6 
  100800     1.066656   -6.1591526    4212.2537            6 
  100900    1.0614945   -6.1346773    4214.0843            6 
  101000    1.0511065   -6.1747701    4205.6448            6 
  101100    1.0471657   -6.1671722    4209.3982            4 
  101200    1.0380244   -6.1586182    4215.0666           11 
  101300    1.0722035   -6.1851488    4206.1995            4 
  101400    1.0452328   -6.2020972    4197.3126            3 
  101500    1.0436824   -6.1525949    4211.6589            4 
  101600    1.0800509    -6.173049    4199.8655            7 
  101700    1.0821529   -6.1921362    4179.2443           10 
  101800    1.0705489   -6.2030984    4187.7881            3 
  101900    1.0532732   -6.1919674    4196.2858            5 
  102000    1.0689151   -6.1727809    4198.9453            4 
  102100    1.0458231   -6.1839275    4183.5661            6 
  102200    1.0537774   -6.1554739      4185.45            3 
  102300    1.0540214   -6.1286276    4209.7387            4 
  102400    1.0526262   -6.1214935    4197.4193            1 
  102500     1.074104   -6.1521443    4186.4146            5 
  102600    1.0565353   -6.1725213    4177.2369            4 
  102700    1.0715005   -6.1544272     4182.796            5 
  102800    1.0720804   -6.1803225    4195.3991            2 
  102900    1.0572901   -6.2015486    4196.3666            3 
  103000    1.0545912   -6.1959356    4207.7068            9 
  103100    1.0541885   -6.1598314    4220.1665            5 
  103200      1.09182   -6.1272859     4222.681            4 
  103300    1.0664195    -6.150029    4209.2704            7 
  103400    1.0651372   -6.1794423    4208.0694            5 
  103500    1.0808257   -6.1608789    4214.2035            6 
  103600    1.0540398   -6.1362991    4205.5946            5 
  103700    1.0499665   -6.1621598    4211.4498            6 
  103800    1.0443353   -6.1499872    4204.3388            3 
  103900    1.0502169   -6.1701465    4194.9156            4 
  104000    1.0572816   -6.2103316    4187.2079            2 
Loop time of 171.552 on 24 procs for 100000 steps with 4000 atoms

Performance: 100727.768 tau/day, 582.915 timesteps/s
99.7% CPU use with 24 MPI tasks x no OpenMP threads

MPI task timing breakdown:
Section |  min time  |  avg time  |  max time  |%varavg| %total
---------------------------------------------------------------
Pair    | 20.064     | 20.546     | 21.106     |   6.6 | 11.98
Neigh   | 2.607      | 2.6398     | 2.6992     |   1.3 |  1.54
Comm    | 8.6845     | 9.5761     | 10.793     |  17.2 |  5.58
Output  | 4.4122     | 4.4136     | 4.4285     |   0.2 |  2.57
Modify  | 131.4      | 132.34     | 133.24     |   5.7 | 77.14
Other   |            | 2.033      |            |       |  1.18

Nlocal:        166.667 ave         174 max         159 min
Histogram: 1 0 5 2 5 1 3 2 4 1
Nghost:        2091.88 ave        2112 max        2068 min
Histogram: 1 2 1 3 3 3 3 5 2 1
Neighs:        18206.0 ave       19101 max       17386 min
Histogram: 2 3 2 3 3 3 2 3 2 1
FullNghs:      36409.8 ave       37937 max       34811 min
Histogram: 1 3 4 2 3 2 2 1 3 3

Total # of neighbors = 873835
Ave neighs/atom = 218.45875
Neighbor list builds = 6140
Dangerous builds = 0

#clear
#
#next RN
#
#jump SELF
Total wall time: 0:02:52
