
units lj                  # Use reduced LJ style units
atom_style atomic         # Uncharged point particles
atom_modify map hash      # Needed for indexing of clusters etc
                          # Used to be able to find where atoms are in relation to each other.

# Define a lattice with which to populate the simulation cell. With units
# set to 'lj' the second argument to the lattice command is the reduced
# density rho* and the spacings are multiples of that required to acheive
# that density. Also define a simulation cell called 'box' in lattice units
# and fill it with atoms. Here we're creating a box which is ten lattice
# constants in each direction.
lattice fcc 1.0 spacing 1 1 1                 # All equal sizes - gives the right reduced density.
Lattice spacing in x,y,z = 1.5874011 1.5874011 1.5874011

region box block 0 10 0 10 0 10 units lattice # Defines a region, "box", in lattice units
create_box 1 box                              # Creates a simulation box as specified above,
Created orthogonal box = (0.0000000 0.0000000 0.0000000) to (15.874011 15.874011 15.874011)
  2 by 4 by 4 MPI processor grid
                                              # with one type of atom
create_atoms 1 box                            # Creates particles on lattice points
Created 4000 atoms
  using lattice units in orthogonal box = (0.0000000 0.0000000 0.0000000) to (15.874011 15.874011 15.874011)
  create_atoms CPU = 0.001 seconds


# Set the mass of the first (and only) atom type.
mass 1 1.0

# Lennard-Jones interactions between particles, 3.5 sigma cut-off. Apply
# long range tail corrections to energy and pressure and set all coefficients
# to unity since we work in reduced units here. Note that this doesn't shift
# the potential such that it goes to zero at the cutoff. That would require
# pair_modify('shift', 'yes').
pair_style lj/cut  3.5      # non-GPU version
pair_modify tail  yes
pair_coeff 1  1  1.0  1.0   # Intearaction between 1 and 1 set with epsilon = 1 and sigma = 1

write_data data.*
System init for write_data ...
Neighbor list info ...
  update every 1 steps, delay 10 steps, check yes
  max neighbors/atom: 2000, page size: 100000
  master list distance cutoff = 3.8
  ghost atom cutoff = 3.8
  binsize = 1.9, bins = 9 9 9
  1 neighbor lists, perpetual/occasional/extra = 1 0 0
  (1) pair lj/cut, perpetual
      attributes: half, newton on
      pair build: half/bin/atomonly/newton
      stencil: half/bin/3d
      bin: standard

#############################
#   M E L T   S Y S T E M   #
#############################

velocity all create 2.4 6583654 mom yes dist gaussian # Assign velocities
                                                    # Temperature 2.4, random number seed, zero linear momentum
						                                                        # Gaussian distribution

timestep 0.002   # simulation timestep
thermo 100       # output thermodynamic data every 100 steps

# Define a fix  in this case with index 1 applied to all
# particles in the simulation. This fix is for simulations
# in the anisotropic NPT ensemble. Note that we use the MTK
# correction.
fix 1 all npt temp 2.4 2.4 0.1 iso 5.68 5.68 0.5 mtk yes tchain 5 pchain 5 # Use NPT ensemble
                                                                         # Set temperature and pressure and damping
                                                                         # Numbers of thermostats in chain and in barostat
run 1000         # run for 10000 steps
Per MPI rank memory allocation (min/avg/max) = 3.660 | 3.660 | 3.660 Mbytes
Step Temp E_pair E_mol TotEng Press Volume 
       0          2.4   -8.3859253            0   -4.7868253   -2.2405722         4000 
     100    1.2691967   -6.5422289            0   -4.6389098    5.3378653    4090.7551 
     200    1.4787625   -6.3158233            0   -4.0982341    6.0374862    4137.2558 
     300    1.5708342   -6.0123056            0   -3.6566434    5.8269752    4273.6084 
     400    1.6935755   -5.7191311            0    -3.179403    5.9540602    4395.1747 
     500    1.7875886   -5.4095267            0   -2.7288141    6.0322401    4536.9038 
     600    1.8873111   -5.1521313            0   -2.3218724    5.7297832     4702.884 
     700    2.0258918   -4.9144312            0   -1.8763532    5.9082203    4824.8495 
     800    2.1522544   -4.7292823            0   -1.5017078    5.7781683    4963.9277 
     900     2.239714   -4.5446635            0   -1.1859323    5.7477122    5090.6319 
    1000    2.3765823   -4.4738755            0  -0.90989327    5.6796077     5154.488 
Loop time of 0.258818 on 32 procs for 1000 steps with 4000 atoms

Performance: 667650.936 tau/day, 3863.721 timesteps/s
99.4% CPU use with 32 MPI tasks x no OpenMP threads

MPI task timing breakdown:
Section |  min time  |  avg time  |  max time  |%varavg| %total
---------------------------------------------------------------
Pair    | 0.13604    | 0.14003    | 0.14593    |   0.6 | 54.10
Neigh   | 0.025811   | 0.026586   | 0.027589   |   0.2 | 10.27
Comm    | 0.061856   | 0.069626   | 0.073547   |   1.1 | 26.90
Output  | 0.00019437 | 0.00020002 | 0.00026905 |   0.0 |  0.08
Modify  | 0.018842   | 0.020428   | 0.022155   |   0.7 |  7.89
Other   |            | 0.001949   |            |       |  0.75

Nlocal:        125.000 ave         138 max         116 min
Histogram: 1 2 6 7 6 8 0 1 0 1
Nghost:        1666.91 ave        1703 max        1646 min
Histogram: 3 5 7 4 5 4 1 0 2 1
Neighs:        11088.0 ave       12468 max       10095 min
Histogram: 1 2 5 8 9 2 2 1 1 1

Total # of neighbors = 354817
Ave neighs/atom = 88.704250
Neighbor list builds = 86
Dangerous builds = 20

# Equilibrate just above the melting temperature to avoid step fn in T

fix 1 all npt temp 1.25 1.25 0.1 iso 5.68 5.68 0.5 mtk yes tchain 5 pchain 5
run 1000
Per MPI rank memory allocation (min/avg/max) = 3.661 | 3.661 | 3.661 Mbytes
Step Temp E_pair E_mol TotEng Press Volume 
    1000    2.3765823   -4.4738755            0  -0.90989327    5.6796077     5154.488 
    1100    1.9625951   -4.6989107            0   -1.7557541    5.6812496    4983.8841 
    1200    1.7289901   -4.9599136            0   -2.3670769    5.8142104    4790.1519 
    1300    1.5792657   -5.2249024            0   -2.8565961    5.6289859    4660.4039 
    1400    1.4517319   -5.4215948            0   -3.2445414    5.5197346    4561.4045 
    1500     1.364265   -5.5680033            0   -3.5221174    5.5958139    4483.3542 
    1600    1.3084699   -5.6759595            0   -3.7137453    5.6057769    4426.4503 
    1700    1.2550401   -5.7394736            0   -3.8573841    5.7381181    4381.4433 
    1800    1.2507956   -5.8140506            0   -3.9383263    5.7576039    4349.7766 
    1900    1.2205858   -5.8218536            0   -3.9914327    5.7234503    4347.2659 
    2000    1.2599896   -5.8219529            0    -3.932441    5.7139167    4350.4536 
Loop time of 0.249906 on 32 procs for 1000 steps with 4000 atoms

Performance: 691460.317 tau/day, 4001.506 timesteps/s
99.7% CPU use with 32 MPI tasks x no OpenMP threads

MPI task timing breakdown:
Section |  min time  |  avg time  |  max time  |%varavg| %total
---------------------------------------------------------------
Pair    | 0.13463    | 0.13836    | 0.1446     |   0.7 | 55.36
Neigh   | 0.022622   | 0.023158   | 0.024179   |   0.2 |  9.27
Comm    | 0.057859   | 0.066735   | 0.071122   |   1.3 | 26.70
Output  | 0.00019747 | 0.00020208 | 0.00025161 |   0.0 |  0.08
Modify  | 0.01711    | 0.019201   | 0.021745   |   0.9 |  7.68
Other   |            | 0.00225    |            |       |  0.90

Nlocal:        125.000 ave         130 max         115 min
Histogram: 1 0 0 2 4 3 6 7 4 5
Nghost:        1853.16 ave        1868 max        1832 min
Histogram: 1 0 2 6 2 5 3 6 3 4
Neighs:        13129.4 ave       13744 max       12058 min
Histogram: 1 0 2 3 3 2 5 8 5 3

Total # of neighbors = 420140
Ave neighs/atom = 105.03500
Neighbor list builds = 75
Dangerous builds = 9


# Small amount of linear quench

fix 1 all npt temp 1.25 ${temp} 0.1 iso 5.68 5.68 0.5 mtk yes tchain 5 pchain 5
fix 1 all npt temp 1.25 2.28 0.1 iso 5.68 5.68 0.5 mtk yes tchain 5 pchain 5
run 2000
Per MPI rank memory allocation (min/avg/max) = 3.661 | 3.662 | 3.662 Mbytes
Step Temp E_pair E_mol TotEng Press Volume 
    2000    1.2599896   -5.8219529            0    -3.932441    5.7139167    4350.4536 
    2100    1.2980387   -5.8282812            0     -3.88171    5.7429293    4347.0056 
    2200    1.2937995   -5.7494975            0   -3.8092834    5.7271348    4378.3181 
    2300    1.3699598   -5.7343892            0   -3.6799632    5.6890069    4395.4766 
    2400    1.3968898   -5.6583699            0   -3.5635591    5.6347444    4437.4322 
    2500    1.4670037   -5.6313907            0   -3.4314352    5.5075107    4465.2599 
    2600    1.4940586   -5.5401125            0   -3.2995849    5.4851253    4512.1148 
    2700    1.5422194   -5.4687115            0   -3.1559607    5.5469664    4543.1107 
    2800    1.5831216   -5.3717861            0   -2.9976973    5.6432688    4583.6894 
    2900    1.6216043   -5.2598542            0   -2.8280559    5.7988923    4625.1961 
    3000    1.6793605   -5.1876944            0   -2.6692834    5.8172279    4667.5864 
    3100    1.7853828    -5.150511            0   -2.4731062    5.8313251    4690.4482 
    3200    1.8019374   -5.0750576            0   -2.3728273    5.7314614    4748.9407 
    3300     1.851653   -4.9936714            0   -2.2168862    5.6055058    4806.5464 
    3400    1.9055191   -4.9391503            0   -2.0815862    5.4208517      4863.49 
    3500      1.95171   -4.8842573            0   -1.9574242    5.4050559    4902.5334 
    3600    2.0355152   -4.7941279            0   -1.7416183    5.7915303    4910.5256 
    3700    2.1046858   -4.7455484            0    -1.589309    5.7921403     4948.894 
    3800    2.1123728   -4.6458539            0   -1.4780868    5.8036037    5009.0881 
    3900    2.1736308   -4.5959833            0   -1.3363521    5.7330059     5055.213 
    4000     2.227046   -4.5319291            0   -1.1921952    5.7417388    5096.7364 
Loop time of 0.498172 on 32 procs for 2000 steps with 4000 atoms

Performance: 693735.772 tau/day, 4014.675 timesteps/s
99.8% CPU use with 32 MPI tasks x no OpenMP threads

MPI task timing breakdown:
Section |  min time  |  avg time  |  max time  |%varavg| %total
---------------------------------------------------------------
Pair    | 0.26296    | 0.2701     | 0.2757     |   0.6 | 54.22
Neigh   | 0.046352   | 0.047736   | 0.048742   |   0.2 |  9.58
Comm    | 0.13019    | 0.13517    | 0.14362    |   1.1 | 27.13
Output  | 0.00038615 | 0.00039625 | 0.00050393 |   0.0 |  0.08
Modify  | 0.036214   | 0.040443   | 0.043801   |   1.2 |  8.12
Other   |            | 0.004326   |            |       |  0.87

Nlocal:        125.000 ave         133 max         113 min
Histogram: 1 1 0 0 7 6 5 3 6 3
Nghost:        1680.56 ave        1710 max        1656 min
Histogram: 2 2 9 2 4 2 4 5 0 2
Neighs:        11203.3 ave       12124 max        9516 min
Histogram: 1 1 0 2 2 6 6 4 7 3

Total # of neighbors = 358507
Ave neighs/atom = 89.626750
Neighbor list builds = 157
Dangerous builds = 6

#############################
# F R E E Z E  S Y S T E M  #
#############################

# Define solid atoms. This closely follows ten Wolde  Ruiz-Montero and Frenkel  Faraday Discuss  1996  104  93-110
# Compute components of the per-atom q6 vector
compute q6 all orientorder/atom degrees 1 6 components 6 nnn NULL cutoff 1.3 # compute the Q6 parameter.
                                                                             # Use all neighbours within 1.3 unit cell.

# get number of connections
compute coord_number all coord/atom orientorder q6 0.5

# An atom is solid if it has 8 or more connections (of a possible 14)
variable is_solid atom c_coord_number>=8
group solid dynamic all var is_solid    # Must be dynamic to update
dynamic group solid defined

# do clustering
compute cluster solid cluster/atom 1.3 # Create a cluster where all atoms within are solid and max 1.3 units from another member

# define chunks one chunk per cluster
compute clus_chunks solid chunk/atom c_cluster nchunk every compress yes  # Says which atoms are in which chunk

# count the size of each chunk
compute size_chunks solid property/chunk clus_chunks count


# Find the maximum entry in the vector of chunk sizes
variable max_n equal max(c_size_chunks)


# Thermo style which includes this variable
thermo_style custom step temp pe vol v_max_n

thermo ${N}  # Print the thermo information every 100 steps
thermo 100  

# Reset the npt fix at a lower temperature (below freezing)
fix 1  all npt temp  ${temp} ${temp}  0.1  iso  5.68  5.68  0.5  mtk yes tchain  5  pchain  5
fix 1  all npt temp  2.28 ${temp}  0.1  iso  5.68  5.68  0.5  mtk yes tchain  5  pchain  5
fix 1  all npt temp  2.28 2.28  0.1  iso  5.68  5.68  0.5  mtk yes tchain  5  pchain  5

dump dmp2 all dcd ${N} traj_${rand}.dcd
dump dmp2 all dcd 100 traj_${rand}.dcd
dump dmp2 all dcd 100 traj_462431.dcd


# fix rnuntil all halt ${N} v_max_n >= 3980 error soft message no   # Stop when solidified


run 100000 # 5000000  # Run for this many steps
Neighbor list info ...
  update every 1 steps, delay 10 steps, check yes
  max neighbors/atom: 2000, page size: 100000
  master list distance cutoff = 3.8
  ghost atom cutoff = 3.8
  binsize = 1.9, bins = 10 10 10
  4 neighbor lists, perpetual/occasional/extra = 1 3 0
  (1) pair lj/cut, perpetual
      attributes: half, newton on
      pair build: half/bin/atomonly/newton
      stencil: half/bin/3d
      bin: standard
  (2) compute orientorder/atom, occasional
      attributes: full, newton on
      pair build: full/bin/atomonly
      stencil: full/bin/3d
      bin: standard
  (3) compute coord/atom, occasional
      attributes: full, newton on
      pair build: full/bin/atomonly
      stencil: full/bin/3d
      bin: standard
  (4) compute cluster/atom, occasional
      attributes: full, newton on
      pair build: full/bin/atomonly
      stencil: full/bin/3d
      bin: standard
Per MPI rank memory allocation (min/avg/max) = 9.384 | 9.390 | 9.395 Mbytes
Step Temp PotEng Volume v_max_n 
    4000     2.227046   -4.5319291    5096.7364            1 
    4100    2.2869614   -4.5132499    5120.6914            1 
    4200    2.3126587   -4.5291212    5136.0798       -1e+20 
    4300    2.2410269   -4.4840825    5128.2713       -1e+20 
    4400    2.2568251   -4.4988783     5075.225       -1e+20 
    4500    2.2728599    -4.473516    5147.8404            1 
    4600    2.2723788   -4.4830808     5141.923            2 
    4700    2.2943259   -4.4182036    5130.8999       -1e+20 
    4800    2.2624019    -4.494565    5177.6361            1 
    4900    2.3141678    -4.462621    5137.4966            1 
    5000    2.2881645   -4.5357377    5135.0081            1 
    5100    2.2565538   -4.4976002    5114.3359       -1e+20 
    5200    2.3261098   -4.4783449    5121.1397       -1e+20 
    5300    2.3026745   -4.5558802    5166.2149            1 
    5400    2.2796061    -4.492441    5139.9723            1 
    5500    2.2937998   -4.4702007    5151.2377       -1e+20 
    5600    2.2828612    -4.464698    5145.5162       -1e+20 
    5700    2.2811817   -4.5090169    5126.1778            1 
    5800    2.3088681   -4.4948983    5155.0926       -1e+20 
    5900    2.3048037   -4.5250076    5130.8548       -1e+20 
    6000    2.2582015   -4.5151281    5109.2265            2 
    6100    2.2927189   -4.4637713    5132.0133            1 
    6200    2.2708002   -4.4888567    5146.4185       -1e+20 
    6300    2.3041724   -4.4698788    5136.2347            1 
    6400    2.2786264   -4.5002459     5153.924       -1e+20 
    6500      2.24581   -4.4878053    5152.2159            1 
    6600    2.2998186     -4.43097    5168.0294            1 
    6700    2.2698256   -4.4303037    5148.9259            1 
    6800    2.2601156   -4.4556637    5150.7098            1 
    6900    2.2732887    -4.519876     5111.266       -1e+20 
    7000    2.2124559     -4.42823    5102.0802            1 
    7100    2.2726866    -4.461593    5153.9938       -1e+20 
    7200    2.2577434   -4.4873485    5144.3281            1 
    7300      2.27086   -4.4327553    5130.5755       -1e+20 
    7400    2.2849724   -4.5069743    5149.6791            1 
    7500    2.2445577   -4.5404981    5111.9759       -1e+20 
    7600    2.2869875   -4.4679112    5107.6155            1 
    7700    2.2838501   -4.4656734    5166.9002            1 
    7800    2.2241463   -4.5182158     5151.733            1 
    7900    2.3069319   -4.5007755    5083.6758            1 
    8000     2.294914   -4.5234032    5143.3748            1 
    8100    2.2771904   -4.4875099     5151.454            1 
    8200    2.2956384    -4.509441    5116.8109            1 
    8300    2.2998198   -4.4849999    5163.0069       -1e+20 
    8400    2.2547283   -4.4897132    5111.7617            1 
    8500    2.2725034   -4.4919052    5138.4779       -1e+20 
    8600    2.2345414    -4.445856    5134.2749            1 
    8700    2.2904725   -4.4981939    5114.0691       -1e+20 
    8800    2.2407016    -4.476898    5162.8846       -1e+20 
    8900    2.3536027   -4.5098499    5094.0679            2 
    9000    2.2285793   -4.5056153    5135.6222            1 
    9100    2.2789151    -4.456577    5138.5244            1 
    9200    2.3089983   -4.4967269    5139.4826            1 
    9300    2.2573284   -4.5185816     5110.858       -1e+20 
    9400    2.2899344   -4.4729881    5131.9764       -1e+20 
    9500    2.2571188   -4.4716223    5117.1856       -1e+20 
    9600    2.2299426   -4.5325114    5073.9305            1 
    9700    2.2513417   -4.5124487    5118.2115       -1e+20 
    9800    2.3140865   -4.5225679    5162.5507            1 
    9900    2.2656522    -4.484703    5161.4553       -1e+20 
   10000    2.3508344   -4.4943368    5089.6392            2 
   10100    2.2160184    -4.504733    5141.0892       -1e+20 
   10200    2.2956296   -4.4958275    5145.9358            1 
   10300    2.3026746   -4.4155198    5162.1637            1 
   10400    2.2388526   -4.4435004    5185.8357            1 
   10500    2.3021189   -4.4843739    5124.4076            1 
   10600    2.2448121   -4.5013346    5122.7965       -1e+20 
   10700    2.2547439   -4.4706843     5130.643            1 
   10800    2.3174986   -4.5086482    5126.5811       -1e+20 
   10900    2.2695374   -4.5503768     5116.128       -1e+20 
   11000     2.277597   -4.5327314    5134.1138            1 
   11100    2.2880388   -4.4734614    5131.9917       -1e+20 
   11200    2.3286347   -4.4610658    5164.9834            1 
   11300    2.2934692    -4.491196    5176.3137       -1e+20 
   11400    2.2857112   -4.5081222    5138.8993            1 
   11500    2.3034928   -4.4359281    5153.9837            1 
   11600    2.2842538   -4.5056816     5146.033       -1e+20 
   11700    2.2873922   -4.4762739     5119.372            1 
   11800    2.2685946   -4.5110911    5152.6229       -1e+20 
   11900    2.3076495   -4.4591688    5154.3692       -1e+20 
   12000    2.3061805   -4.4502304    5152.0632            1 
   12100    2.2365957    -4.455822    5166.2882            1 
   12200    2.2794599   -4.5159335    5089.6309            1 
   12300    2.3140299   -4.5530423    5119.1298            1 
   12400    2.2832201   -4.5413998    5140.4218            2 
   12500    2.2747172   -4.5302325    5100.8291            1 
   12600    2.2875071   -4.5222413    5136.7162            1 
   12700    2.2696769   -4.4420938     5134.184       -1e+20 
   12800    2.3130751   -4.4691695    5181.2082       -1e+20 
   12900    2.2906806   -4.4760812    5148.2977            1 
   13000    2.2976848   -4.4896441     5143.241       -1e+20 
   13100    2.2907437   -4.4407732    5168.7563            1 
   13200     2.292493   -4.4912473    5141.1044            1 
   13300    2.2405516   -4.4788132    5117.3194            1 
   13400    2.2796932   -4.4999003      5146.78            1 
   13500    2.2744582   -4.4690543     5163.279            1 
   13600    2.3381718   -4.4530112    5152.4584            1 
   13700    2.2659757   -4.4721577    5133.2431            1 
   13800    2.2800475   -4.4722745    5146.5557            1 
   13900    2.2914265   -4.4303727    5197.8233       -1e+20 
   14000    2.2994599    -4.474642    5148.9129       -1e+20 
   14100    2.2671455   -4.4862174    5143.1522            2 
   14200    2.2977893   -4.4963152       5118.6       -1e+20 
   14300    2.2367882    -4.492589    5113.5476            1 
   14400    2.2793632   -4.4715641    5159.9661            1 
   14500    2.2986847   -4.4270485    5151.9201       -1e+20 
   14600    2.2694516   -4.5159425    5136.3211       -1e+20 
   14700    2.2624485   -4.4895061    5150.1673            1 
   14800    2.3204813   -4.4651543    5124.1848       -1e+20 
   14900    2.2411386   -4.4753443    5137.7704            2 
   15000    2.2890509   -4.5226571    5143.5167            1 
   15100    2.3192889   -4.4230057    5137.3933            1 
   15200    2.2870171    -4.495123    5175.0405            2 
   15300    2.2710035    -4.531264    5143.4978       -1e+20 
   15400    2.2892098   -4.5002983    5099.6967            1 
   15500    2.2592041   -4.4725256    5157.3713            1 
   15600    2.2984352   -4.4548916    5181.6452       -1e+20 
   15700     2.238344   -4.4653299    5140.7967            1 
   15800    2.2710551   -4.4768701    5137.8977            1 
   15900    2.2905403   -4.5084772     5132.197            1 
   16000    2.2743362    -4.505919    5130.8242       -1e+20 
   16100     2.309167   -4.4886641    5152.5378            1 
   16200    2.2615132   -4.4635565    5151.3916       -1e+20 
   16300    2.3165476   -4.4615724    5152.3053       -1e+20 
   16400    2.2513841   -4.4781878    5130.4564            1 
   16500     2.295985   -4.4722568    5147.0048            1 
   16600    2.3191744   -4.4393686    5176.4884            1 
   16700    2.3000864   -4.4621005    5167.0258       -1e+20 
   16800    2.2997429   -4.5441691    5116.1382            2 
   16900    2.2473185   -4.4697982    5133.7939            1 
   17000    2.2820413   -4.4605457    5141.6995       -1e+20 
   17100    2.2421606   -4.4836908    5130.3277       -1e+20 
   17200    2.2795493   -4.4528108    5122.4723            1 
   17300    2.3125974   -4.4986824    5152.4631            1 
   17400    2.2418605   -4.4924384    5108.6348            1 
   17500    2.2898562    -4.484199    5137.8693       -1e+20 
   17600    2.3012062   -4.4640031    5169.5332            1 
   17700    2.2878686   -4.4149276    5181.1226            1 
   17800    2.2995033   -4.4749211    5101.6963       -1e+20 
   17900     2.237097   -4.4962626     5141.865            1 
   18000    2.2847033     -4.49768    5124.9556       -1e+20 
   18100    2.2323989   -4.4110627      5133.44            1 
   18200    2.3110708   -4.4973631    5148.9823            1 
   18300     2.268477   -4.4982744    5102.7754       -1e+20 
   18400    2.2545514    -4.498926    5119.8712            1 
   18500    2.2635972   -4.4540513     5163.272            1 
   18600    2.2858898   -4.4742481    5163.3924       -1e+20 
   18700    2.2913842    -4.516365    5082.8051       -1e+20 
   18800    2.2488757   -4.5521854    5123.2015            1 
   18900    2.3020903   -4.5189229    5124.2112       -1e+20 
   19000    2.2959244   -4.4724759    5162.5998            2 
   19100    2.2722204   -4.4319076    5184.9984       -1e+20 
   19200    2.3025232   -4.5106432    5130.0557       -1e+20 
   19300    2.2426907   -4.4692133    5128.4469       -1e+20 
   19400    2.2922696   -4.4715449     5133.864            1 
   19500    2.2577489    -4.505503    5123.1269            1 
   19600    2.3193495   -4.4833992    5137.8766            1 
   19700    2.3120158   -4.4445677    5175.1819       -1e+20 
   19800    2.2680076   -4.4644029    5121.4331            1 
   19900    2.2661645   -4.5172222    5136.2462       -1e+20 
   20000    2.3157855   -4.4667517    5136.6865            1 
   20100    2.2559887   -4.4818208    5113.6165       -1e+20 
   20200    2.3170973   -4.5247128    5148.4979            1 
   20300     2.304897   -4.4891449    5174.9624            1 
   20400    2.2940418   -4.4233328    5137.9391            1 
   20500    2.2783726    -4.521243    5132.0175            1 
   20600    2.2467665   -4.5417778    5109.6989            1 
   20700    2.3116327   -4.4634449    5076.3436       -1e+20 
   20800     2.235136   -4.4737632    5165.2632       -1e+20 
   20900     2.296312   -4.4722133     5167.294            1 
   21000    2.2850528   -4.4634984     5147.181            1 
   21100    2.2340264   -4.4637148     5137.271            1 
   21200     2.315461   -4.4725767    5130.8304            1 
   21300    2.2173239   -4.4821529    5165.4809            1 
   21400    2.3656264   -4.5151923    5095.6864            1 
   21500    2.2243637   -4.5055042    5168.6599            2 
   21600    2.2910067   -4.4613379    5119.5481            1 
   21700     2.283025   -4.4341058    5150.6705            1 
   21800    2.2666586   -4.4543965     5189.369            1 
   21900    2.2522635   -4.4578003    5114.0441            1 
   22000    2.2662884   -4.5154433    5099.7584            1 
   22100     2.292122   -4.5283659    5133.3229            1 
   22200    2.2998819   -4.4652485    5131.4558       -1e+20 
   22300     2.277211   -4.4474474    5172.7442       -1e+20 
   22400    2.2688129   -4.4793901    5187.7521            1 
   22500    2.3056207   -4.4846057    5116.1123            1 
   22600    2.2329758   -4.4620855    5156.7018            2 
   22700     2.311849   -4.4491079    5158.1698       -1e+20 
   22800    2.2727469   -4.4536112    5163.8707            1 
   22900    2.2461214   -4.4890276    5104.8993       -1e+20 
   23000    2.2945757   -4.5124959    5115.4691            1 
   23100    2.2860493   -4.4902494    5156.2494            1 
   23200    2.3332948   -4.4536218    5156.1622            1 
   23300    2.2652212   -4.4771623    5155.3153            1 
   23400    2.2887739   -4.5229861    5095.6037            1 
   23500    2.2832533   -4.5668459    5122.9595       -1e+20 
   23600    2.2655222   -4.5018329    5117.3516            1 
   23700    2.3121279   -4.4572895    5150.8257       -1e+20 
   23800    2.2817278   -4.5046659    5149.2233            1 
   23900     2.317927   -4.4779832     5127.688       -1e+20 
   24000    2.2676953   -4.4799276    5177.4087            1 
   24100    2.3110933   -4.4634855    5147.6099            1 
   24200     2.266368   -4.4808748    5143.4729       -1e+20 
   24300    2.2695299   -4.4716956    5132.8491       -1e+20 
   24400      2.28478    -4.502616    5116.2203       -1e+20 
   24500    2.2546408   -4.4748069    5176.7782       -1e+20 
   24600    2.3258721    -4.439911    5152.5456            2 
   24700    2.2759346   -4.4726691    5155.2795            1 
   24800    2.2876292   -4.4693024    5147.8904            1 
   24900    2.2653176   -4.5018084    5116.4267       -1e+20 
   25000    2.2666692   -4.5267145    5124.4878            1 
   25100    2.2775742    -4.448239    5142.7473            1 
   25200    2.2670316   -4.5226537    5128.2915            1 
   25300    2.2605613   -4.4372041    5104.9325            1 
   25400    2.2912284   -4.5294299    5153.9563            1 
   25500    2.3189732   -4.4539049    5119.6304            1 
   25600    2.2749644   -4.4767054    5135.7741            1 
   25700       2.2466   -4.5010121    5153.7566            1 
   25800    2.3253875   -4.4983068    5101.9673            1 
   25900    2.2712796   -4.5362441    5147.8755            1 
   26000    2.2625578   -4.4294099    5151.2935            1 
   26100    2.2805683   -4.4293116    5154.3801            1 
   26200    2.2705732   -4.5191106    5122.4907       -1e+20 
   26300     2.265943   -4.4932092    5155.2879       -1e+20 
   26400    2.2974974   -4.4574265    5115.5751            1 
   26500    2.2705305    -4.506372    5149.4562            1 
   26600    2.2907812    -4.466604    5144.8349       -1e+20 
   26700    2.3324312   -4.4911387    5165.9863       -1e+20 
   26800     2.253628   -4.4532147    5141.3836       -1e+20 
   26900    2.2908735   -4.4651456    5135.4064       -1e+20 
   27000    2.3195905   -4.4642116     5184.264            1 
   27100    2.2572524   -4.4412376    5138.0833       -1e+20 
   27200    2.3053012   -4.4888818    5148.4209            1 
   27300    2.2851901   -4.5203083    5165.7346            1 
   27400    2.3017228    -4.543122    5080.9794            2 
   27500    2.2512083   -4.5348326    5113.7739            1 
   27600    2.3021879   -4.5445556    5113.5854       -1e+20 
   27700    2.2802545   -4.5657446    5103.6807            1 
   27800    2.2600141   -4.5495272    5085.8146            1 
   27900    2.2497978   -4.4754362    5154.7383       -1e+20 
   28000     2.301173    -4.468809    5129.8322            2 
   28100    2.2835121   -4.5234185    5135.4609       -1e+20 
   28200    2.2223564   -4.4648247     5112.496            1 
   28300    2.3086696   -4.4746767    5114.4387       -1e+20 
   28400    2.2575886   -4.4865581    5156.2909            1 
   28500    2.3152706   -4.4492808    5128.0823            1 
   28600    2.2419685   -4.4506413    5161.2838       -1e+20 
   28700    2.3272365   -4.4823586    5145.1577            2 
   28800    2.2836959   -4.4866848    5129.4738            1 
   28900     2.249974   -4.4830757    5136.3263            1 
   29000    2.2892627   -4.4954139    5105.4852       -1e+20 
   29100     2.238965    -4.497819    5141.4707            1 
   29200    2.3454784   -4.5356182    5119.0375            1 
   29300    2.2362061   -4.4898952     5135.761            1 
   29400    2.3466505   -4.5004695    5129.8548            1 
   29500    2.2413138   -4.4495406    5150.1073       -1e+20 
   29600    2.3251019   -4.4357158     5173.314            1 
   29700    2.3493031   -4.4916537    5126.9498            1 
   29800    2.2163786   -4.4561517    5168.0116            1 
   29900     2.300462   -4.4578474    5145.6505            1 
   30000    2.2988451   -4.4813887    5155.7324       -1e+20 
   30100    2.2568803   -4.4956578    5133.3834       -1e+20 
   30200    2.2952843    -4.477396    5128.5692       -1e+20 
   30300    2.2895771   -4.4904139    5174.0738       -1e+20 
   30400    2.3049537    -4.478586    5154.2613       -1e+20 
   30500    2.3253726   -4.5793557     5107.615            1 
   30600    2.2577001   -4.5196904    5149.3588       -1e+20 
   30700    2.2936907   -4.4509884    5159.3715            1 
   30800    2.2422481   -4.4672876    5133.1013            1 
   30900    2.2634571   -4.4952655    5145.2025       -1e+20 
   31000    2.2677443   -4.4412287    5158.0436            1 
   31100    2.3197845   -4.4887804    5155.1719            1 
   31200     2.270195   -4.5036048    5100.3542       -1e+20 
   31300    2.2466249    -4.479798    5129.8693            2 
   31400    2.2810216   -4.4432848    5172.9703       -1e+20 
   31500    2.2888772   -4.4905134    5123.5388       -1e+20 
   31600    2.2433426   -4.4540789    5147.7461            1 
   31700    2.3035972   -4.4548423    5142.3371            1 
   31800     2.266183   -4.4804611     5142.621            1 
   31900    2.2719075   -4.5318847    5102.6979       -1e+20 
   32000    2.2671184   -4.5218015    5123.7167            1 
   32100    2.2853533   -4.4898541    5132.5648            1 
   32200    2.2328286   -4.4650499    5121.8133       -1e+20 
   32300    2.2674852   -4.4996386    5129.9385            1 
   32400    2.2896871   -4.4263869    5154.4276            1 
   32500    2.2963679   -4.4715643    5129.7566       -1e+20 
   32600    2.2524054   -4.4903033    5126.4011       -1e+20 
   32700    2.2819794   -4.4733374      5123.12            1 
   32800    2.2700753   -4.5028051    5149.5544            1 
   32900    2.3629972    -4.499938      5143.84       -1e+20 
   33000    2.2592498   -4.4743807    5129.5451            1 
   33100    2.2567364   -4.4894498    5137.8602            1 
   33200    2.3364435    -4.508508    5151.5671       -1e+20 
   33300    2.2719076   -4.4826759    5160.4655            1 
   33400    2.2576761    -4.525585    5125.1507            1 
   33500    2.3208815   -4.4871191    5109.0508       -1e+20 
   33600     2.234836   -4.4758365    5156.0962            1 
   33700    2.3393617   -4.4707873    5128.5348            1 
   33800    2.2440531   -4.4869201    5157.0439            1 
   33900    2.2672271   -4.4805637    5114.9885            2 
   34000    2.3139483   -4.5276629    5104.9275            2 
   34100    2.2445675   -4.5142107    5142.9258            1 
   34200    2.3078263   -4.4868897    5110.4979       -1e+20 
   34300    2.2835588   -4.5417429    5132.2537            1 
   34400    2.2686629   -4.5545979    5124.0682            1 
   34500    2.3138231   -4.4950555     5121.676            1 
   34600    2.2514021   -4.4387911    5157.6122       -1e+20 
   34700    2.3287976   -4.4654148    5186.3378            2 
   34800    2.3111473   -4.4806283    5159.5196            1 
   34900    2.2938493   -4.5160822    5110.5238            2 
   35000    2.2632413   -4.4948959    5126.8574       -1e+20 
   35100    2.2890079   -4.4759516     5159.183            1 
   35200    2.2821817     -4.48926    5148.9679            1 
   35300    2.2720551   -4.5295251    5092.2509            2 
   35400    2.2117074   -4.5021268    5121.2353            1 
   35500    2.2838912   -4.4809536    5130.0393       -1e+20 
   35600     2.314977   -4.5023856    5139.3242            2 
   35700    2.2156811   -4.4552477    5129.9148       -1e+20 
   35800    2.2892897   -4.4415075    5139.9336            1 
   35900    2.2897717    -4.485947    5161.4165       -1e+20 
   36000    2.2380128   -4.5020378    5134.7582            1 
   36100    2.3058933   -4.4921766    5084.8682            1 
   36200    2.2683104   -4.4700488    5188.3527            1 
   36300    2.2940924   -4.4558849    5144.8923            1 
   36400    2.3090054   -4.5075259     5150.044       -1e+20 
   36500    2.2580417   -4.4670871    5131.3184            1 
   36600    2.2725859   -4.4399267    5130.2159            1 
   36700    2.3153932   -4.4580975    5177.7393            1 
   36800    2.2999943   -4.4960843    5142.4905            1 
   36900    2.2800198   -4.5063067    5101.9753            1 
   37000    2.2524578   -4.5673909    5109.5814            2 
   37100    2.3035501   -4.5225035    5130.6227       -1e+20 
   37200    2.2788969   -4.4298603    5159.7014       -1e+20 
   37300    2.3057456   -4.5248386    5179.1508       -1e+20 
   37400    2.3367453    -4.490534     5137.059            1 
   37500    2.2518749   -4.4940886    5174.6066            1 
   37600    2.2727853   -4.5455558    5080.1399       -1e+20 
   37700    2.2561177   -4.5183288    5112.3475       -1e+20 
   37800    2.2866498   -4.5177308    5117.6463            1 
   37900    2.2657284   -4.4728121    5128.2971            1 
   38000    2.2564084   -4.3977882    5176.7309       -1e+20 
   38100    2.3235462    -4.432841    5164.0392       -1e+20 
   38200    2.2403388     -4.44741    5141.3044            1 
   38300    2.3251179    -4.473261     5151.696       -1e+20 
   38400     2.245227   -4.4231101    5166.9455       -1e+20 
   38500    2.2911223    -4.419315     5153.788            1 
   38600    2.2542011   -4.4960363    5154.6083            1 
   38700    2.3083418   -4.4940745    5131.6765            1 
   38800     2.265714   -4.5056188     5136.789            1 
   38900    2.2325581   -4.4937443     5106.848       -1e+20 
   39000    2.2983855   -4.5088944    5139.0004       -1e+20 
   39100    2.2936965   -4.4297015    5155.6784            1 
   39200    2.2418376   -4.4219207    5177.8912       -1e+20 
   39300     2.287381   -4.4936464    5105.4692            1 
   39400    2.2762022   -4.4318961    5139.5698       -1e+20 
   39500    2.2573509   -4.4625743    5158.7185            1 
   39600    2.3134085    -4.474479    5132.9803       -1e+20 
   39700    2.2149965    -4.483135    5138.6261            1 
   39800    2.2885018   -4.4710233    5127.8958       -1e+20 
   39900    2.2508653   -4.4544974    5128.6474       -1e+20 
   40000    2.2680483   -4.4543355    5161.7518            1 
   40100    2.2831565   -4.4507378    5140.6696            1 
   40200    2.2517439   -4.4528123    5154.5822       -1e+20 
   40300    2.2916632   -4.4212489    5169.5331            1 
   40400    2.3030861   -4.4344929    5161.8204            1 
   40500    2.2616872   -4.5066852    5150.7489       -1e+20 
   40600    2.3098845   -4.5152719    5122.1759            1 
   40700    2.2425852   -4.5379824     5106.744            1 
   40800    2.2669397   -4.4881942    5159.0971       -1e+20 
   40900    2.3156163   -4.4457408    5119.6526            1 
   41000    2.2395536   -4.4892411    5155.3066       -1e+20 
   41100    2.3240525   -4.4838053    5150.4722            1 
   41200    2.2817955   -4.4949714    5138.7055            1 
   41300    2.2949767   -4.4931803     5166.465            1 
   41400    2.2981198   -4.4461685    5157.3449            1 
   41500    2.2784133   -4.4637819    5165.6188            1 
   41600    2.3239717   -4.4636971    5169.5546            1 
   41700    2.2444211   -4.4399516    5137.4481            1 
   41800    2.3017888    -4.508242    5149.7293            1 
   41900    2.3234175   -4.4380517    5172.2447       -1e+20 
   42000    2.2654883   -4.4735913    5178.9607            1 
   42100    2.2570786   -4.5180873    5106.5883            1 
   42200     2.283592   -4.5035836    5104.2425            1 
   42300     2.224283   -4.4292932    5135.5672            1 
   42400     2.303237   -4.4770715     5139.344       -1e+20 
   42500     2.242137   -4.4733467    5155.7024            1 
   42600    2.3410901    -4.485334    5146.8003            1 
   42700    2.2684343   -4.4630077    5165.8069            1 
   42800    2.2752592   -4.5055672    5161.3764            1 
   42900    2.2917817    -4.449235    5109.8332            1 
   43000    2.2443199   -4.4669455    5167.7995            1 
   43100    2.3199838   -4.4803029    5107.1795       -1e+20 
   43200    2.2535263   -4.5227298    5133.4008            1 
   43300    2.3158742   -4.5090827    5150.1251            1 
   43400    2.2816734   -4.4928221    5162.2356            1 
   43500    2.2550428   -4.4866102    5085.0245            1 
   43600    2.2524863   -4.4959355    5124.2996            1 
   43700    2.2545801   -4.5012907     5127.885       -1e+20 
   43800    2.2965625   -4.4206704    5136.0906            1 
   43900    2.2374695   -4.4145353    5167.8381            1 
   44000     2.263533   -4.4844623    5122.8964            1 
   44100    2.2619963   -4.4833832     5106.011            1 
   44200    2.3124996   -4.4818662    5162.2155            1 
   44300     2.297723   -4.4189706    5184.5742       -1e+20 
   44400     2.313701   -4.4218025    5115.7511            1 
   44500    2.2244148   -4.4856993    5158.9513       -1e+20 
   44600    2.3424694    -4.521666    5119.2274            1 
   44700    2.2637321   -4.5178276    5124.0611       -1e+20 
   44800    2.2781682   -4.4716694     5159.693            1 
   44900    2.2765208   -4.4409943    5137.4396            1 
   45000    2.2577603   -4.4387268    5167.3752            2 
   45100    2.2734105   -4.4276333    5142.0745            1 
   45200    2.3198886   -4.4851141     5123.587            1 
   45300    2.2323659   -4.5254395    5153.1593            1 
   45400    2.2995452   -4.4668428     5126.745       -1e+20 
   45500    2.2557381   -4.4988601    5114.4442            1 
   45600    2.3354707   -4.5114291    5128.7327            1 
   45700    2.2802067   -4.5324888     5140.257            2 
   45800    2.2639719   -4.4330806    5147.3032            1 
   45900    2.2827282   -4.4600062    5140.1224            1 
   46000    2.2363929   -4.4892051    5134.0902            1 
   46100    2.3080969    -4.479163    5166.1097            1 
   46200    2.2801648   -4.4096779    5176.0339            1 
   46300    2.3015856   -4.4336562    5176.4531            1 
   46400    2.3126924   -4.5111774    5149.9741            1 
   46500    2.2540898   -4.4783561    5150.6844            1 
   46600    2.3273505    -4.505459    5133.7452            1 
   46700     2.233643   -4.4733481    5118.6134            1 
   46800    2.2956132   -4.5146523    5159.5315            1 
   46900    2.3547912   -4.4355734    5149.5045       -1e+20 
   47000    2.2979215    -4.478715    5169.6884       -1e+20 
   47100    2.2581602   -4.4776878    5121.0155            1 
   47200    2.2652605   -4.4408554    5128.2626            1 
   47300    2.2846348   -4.5187717    5157.6954            1 
   47400    2.2600513   -4.4809484    5133.5907            1 
   47500    2.2707205   -4.4514797    5146.8882       -1e+20 
   47600    2.2460603   -4.4545163    5145.9251            1 
   47700    2.2918141    -4.502692    5116.2392            1 
   47800    2.3076259   -4.5051654    5138.5424            1 
   47900    2.2273035   -4.4668076    5127.8165            1 
   48000    2.2986641   -4.4632028    5145.9034            1 
   48100    2.2559527   -4.4826482    5134.1388       -1e+20 
   48200    2.3202617   -4.4476142    5116.0737            1 
   48300    2.1784168   -4.4441221     5221.754       -1e+20 
   48400     2.314011   -4.4458254    5104.0268            1 
   48500    2.2487982    -4.464711    5151.6373            1 
   48600    2.3014836   -4.5017133    5152.2212            1 
   48700    2.3016445   -4.5076574    5137.1524       -1e+20 
   48800    2.2334904   -4.5177991    5135.2505            1 
   48900    2.3158565    -4.506334    5131.5626            1 
   49000    2.2885143   -4.5142464    5137.5939       -1e+20 
   49100    2.2243006   -4.5059496    5109.5638            1 
   49200    2.2877064   -4.4896184    5115.6466            1 
   49300     2.283259   -4.4808331    5157.6032            1 
   49400    2.2898639   -4.4627708    5151.5945       -1e+20 
   49500    2.2891892   -4.4824754    5135.9352            1 
   49600    2.2234864   -4.5109481    5113.2695            1 
   49700    2.2546395   -4.5023546    5117.6889       -1e+20 
   49800    2.2863322   -4.4503532    5137.3374       -1e+20 
   49900    2.1946062   -4.4934333    5152.4616            1 
   50000    2.3189229    -4.525546    5088.1381            1 
   50100    2.2607698   -4.4997526    5148.6465            1 
   50200    2.2787279   -4.4778885    5143.9833            1 
   50300    2.2805111   -4.4683034    5126.9482            1 
   50400    2.2411826   -4.4923647     5152.553            1 
   50500    2.3331694   -4.4709454     5130.896            1 
   50600    2.2594502   -4.4749565    5156.1056            1 
   50700    2.3078528   -4.5009148     5120.708            1 
   50800    2.2555413   -4.4806629    5112.0963            1 
   50900    2.2635752   -4.4749567    5165.8368            1 
   51000     2.311125   -4.4391256    5141.8939            1 
   51100    2.2490187   -4.4538881    5139.0428            1 
   51200    2.2729365    -4.481842    5139.7798       -1e+20 
   51300    2.2726685    -4.412078    5128.9672            1 
   51400    2.2418766   -4.4610889    5181.2214            1 
   51500    2.2479922   -4.4394512    5084.2339       -1e+20 
   51600    2.2939338   -4.4547079    5161.7244       -1e+20 
   51700    2.2833614   -4.4931957    5135.2942            1 
   51800    2.2506078   -4.4551468    5136.1189       -1e+20 
   51900    2.2864251   -4.4651484    5146.7186            1 
   52000    2.2283902   -4.4350743    5138.0265       -1e+20 
   52100    2.2885839   -4.4919721    5132.3295       -1e+20 
   52200    2.2516842   -4.4303191    5192.5829            1 
   52300    2.3150077   -4.4456246    5142.9793       -1e+20 
   52400    2.2813326   -4.4792285    5126.8692       -1e+20 
   52500    2.2345342   -4.5292963    5126.5889            1 
   52600    2.2857956   -4.4743573    5093.9433            1 
   52700    2.2858875   -4.4930409    5162.9571       -1e+20 
   52800    2.3249153   -4.4964287    5168.6036            1 
   52900    2.2682824   -4.4569785    5141.1394            1 
   53000    2.2467823   -4.5374328    5112.2426            3 
   53100    2.2733393   -4.5548091    5080.4863       -1e+20 
   53200    2.2391106     -4.48928    5143.1742       -1e+20 
   53300    2.2759443   -4.4557885    5135.2361       -1e+20 
   53400    2.2357521   -4.4765631    5135.6653            1 
   53500    2.2957219   -4.4439875    5149.6915            1 
   53600     2.297628   -4.4907522    5122.8137            1 
   53700     2.236376   -4.5097126    5135.6301            2 
   53800    2.3171704   -4.5050543    5139.7574       -1e+20 
   53900    2.2773355   -4.4676768    5154.8276       -1e+20 
   54000    2.3261774   -4.4591454    5175.0505            1 
   54100    2.3045144   -4.4954225    5116.8001            2 
   54200    2.2579673   -4.5313564    5145.8716            1 
   54300    2.3032503    -4.453191    5127.0879       -1e+20 
   54400    2.2636581   -4.4774738    5157.9712            1 
   54500    2.3132389   -4.4651735    5143.4112       -1e+20 
   54600    2.2757726   -4.4631553     5165.716            1 
   54700    2.2769413   -4.4709365    5145.8656       -1e+20 
   54800    2.2585669   -4.4629237    5110.4248            1 
   54900    2.2673835   -4.4786135    5148.3242            1 
   55000    2.2746693   -4.4729245    5148.5425       -1e+20 
   55100    2.2396756   -4.4489422    5125.4729       -1e+20 
   55200    2.3112258   -4.5258665     5107.953            1 
   55300    2.2774168   -4.5527637    5140.1368       -1e+20 
   55400    2.3044938   -4.5122005    5117.6478            1 
   55500    2.2831569   -4.4743437    5160.0493            1 
   55600     2.242637   -4.4747867    5151.0508            1 
   55700    2.2898311   -4.4982796    5105.3523       -1e+20 
   55800    2.2739866   -4.4780882    5159.0478       -1e+20 
   55900     2.265934   -4.5007672    5122.7376            1 
   56000    2.3171103   -4.4710546    5128.2197       -1e+20 
   56100     2.248534   -4.4520661    5180.3444            1 
   56200    2.3529686   -4.4229958    5152.7554            1 
   56300    2.2575807   -4.4222871    5168.4047            1 
   56400    2.2826156   -4.5073045    5135.0266       -1e+20 
   56500    2.2754471   -4.5479838    5091.0936            1 
   56600    2.3068009   -4.5364198    5112.0308            1 
   56700    2.2821965   -4.5099549    5145.8618            1 
   56800    2.3162438   -4.4294436    5165.7804            2 
   56900     2.284214   -4.4792656    5161.8978            1 
   57000    2.2548902   -4.4596582    5142.5195            1 
   57100    2.2810966   -4.5258626    5103.1008            1 
   57200    2.2798261   -4.4730756    5126.0161            1 
   57300    2.2605302   -4.4709019     5126.683       -1e+20 
   57400    2.2781294   -4.5311631    5124.9481            1 
   57500    2.3005387   -4.4962208    5137.7727            1 
   57600    2.2755397   -4.4996634    5135.1398            1 
   57700    2.2689472    -4.468737     5153.784       -1e+20 
   57800    2.3096444   -4.4829807    5102.2257            1 
   57900     2.226148   -4.5300769    5147.4792            1 
   58000    2.3040707    -4.475022    5133.6201            1 
   58100    2.2421163   -4.4231048    5147.1349       -1e+20 
   58200    2.2812369   -4.4287992    5178.9338       -1e+20 
   58300    2.3210036   -4.4421437    5157.1766       -1e+20 
   58400    2.2859047   -4.5033038    5140.4078            1 
   58500    2.2566506   -4.4977725    5112.3657       -1e+20 
   58600    2.2833894   -4.4990491     5117.973       -1e+20 
   58700    2.2873495   -4.4748541    5140.5955            1 
   58800    2.2422033   -4.4646814    5106.8983            1 
   58900    2.2750989    -4.525284    5129.8777       -1e+20 
   59000    2.2852905   -4.4733625    5127.8196            1 
   59100    2.2275216   -4.5208384     5130.513            1 
   59200    2.2922964   -4.4840134    5093.2305            1 
   59300    2.2527341   -4.4488715    5136.0719            1 
   59400    2.2902592   -4.4711915    5128.3245            1 
   59500    2.2526193   -4.4872618     5105.667       -1e+20 
   59600    2.2799556   -4.4982882    5123.3233            1 
   59700    2.2999344   -4.4546711    5155.0582            1 
   59800    2.2592537   -4.4923944    5128.9783       -1e+20 
   59900    2.2842167   -4.4738439     5158.872            1 
   60000    2.2705001   -4.4694682    5149.1744       -1e+20 
   60100    2.3476232   -4.4887739    5120.7154            1 
   60200    2.2122854   -4.4928142    5165.6514       -1e+20 
   60300    2.2966751   -4.4587933    5099.2693       -1e+20 
   60400    2.2545424   -4.4835417    5154.1999       -1e+20 
   60500    2.3000848   -4.5207481    5130.1931       -1e+20 
   60600    2.2791587   -4.5122589    5096.3416       -1e+20 
   60700    2.2200886   -4.4992383    5124.9328       -1e+20 
   60800     2.278724   -4.4634242    5138.3362            1 
   60900     2.337256   -4.5057481    5151.7675            1 
   61000    2.2582012   -4.4385127    5171.5071            1 
   61100    2.3296068    -4.520087    5106.3501            1 
   61200    2.2788963   -4.5721696    5119.8755       -1e+20 
   61300    2.2614756   -4.4942722     5098.034       -1e+20 
   61400    2.3019459   -4.4606922    5131.3397       -1e+20 
   61500    2.2389379   -4.4759037    5144.2027       -1e+20 
   61600    2.3108778   -4.4961098     5122.825            1 
   61700    2.2583471   -4.5065702     5152.101            1 
   61800    2.2676009   -4.4680704    5126.5781       -1e+20 
   61900      2.28466   -4.4482888    5143.7634       -1e+20 
   62000    2.2748584   -4.4913676      5138.03            1 
   62100    2.3079218   -4.4910957    5110.5759            1 
   62200    2.2502996   -4.5296084    5157.7044       -1e+20 
   62300    2.3255718   -4.4846745    5130.2863       -1e+20 
   62400    2.2873396   -4.4769377    5160.5496            1 
   62500    2.2757177   -4.5244416    5140.2079       -1e+20 
   62600    2.3214314   -4.5160676    5109.3863            2 
   62700    2.2486604   -4.4974642    5153.8485            1 
   62800    2.3194006   -4.5308756      5107.02            1 
   62900    2.2643052   -4.5176614    5102.6502            1 
   63000    2.2542823    -4.489653    5138.7836       -1e+20 
   63100     2.332184   -4.4493666    5146.9327            1 
   63200    2.2869576   -4.4723506     5153.021       -1e+20 
   63300    2.2279057   -4.4417927    5133.5884       -1e+20 
   63400    2.3045572   -4.4141467    5136.8133       -1e+20 
   63500    2.2435226   -4.4186561    5176.3866       -1e+20 
   63600    2.2542101   -4.4958803    5135.1908       -1e+20 
   63700     2.282598   -4.5151378    5127.1091            1 
   63800    2.3006392   -4.4915997    5145.9179            1 
   63900     2.247917   -4.4985538    5134.2114       -1e+20 
   64000    2.2861048   -4.4984999    5119.9952            1 
   64100    2.3022917   -4.4519055    5184.6216       -1e+20 
   64200    2.2854981   -4.4537695    5154.1129       -1e+20 
   64300    2.2969126   -4.4945931    5132.3321            1 
   64400    2.2075964   -4.5231081    5143.4213            1 
   64500     2.300074   -4.4913303    5090.0676            2 
   64600    2.2817374   -4.5004759    5168.1697       -1e+20 
   64700     2.268074   -4.4717791    5151.2443            1 
   64800     2.270526   -4.4416864    5115.5569       -1e+20 
   64900     2.305708   -4.5000304    5169.6915       -1e+20 
   65000    2.3216817   -4.4931727    5165.8791            1 
   65100    2.2745528    -4.464332     5107.518       -1e+20 
   65200    2.2338677   -4.4517255    5147.8032            1 
   65300    2.2903412   -4.4423644    5172.5607            1 
   65400    2.3106083   -4.5321659    5105.9147            1 
   65500    2.2853249   -4.5555663     5125.596            1 
   65600    2.2689273   -4.4913716    5122.7031            2 
   65700    2.3121444    -4.489101     5158.675            1 
   65800    2.2669343   -4.4687549    5136.1912       -1e+20 
   65900    2.3176175    -4.517658    5105.0469            1 
   66000    2.2534019   -4.5166312    5131.0736            1 
   66100    2.2841814   -4.4627211    5114.4267       -1e+20 
   66200    2.2959764   -4.4173331    5192.8048       -1e+20 
   66300     2.332431   -4.4933102    5116.7888       -1e+20 
   66400     2.265456   -4.5195926    5145.2415            1 
   66500    2.3321924   -4.4931617    5144.6628            1 
   66600    2.2870186   -4.4810082    5159.9661       -1e+20 
   66700    2.2387811   -4.4990545    5128.4817            3 
   66800    2.2778903   -4.4832734    5121.6643            2 
   66900    2.2816325   -4.4703028    5164.8255            2 
   67000     2.319299   -4.4689274    5127.4558            1 
   67100    2.2549353   -4.4920361    5108.0839       -1e+20 
   67200     2.288641   -4.5165156    5105.5767       -1e+20 
   67300    2.2982066   -4.4828659    5152.4371            1 
   67400    2.2489834   -4.4385821    5145.0941            1 
   67500    2.2723774   -4.4917707    5118.0583            1 
   67600    2.2604542   -4.4726655    5131.3993            1 
   67700    2.3329358   -4.4867735    5138.6462       -1e+20 
   67800    2.2403872   -4.4912299    5154.5254       -1e+20 
   67900    2.2859617   -4.5281487    5096.6925            1 
   68000    2.2546848   -4.5165284    5102.8914       -1e+20 
   68100    2.2782066   -4.5307411    5153.2972            1 
   68200     2.323634   -4.4629884    5116.0216            1 
   68300    2.2645109    -4.535579    5146.4477            1 
   68400    2.2935065   -4.4805214    5126.1716            1 
   68500     2.282088   -4.4558626    5141.4657       -1e+20 
   68600    2.2618026   -4.4555773    5164.8298            1 
   68700    2.2902138   -4.4987776    5090.6141       -1e+20 
   68800    2.2557752   -4.4791385    5133.4144       -1e+20 
   68900     2.282279    -4.494962    5155.1175            1 
   69000    2.3105228   -4.4153726    5143.4974            1 
   69100    2.2539293   -4.4520377     5180.699       -1e+20 
   69200     2.318151   -4.4697011     5132.791            3 
   69300    2.2717743   -4.5154928    5114.9335            1 
   69400    2.2451862   -4.4778462    5128.5035            1 
   69500    2.3238249   -4.4815949    5138.4103            1 
   69600    2.2409713   -4.4754546    5143.2284       -1e+20 
   69700    2.3282411   -4.4842772    5155.7048            1 
   69800    2.2807811   -4.4915303    5156.0667            1 
   69900    2.2715096   -4.4951778    5128.1045            1 
   70000    2.2826553   -4.4655293    5141.9603            1 
   70100    2.2818502    -4.475151    5140.1167       -1e+20 
   70200    2.2644799   -4.5392342    5116.0307            1 
   70300    2.2851173   -4.5439872     5085.552       -1e+20 
   70400    2.2644134   -4.4661508    5162.2236       -1e+20 
   70500    2.3090848   -4.4535026    5137.1849            1 
   70600    2.2394875   -4.4328403    5164.7559            1 
   70700    2.3053726   -4.4650154     5137.569            1 
   70800    2.2610461   -4.4921818    5112.9002            1 
   70900    2.2665182   -4.4608186    5135.6063            1 
   71000     2.294393   -4.4465583    5153.4574            1 
   71100    2.2864294   -4.4084284     5172.102            1 
   71200    2.2811964   -4.4470158     5147.944            2 
   71300    2.2656184   -4.4329731    5135.6624            1 
   71400    2.2838948   -4.4912326    5143.8212       -1e+20 
   71500    2.2465194   -4.4810359    5126.4393       -1e+20 
   71600    2.3090612   -4.4617262    5141.0976            1 
   71700    2.2687109   -4.4823243     5121.875       -1e+20 
   71800    2.2561505    -4.487101    5147.9661            1 
   71900    2.2941009   -4.4720237     5127.527            1 
   72000    2.2729551   -4.5066435    5144.5537       -1e+20 
   72100    2.2834679   -4.4500695    5165.3499       -1e+20 
   72200    2.2712751   -4.4928082     5092.917       -1e+20 
   72300    2.2721336   -4.5113122    5157.6818       -1e+20 
   72400    2.3289383   -4.4995865    5144.0401       -1e+20 
   72500    2.2566675   -4.4947232    5138.4512            1 
   72600    2.3243124   -4.4602904    5136.3784            1 
   72700     2.268429   -4.4193895    5182.5385       -1e+20 
   72800    2.2840455   -4.4557703    5155.8849       -1e+20 
   72900    2.2503226   -4.4511461    5138.8581            3 
   73000    2.2579401   -4.4749322     5120.529            1 
   73100    2.2587741   -4.4929294    5109.9592       -1e+20 
   73200    2.2366116   -4.5041786    5080.1121            1 
   73300    2.2547833   -4.4704128    5156.0309            1 
   73400     2.281901   -4.4164918    5139.8224       -1e+20 
   73500    2.2468644   -4.4841828    5150.5338            1 
   73600    2.2943061   -4.4836366    5130.6842            1 
   73700    2.2590619   -4.4701243    5118.3532       -1e+20 
   73800    2.2700226   -4.4823687    5133.9377       -1e+20 
   73900    2.3044036   -4.5672593    5075.4089            1 
   74000    2.2206525   -4.6102065    5111.8689            1 
   74100    2.2747722   -4.5158461    5080.8297       -1e+20 
   74200    2.2910364   -4.4831417    5138.8049            2 
   74300    2.2880699   -4.5172065     5143.306            1 
   74400    2.3062153    -4.488478    5137.9646       -1e+20 
   74500    2.2696533   -4.4430507    5171.7856       -1e+20 
   74600    2.2323687   -4.4667131    5120.7936            1 
   74700    2.2577068   -4.4678989    5123.5238       -1e+20 
   74800    2.2735325   -4.4667996    5141.2375            1 
   74900    2.2821748   -4.4782169    5121.2291            1 
   75000    2.2518436   -4.5035799    5136.2396            1 
   75100    2.2969785   -4.4196262     5131.982            1 
   75200    2.2451439   -4.4771425    5152.3333            3 
   75300    2.2784776   -4.5817601    5109.2583       -1e+20 
   75400    2.2886365   -4.5224418    5091.2632            1 
   75500    2.2255545   -4.4838117    5143.2135       -1e+20 
   75600    2.3128834   -4.5038993    5156.5516            1 
   75700    2.2151538   -4.4609253    5136.5226            1 
   75800    2.3341081   -4.5254754    5105.1732            1 
   75900    2.2565941   -4.5396391    5139.8427            1 
   76000    2.2765766    -4.511471     5126.803            1 
   76100    2.2621439   -4.4158151    5155.7086       -1e+20 
   76200    2.2825947   -4.4732199    5135.0836       -1e+20 
   76300    2.2496816   -4.4820741    5126.5349       -1e+20 
   76400    2.3385476   -4.4856412    5129.0769       -1e+20 
   76500     2.233926   -4.4749468     5144.467            1 
   76600    2.2703728   -4.4356699    5139.8554       -1e+20 
   76700    2.2874138   -4.4687709    5115.6862       -1e+20 
   76800    2.2638582   -4.5213272    5140.8157            1 
   76900    2.2479793   -4.5389917    5096.2976            1 
   77000    2.2806228   -4.4937239    5112.8558            1 
   77100    2.2197505   -4.5014461    5170.3388            1 
   77200    2.3164403    -4.429849    5145.8521            1 
   77300    2.2618585   -4.4675146    5124.9082            1 
   77400    2.2662526   -4.5196017    5121.8248            2 
   77500    2.2704452   -4.4642563    5108.6608            1 
   77600     2.286737   -4.4873634    5174.4443            1 
   77700    2.3248832   -4.4548197    5156.8658       -1e+20 
   77800    2.2842389   -4.4430698    5118.0944            1 
   77900    2.1955047   -4.4703306    5166.9053            1 
   78000    2.2998899   -4.4481337    5136.6282       -1e+20 
   78100    2.2883729   -4.4769868    5146.9351       -1e+20 
   78200    2.2405183   -4.4998314    5113.1882            1 
   78300    2.3237921    -4.539714    5124.8717            1 
   78400    2.2728151   -4.4865998    5140.4226       -1e+20 
   78500    2.2283582   -4.5146681      5113.79            1 
   78600    2.2934684    -4.508534    5117.7547            1 
   78700    2.2534536   -4.4275584    5148.5355            1 
   78800     2.273895   -4.5016268     5162.228       -1e+20 
   78900    2.3248598   -4.4912951    5095.3051       -1e+20 
   79000    2.2445809   -4.5801548    5151.6561            1 
   79100    2.3012642    -4.480001    5090.1763            1 
   79200    2.2787296   -4.4417669    5153.2371       -1e+20 
   79300    2.2497847     -4.43308    5165.4884            1 
   79400    2.2966515   -4.4475775    5152.5919       -1e+20 
   79500    2.2932304   -4.3988925     5178.722       -1e+20 
   79600    2.2521044    -4.448145    5163.8055            1 
   79700    2.2872934   -4.3911479    5165.9456            1 
   79800    2.2985029   -4.4230009    5189.9087       -1e+20 
   79900    2.2752154   -4.4649676    5143.3264       -1e+20 
   80000    2.2875981   -4.4507422    5131.2053            1 
   80100    2.2424262    -4.443141    5160.9588            2 
   80200    2.3130722   -4.4365233    5147.6276       -1e+20 
   80300    2.2448342   -4.4811137    5142.2348            1 
   80400    2.2736661   -4.4838957    5140.5602            1 
   80500    2.2932721   -4.4535777    5138.9482            1 
   80600    2.2628651   -4.4991153    5141.8098            1 
   80700    2.2492588   -4.4757279     5113.475            1 
   80800    2.3194201   -4.4957633    5147.8227            1 
   80900    2.2594248   -4.4665762    5120.3927       -1e+20 
   81000    2.3053313   -4.4827735     5139.459            2 
   81100    2.2421085   -4.4845475      5178.81            1 
   81200    2.3489844   -4.4758895    5114.0198            1 
   81300    2.2537952   -4.4793473     5169.832            1 
   81400    2.2961426   -4.5458112    5106.1311            1 
   81500    2.2906336    -4.516252    5113.3115       -1e+20 
   81600    2.2793456    -4.497591    5150.3863       -1e+20 
   81700    2.2994825   -4.5239818     5145.118            1 
   81800    2.2952253   -4.4369739    5143.0736       -1e+20 
   81900    2.2586392   -4.4944561    5117.3899       -1e+20 
   82000    2.2849705    -4.518095    5134.8797            1 
   82100    2.2927525   -4.4586042    5141.2591            1 
   82200    2.2845407    -4.509596    5124.0661            1 
   82300    2.2340066   -4.5209932    5132.8341            1 
   82400    2.3230668   -4.5016317    5082.0992            1 
   82500    2.2288332   -4.4656738    5156.8026       -1e+20 
   82600    2.2781299   -4.4421514    5147.7795            1 
   82700    2.3045898    -4.457798    5137.6973       -1e+20 
   82800    2.2508087      -4.4767     5189.847       -1e+20 
   82900    2.3405207   -4.4812269    5118.0717            1 
   83000    2.2309059   -4.4701163    5159.9956       -1e+20 
   83100    2.2973269   -4.4490446    5140.1732            1 
   83200    2.3437999   -4.4837427    5179.7606            1 
   83300    2.2866091    -4.497031    5176.1847       -1e+20 
   83400    2.2872355   -4.4430124     5117.393       -1e+20 
   83500    2.2450279   -4.4414801     5168.647            1 
   83600    2.3039993   -4.4728073    5158.3991            2 
   83700    2.2722845   -4.4512641    5092.7828            1 
   83800    2.2427272   -4.4875722    5130.1042            1 
   83900    2.2731142   -4.4517193     5130.569       -1e+20 
   84000    2.2813428    -4.516993    5109.5947            1 
   84100    2.2195139   -4.5438021    5114.6808       -1e+20 
   84200     2.277584   -4.4852092    5109.0898       -1e+20 
   84300    2.2730006   -4.4629544    5152.5437       -1e+20 
   84400    2.2861719   -4.4436089    5174.3769       -1e+20 
   84500    2.3107739   -4.4703349    5158.0819            1 
   84600    2.2454881   -4.4591707     5144.438            1 
   84700    2.2914771   -4.4551773    5104.4464            1 
   84800    2.2130095   -4.4807697    5141.6194            1 
   84900    2.3090053   -4.4949191    5125.1428       -1e+20 
   85000    2.2683251   -4.4676439    5090.9862            1 
   85100    2.2994246   -4.5268721     5173.067       -1e+20 
   85200     2.288457   -4.4462994    5186.0728            1 
   85300    2.2882159   -4.4337483    5130.0865            1 
   85400    2.2348012   -4.4933298    5141.9128       -1e+20 
   85500    2.2711912   -4.4607758    5119.5887       -1e+20 
   85600    2.2856051   -4.4436183    5171.0533            1 
   85700    2.2918221   -4.4853478    5156.2026       -1e+20 
   85800    2.2947549   -4.4984194    5133.1496            1 
   85900    2.2262136   -4.5341677    5118.0752            1 
   86000    2.3038676   -4.5132753    5110.5221       -1e+20 
   86100    2.2515661   -4.4670939    5134.4905       -1e+20 
   86200    2.2797694   -4.4611972    5161.6209            1 
   86300    2.2884373   -4.4468471    5135.7902            1 
   86400    2.2711491   -4.5178387    5115.8343            1 
   86500    2.2704102   -4.4800998    5131.4782            1 
   86600    2.2916258   -4.4180643    5164.5735            1 
   86700    2.2644946   -4.4624361    5175.0274            1 
   86800    2.2327972    -4.447247    5111.8309       -1e+20 
   86900    2.2702795   -4.5217379    5143.0957            1 
   87000    2.2929899   -4.4556265    5153.0116       -1e+20 
   87100    2.2494829   -4.4846621    5129.0899       -1e+20 
   87200    2.2461573   -4.5179624    5098.0111            1 
   87300    2.2861211   -4.4754755    5154.1232            1 
   87400    2.3138639   -4.4716106    5154.8712       -1e+20 
   87500    2.2369487   -4.4725455    5122.9134       -1e+20 
   87600     2.288232   -4.5570622    5121.3327            1 
   87700    2.2960792   -4.5178778    5080.3183            1 
   87800    2.2789534   -4.4990914    5184.5479            1 
   87900    2.3152617   -4.4669676    5168.6507       -1e+20 
   88000    2.2876185   -4.4918831    5125.8274       -1e+20 
   88100    2.2682208   -4.4831339    5136.3897            1 
   88200    2.3175703   -4.5059238    5156.8419            1 
   88300    2.2794344   -4.4954446    5139.9302            2 
   88400     2.261408   -4.4661362    5135.8463       -1e+20 
   88500    2.3043412   -4.4733039    5135.1375       -1e+20 
   88600    2.2538097   -4.4999366    5128.4813            1 
   88700    2.3278261   -4.4938261    5143.8004            1 
   88800    2.3084804   -4.5033322    5123.2256            1 
   88900    2.2620479   -4.5482999    5131.6348            1 
   89000     2.310168    -4.494533    5096.2051       -1e+20 
   89100    2.2740291   -4.5031389    5138.2268            2 
   89200     2.316657   -4.4924988    5169.9844            1 
   89300     2.273549   -4.5175235    5121.0381            1 
   89400    2.2657257   -4.5388033    5111.5701            1 
   89500    2.3059027   -4.4754152    5123.4481            1 
   89600    2.2584077   -4.4948127    5140.2265       -1e+20 
   89700    2.2271563     -4.52307    5096.5766       -1e+20 
   89800     2.260777   -4.4697633    5149.1088            1 
   89900    2.3094384   -4.4572637    5160.5521            1 
   90000    2.2720556   -4.4937013     5125.105            1 
   90100    2.2563234   -4.5116978     5124.731            1 
   90200    2.3210369   -4.4680884    5133.4575       -1e+20 
   90300    2.2536816   -4.4478868    5171.5045            1 
   90400    2.2872053   -4.5161494    5131.1623       -1e+20 
   90500    2.2756062   -4.4645618    5119.5286       -1e+20 
   90600    2.2678669   -4.4859993    5183.7617            1 
   90700    2.2916116   -4.3994768    5156.4886            2 
   90800    2.3031161   -4.4615364    5167.4949            1 
   90900    2.2652546   -4.5081211    5130.3125       -1e+20 
   91000    2.3036778    -4.475254    5133.8378       -1e+20 
   91100       2.2906   -4.4908775    5170.6475            1 
   91200    2.2492921   -4.4892255      5117.29            1 
   91300    2.3114731   -4.5219865    5106.5413            1 
   91400    2.2382943   -4.5148093    5141.0374            1 
   91500    2.2907007    -4.472961    5119.7865            1 
   91600    2.2679264   -4.4311313    5155.5582            1 
   91700    2.2783088   -4.4614156    5158.3268       -1e+20 
   91800    2.2958974   -4.4844933    5137.0164            1 
   91900     2.232316   -4.4935085    5131.3282       -1e+20 
   92000    2.3181704   -4.4998548     5123.419            1 
   92100    2.2786659   -4.4964783    5139.2488       -1e+20 
   92200    2.2857298   -4.5024293    5128.3369       -1e+20 
   92300    2.3096252   -4.5352817    5140.9843            1 
   92400    2.3109182    -4.458247    5170.3816       -1e+20 
   92500    2.2945084   -4.4616686    5130.2288       -1e+20 
   92600    2.2837138   -4.5140376    5143.7602            1 
   92700    2.2417432   -4.4508144    5133.3026       -1e+20 
   92800    2.3400196   -4.4471517    5133.8959            2 
   92900    2.2755678   -4.4810255    5184.3337            1 
   93000    2.2726339   -4.4483607    5154.3521            1 
   93100    2.2381682   -4.4719946    5120.9139       -1e+20 
   93200     2.263295    -4.507687    5126.6895       -1e+20 
   93300    2.2845074   -4.4529812    5161.5772       -1e+20 
   93400    2.2774851   -4.4867108    5148.6444            1 
   93500    2.2398298   -4.4935706    5093.9834            1 
   93600    2.3204497     -4.50576    5127.0077            1 
   93700    2.2942082   -4.4879656    5181.4484            1 
   93800    2.2695335   -4.4831545     5152.053       -1e+20 
   93900    2.2845373   -4.4740071    5110.5345       -1e+20 
   94000    2.2876326    -4.514006    5149.5807            1 
   94100    2.2481117   -4.4956202    5091.5049            1 
   94200    2.2769305   -4.5100496    5108.0011            2 
   94300     2.281574    -4.500638     5166.454            1 
   94400    2.2684853   -4.4232148    5135.9812            1 
   94500    2.2875349   -4.5168738     5131.708            3 
   94600    2.2996476   -4.4457041    5161.3837       -1e+20 
   94700    2.3154848   -4.4446202    5161.0663            1 
   94800    2.2841796   -4.4975125    5164.9383       -1e+20 
   94900    2.2382181   -4.4561251    5119.0535            1 
   95000    2.2473009   -4.4705723    5106.2279            1 
   95100    2.2681293   -4.4650861    5168.0161            1 
   95200    2.3507329   -4.4553009    5170.6569            1 
   95300    2.2391994   -4.4469757    5161.6272       -1e+20 
   95400    2.2667551    -4.485956    5115.3168            1 
   95500    2.3042738   -4.5441267    5112.1404            1 
   95600     2.242383   -4.4847989     5170.783       -1e+20 
   95700    2.3127133   -4.4295709    5121.7227            2 
   95800    2.2527624   -4.4747812    5157.3873       -1e+20 
   95900    2.2842798   -4.4809498     5144.689       -1e+20 
   96000    2.3109566     -4.47882    5135.5811            1 
   96100    2.2182284   -4.4255439    5162.5765            1 
   96200    2.2921059   -4.4760506    5119.1038            1 
   96300    2.2489872   -4.4789224    5142.7811            1 
   96400    2.3347434   -4.4690942    5162.1026            1 
   96500    2.2830895   -4.4591473    5164.5653       -1e+20 
   96600    2.2729915   -4.4505857    5150.2918       -1e+20 
   96700    2.2964953   -4.4595351     5145.995       -1e+20 
   96800    2.2535367    -4.491242    5102.4994            1 
   96900    2.2689735   -4.5076824    5144.2926            1 
   97000    2.3021544   -4.4746854    5133.9563       -1e+20 
   97100    2.2452155   -4.4882505    5133.7849       -1e+20 
   97200    2.3065745   -4.4924219    5087.0962       -1e+20 
   97300    2.2215841   -4.5122402    5122.1849       -1e+20 
   97400    2.2842266   -4.5087356    5110.4482            1 
   97500    2.3184739   -4.5005262    5114.8163       -1e+20 
   97600    2.2336018   -4.5244455    5174.1589       -1e+20 
   97700    2.3399196   -4.4957765    5128.7667       -1e+20 
   97800    2.2531494   -4.4570592    5163.4673            1 
   97900    2.3031049   -4.4729994    5164.8517            1 
   98000     2.284644    -4.497328    5148.3606       -1e+20 
   98100    2.3191407   -4.4809397    5152.2416            1 
   98200    2.2672727   -4.4337118    5173.0458            1 
   98300    2.2797164   -4.5184564    5107.9839            1 
   98400     2.272016   -4.4923448    5147.8501            1 
   98500    2.2596825   -4.4023353    5181.4324       -1e+20 
   98600    2.3211321   -4.4684222    5143.0582            2 
   98700    2.2633216    -4.494333    5125.5276            1 
   98800    2.2863178    -4.512447    5088.8425            1 
   98900    2.2471387   -4.5519752    5117.9292            1 
   99000    2.3038374   -4.5412457    5126.3367            1 
   99100     2.317783     -4.52197    5138.4545            1 
   99200    2.2394938   -4.4660368    5152.9436       -1e+20 
   99300    2.3018568   -4.4322328     5122.719       -1e+20 
   99400    2.2495369   -4.4425703    5179.5367            1 
   99500    2.3236662   -4.4903031    5126.6562            2 
   99600    2.2712662   -4.4894832    5131.8775       -1e+20 
   99700    2.2438412   -4.5476982     5120.538            1 
   99800    2.2997332   -4.5282586    5086.0354       -1e+20 
   99900    2.2330918   -4.4582038    5158.7083            1 
  100000    2.2948638   -4.4571088    5142.4508            1 
  100100    2.2465206   -4.4597605    5150.8807       -1e+20 
  100200    2.3494702   -4.4425141    5140.1123       -1e+20 
  100300    2.2679653   -4.4595832    5145.3968            1 
  100400    2.2432489   -4.4939817     5139.655            1 
  100500    2.2990307   -4.4776613    5108.3146       -1e+20 
  100600    2.2529368   -4.5086726    5137.3794            1 
  100700    2.3116581   -4.5204858    5119.6063            2 
  100800    2.2669903   -4.5448112    5100.9251       -1e+20 
  100900    2.2977665   -4.5626122    5108.1153            1 
  101000    2.2931249   -4.5201109    5145.5907       -1e+20 
  101100    2.3011538   -4.4724863    5143.7921            1 
  101200    2.2727385   -4.5124095    5113.1961       -1e+20 
  101300    2.3130685   -4.5242883    5133.6644       -1e+20 
  101400    2.2523475   -4.5309071    5090.4205            1 
  101500    2.2647115   -4.4730717    5125.4903            1 
  101600     2.295906   -4.5046858    5136.2807            1 
  101700    2.2272691   -4.4964885    5126.5135            1 
  101800    2.3212386   -4.4796657    5115.6151            1 
  101900     2.231841   -4.4562005    5161.8693            1 
  102000    2.2842957   -4.4429132    5135.3463            1 
  102100    2.3152924   -4.4756986    5150.1308       -1e+20 
  102200    2.2304796   -4.4833861    5151.6924            1 
  102300    2.2996071    -4.465974    5109.5511       -1e+20 
  102400    2.2371649   -4.5201699    5116.4227            1 
  102500    2.3000855   -4.5225701    5139.4137            1 
  102600      2.27577   -4.4601444    5122.4669       -1e+20 
  102700    2.2328652   -4.5309579    5098.1416       -1e+20 
  102800    2.2776023   -4.5260491    5101.1651       -1e+20 
  102900    2.2895017   -4.4652581     5171.429            1 
  103000    2.3016392   -4.4839275    5147.4958            2 
  103100    2.2776485   -4.5100652    5109.4652            1 
  103200    2.2700862   -4.4608021    5134.4453       -1e+20 
  103300    2.2973527   -4.4692006    5151.9026            1 
  103400    2.2905624   -4.4454797    5184.9269            1 
  103500    2.3107457   -4.4817445    5140.0981       -1e+20 
  103600    2.2579926    -4.490681    5139.5933            1 
  103700    2.2660104   -4.3909826    5109.6503            1 
  103800    2.2257686   -4.4996471    5157.3918       -1e+20 
  103900     2.304705   -4.5190069    5136.1414            1 
  104000    2.2811241   -4.4253711    5125.6393            1 
Loop time of 166.661 on 32 procs for 100000 steps with 4000 atoms

Performance: 103683.246 tau/day, 600.019 timesteps/s
99.7% CPU use with 32 MPI tasks x no OpenMP threads

MPI task timing breakdown:
Section |  min time  |  avg time  |  max time  |%varavg| %total
---------------------------------------------------------------
Pair    | 12.384     | 12.915     | 13.365     |   7.4 |  7.75
Neigh   | 2.3378     | 2.3753     | 2.4308     |   1.5 |  1.43
Comm    | 8.9767     | 10.095     | 12.316     |  31.7 |  6.06
Output  | 3.5673     | 3.5679     | 3.5793     |   0.1 |  2.14
Modify  | 132.92     | 136.37     | 137.66     |  13.0 | 81.83
Other   |            | 1.336      |            |       |  0.80

Nlocal:        125.000 ave         135 max         116 min
Histogram: 2 2 3 4 7 4 7 0 2 1
Nghost:        1664.75 ave        1699 max        1633 min
Histogram: 3 1 4 2 8 4 5 3 1 1
Neighs:        11127.2 ave       12186 max        9599 min
Histogram: 1 1 0 5 6 4 4 5 3 3
FullNghs:      22256.3 ave       23889 max       20008 min
Histogram: 2 0 0 5 3 8 4 3 5 2

Total # of neighbors = 712202
Ave neighs/atom = 178.05050
Neighbor list builds = 8861
Dangerous builds = 1256

#clear
#
#next RN
#
#jump SELF
Total wall time: 0:02:47
