
units lj                  # Use reduced LJ style units
atom_style atomic         # Uncharged point particles
atom_modify map hash      # Needed for indexing of clusters etc
                          # Used to be able to find where atoms are in relation to each other.

lattice fcc 1.0 spacing 1 1 1
Lattice spacing in x,y,z = 1.5874011 1.5874011 1.5874011
region box block 0 10 0 10 0 10 units lattice
create_box 2 box
Created orthogonal box = (0.0000000 0.0000000 0.0000000) to (15.874011 15.874011 15.874011)
  3 by 4 by 4 MPI processor grid
create_atoms 1 box
Created 4000 atoms
  using lattice units in orthogonal box = (0.0000000 0.0000000 0.0000000) to (15.874011 15.874011 15.874011)
  create_atoms CPU = 0.002 seconds
set type 1 type/fraction 2 0.47 78393
Setting atom values ...
  1873 settings made for type/fraction
mass 1 1.0
mass 2 1.0
pair_style lj/cut  3.5
pair_modify tail  yes
pair_coeff 1  1  1.0  1.0   # Intearaction between 1 and 1 set with epsilon = 1 and sigma = 1
pair_coeff 1  2  1.5  0.8
pair_coeff 2  2  0.5  0.88

write_data data.0
System init for write_data ...
Neighbor list info ...
  update every 1 steps, delay 10 steps, check yes
  max neighbors/atom: 2000, page size: 100000
  master list distance cutoff = 3.8
  ghost atom cutoff = 3.8
  binsize = 1.9, bins = 9 9 9
  1 neighbor lists, perpetual/occasional/extra = 1 0 0
  (1) pair lj/cut, perpetual
      attributes: half, newton on
      pair build: half/bin/atomonly/newton
      stencil: half/bin/3d
      bin: standard
WARNING: Not all mixed pair coeffs generated from mixing. Use write_data with 'pair ij' option to store all pair coeffs. (../write_data.cpp:312)


#############################
#   M E L T   S Y S T E M   #
#############################

velocity all create 2.4 5833274 mom yes dist gaussian # Assign velocities
                                                    # Temperature 2.4, random number seed, zero linear momentum
                                                                                # Gaussian distribution

timestep 0.002   # simulation timestep
thermo 1000       # output thermodynamic data every 1000 steps bf 100

# Define a fix  in this case with index 1 applied to all
# particles in the simulation. This fix is for simulations
# in the anisotropic NPT ensemble. Note that we use the MTK
# correction.
fix 1 all npt temp 2.4 2.4 0.1 iso 5.68 5.68 0.5 mtk yes tchain 5 pchain 5 # Use NPT ensemble
                                                                         # Set temperature and pressure and damping
                                                                         # Numbers of thermostats in chain and in barostat
run 10000          # run for 10000 steps
Per MPI rank memory allocation (min/avg/max) = 3.642 | 3.644 | 3.648 Mbytes
Step Temp E_pair E_mol TotEng Press Volume 
       0          2.4   -5.4815223            0   -1.8824223   -4.2035566         4000 
    1000    2.4353093   -4.9273476            0   -1.2752969    5.7582803    3768.8539 
    2000    2.4066257   -4.9665081            0   -1.3574721    5.7475837    3744.8735 
    3000    2.3919096   -5.0455484            0    -1.458581    5.4768908    3727.3863 
    4000    2.3860791   -4.9948829            0    -1.416659     5.546438    3742.0117 
    5000    2.4395279   -4.9554846            0   -1.2971077     5.451897    3779.6781 
    6000    2.3645241   -4.9343144            0   -1.3884149     5.683619    3765.5228 
    7000    2.3737746    -4.850916            0   -1.2911443    5.6952648    3800.2125 
    8000    2.3776573   -5.0347386            0   -1.4691442    5.3925896    3742.0536 
    9000     2.381581   -4.9249134            0    -1.353435    5.7398473    3769.9159 
   10000    2.3534943    -4.983142            0    -1.453783    5.7625143    3723.9691 
Loop time of 2.64107 on 48 procs for 10000 steps with 4000 atoms

Performance: 654279.407 tau/day, 3786.339 timesteps/s
99.6% CPU use with 48 MPI tasks x no OpenMP threads

MPI task timing breakdown:
Section |  min time  |  avg time  |  max time  |%varavg| %total
---------------------------------------------------------------
Pair    | 1.1716     | 1.2418     | 1.3516     |   2.8 | 47.02
Neigh   | 0.21267    | 0.22131    | 0.23704    |   0.9 |  8.38
Comm    | 0.79144    | 0.89091    | 0.9547     |   3.4 | 33.73
Output  | 0.00025077 | 0.00025602 | 0.0003227  |   0.0 |  0.01
Modify  | 0.24673    | 0.27079    | 0.30146    |   3.1 | 10.25
Other   |            | 0.01602    |            |       |  0.61

Nlocal:        83.3333 ave          93 max          74 min
Histogram: 1 3 4 5 11 12 6 4 0 2
Nghost:        1717.12 ave        1744 max        1684 min
Histogram: 3 1 3 4 9 8 3 9 1 7
Neighs:        10244.2 ave       11946 max        8900 min
Histogram: 3 2 7 7 9 12 2 4 0 2

Total # of neighbors = 491724
Ave neighs/atom = 122.93100
Neighbor list builds = 901
Dangerous builds = 180

# Equilibrate just above the melting temperature to avoid step fn in T

fix 1 all npt temp 1.25 1.25 0.1 iso 5.68 5.68 0.5 mtk yes tchain 5 pchain 5
run 2000
Per MPI rank memory allocation (min/avg/max) = 3.644 | 3.646 | 3.649 Mbytes
Step Temp E_pair E_mol TotEng Press Volume 
   10000    2.3534943    -4.983142            0    -1.453783    5.7625143    3723.9691 
   11000    1.2403044   -7.0140035            0    -5.154012    5.7442546     2946.402 
   12000    1.2605191    -7.102879            0   -5.2125731    5.5140045    2933.2282 
Loop time of 0.631645 on 48 procs for 2000 steps with 4000 atoms

Performance: 547142.804 tau/day, 3166.336 timesteps/s
99.6% CPU use with 48 MPI tasks x no OpenMP threads

MPI task timing breakdown:
Section |  min time  |  avg time  |  max time  |%varavg| %total
---------------------------------------------------------------
Pair    | 0.29223    | 0.31109    | 0.33163    |   1.6 | 49.25
Neigh   | 0.041188   | 0.042819   | 0.044334   |   0.3 |  6.78
Comm    | 0.20585    | 0.22765    | 0.2472     |   2.0 | 36.04
Output  | 5.1808e-05 | 5.3041e-05 | 6.7294e-05 |   0.0 |  0.01
Modify  | 0.040146   | 0.045058   | 0.049255   |   1.2 |  7.13
Other   |            | 0.004972   |            |       |  0.79

Nlocal:        83.3333 ave          90 max          77 min
Histogram: 3 4 4 5 9 5 12 1 1 4
Nghost:        2019.85 ave        2040 max        1993 min
Histogram: 1 2 1 8 6 7 7 6 8 2
Neighs:        13015.4 ave       14103 max       11866 min
Histogram: 7 0 2 3 6 11 9 5 3 2

Total # of neighbors = 624739
Ave neighs/atom = 156.18475
Neighbor list builds = 142
Dangerous builds = 7

#############################
# L I N E A R  Q U E N C H  #
#############################

# Define solid atoms. This closely follows ten Wolde  Ruiz-Montero and Frenkel  Faraday Discuss  1996  104  93-110
# Compute components of the per-atom q6 vector
compute q6 all orientorder/atom degrees 1 6 components 6 nnn NULL cutoff 1.3 # compute the Q6 parameter.
                                                                             # Use all neighbours within 1.3 unit cell.

# get number of connections
compute coord_number all coord/atom orientorder q6 0.5

# An atom is solid if it has 8 or more connections (of a possible 14)
variable is_solid atom c_coord_number>=8
group solid dynamic all var is_solid    # Must be dynamic to update
dynamic group solid defined

# do clustering
compute cluster solid cluster/atom 1.3 # Create a cluster where all atoms within are solid and max 1.3 units from another member

# define chunks one chunk per cluster
compute clus_chunks solid chunk/atom c_cluster nchunk every compress yes  # Says which atoms are in which chunk

# count the size of each chunk
compute size_chunks solid property/chunk clus_chunks count


# Find the maximum entry in the vector of chunk sizes
variable max_n equal max(c_size_chunks)


# Thermo style which includes this variable
# thermo_style custom step temp pe vol v_max_n

thermo ${N}  # Print the thermo information every 100 steps
thermo 1000  

# Reset the npt fix at a lower temperature (below freezing)
fix 1  all npt temp  ${temp} ${temp}  0.1  iso  5.68  5.68  0.5  mtk yes tchain  5  pchain  5
fix 1  all npt temp  0.45 ${temp}  0.1  iso  5.68  5.68  0.5  mtk yes tchain  5  pchain  5
fix 1  all npt temp  0.45 0.45  0.1  iso  5.68  5.68  0.5  mtk yes tchain  5  pchain  5

dump dmp2 all dcd ${N} traj.dcd
dump dmp2 all dcd 1000 traj.dcd


compute msd all msd com yes
variable twopoint equal c_msd[4]/6/(step*dt+1.0e-6)
fix 9 all vector 10 c_msd[4]
variable fit equal slope(f_9)/6/(10*dt)
thermo_style custom step temp pe c_msd[4] v_twopoint v_fit v_max_n

fix 1 all npt temp 1.25 ${temp} 0.1 iso 5.68 5.68 0.5 mtk yes tchain 5 pchain 5
fix 1 all npt temp 1.25 0.45 0.1 iso 5.68 5.68 0.5 mtk yes tchain 5 pchain 5
run 2000000 # 5000000  # Run for this many steps
Neighbor list info ...
  update every 1 steps, delay 10 steps, check yes
  max neighbors/atom: 2000, page size: 100000
  master list distance cutoff = 3.8
  ghost atom cutoff = 3.8
  binsize = 1.9, bins = 8 8 8
  4 neighbor lists, perpetual/occasional/extra = 1 3 0
  (1) pair lj/cut, perpetual
      attributes: half, newton on
      pair build: half/bin/atomonly/newton
      stencil: half/bin/3d
      bin: standard
  (2) compute orientorder/atom, occasional
      attributes: full, newton on
      pair build: full/bin/atomonly
      stencil: full/bin/3d
      bin: standard
  (3) compute coord/atom, occasional
      attributes: full, newton on
      pair build: full/bin/atomonly
      stencil: full/bin/3d
      bin: standard
  (4) compute cluster/atom, occasional
      attributes: full, newton on
      pair build: full/bin/atomonly
      stencil: full/bin/3d
      bin: standard
Per MPI rank memory allocation (min/avg/max) = 9.832 | 9.840 | 9.844 Mbytes
Step Temp PotEng c_msd[4] v_twopoint v_fit v_max_n 
   12000    1.2605191    -7.102879 1.8086608e-30 1.2560144e-32 8.3333333e+20            1 
   13000    1.2465276   -7.1142283   0.44367115 0.0028440458  0.036083899            3 
   14000     1.241022   -7.1758358   0.88293071 0.0052555397  0.035212676            1 
   15000    1.2323872   -7.1486377    1.2815589 0.0071197716  0.035204888            1 
   16000    1.2489236   -7.1631413    1.6792189 0.0087459316  0.034594099            2 
   17000    1.2444031   -7.1680085    2.0926648  0.010258161  0.034618084            2 
   18000     1.238028   -7.1554383    2.5327421  0.011725657  0.034353263            2 
   19000    1.2408427   -7.1485313    2.8713083  0.012593457  0.034276428            2 
   20000    1.2424374   -7.1239208    3.3328812  0.013887005  0.034205021            3 
   21000    1.2866253    -7.128388    3.6928626  0.014654216   0.03412843            1 
   22000    1.2491173   -7.1214944    4.1109721  0.015571864  0.033997592            2 
   23000    1.2586932   -7.1484989    4.5855146  0.016614183  0.034007161            1 
   24000    1.2493852   -7.1462139    4.9785481  0.017286625  0.034083945            1 
   25000    1.2344611   -7.1313008    5.3707887  0.017902629  0.034178678            2 
   26000    1.2239318   -7.1338363    5.6483091  0.018103554  0.034054782            3 
   27000    1.2490166    -7.134311    6.0572818  0.018695314  0.033830162            1 
   28000    1.2306313   -7.1599426    6.4552151   0.01921195  0.033651924            1 
   29000    1.2300261   -7.1504989    6.8223578  0.019604476  0.033416621            1 
   30000    1.2460936   -7.1073675    7.1471785  0.019853273  0.033230148            1 
   31000    1.2093925   -7.1420955    7.4294084  0.019971528  0.032987459            2 
   32000    1.2592318   -7.1470958    7.7809435  0.020262873  0.032695192            3 
   33000    1.2241894   -7.1252662    8.2085858  0.020728752  0.032476839            2 
   34000    1.2384331   -7.1972979    8.5986178  0.021075043  0.032342254            2 
   35000    1.2187692   -7.1672774     8.996395  0.021419988  0.032230571            2 
   36000    1.2472966    -7.162256    9.5806502  0.022177431  0.032239266            9 
   37000    1.2425682   -7.1637057    9.9771694  0.022471102  0.032332628            1 
   38000    1.2538148   -7.1396711    10.460442  0.022939566  0.032439288            1 
   39000    1.2238199   -7.1809899    10.761824  0.022995351  0.032531626            1 
   40000    1.2208844   -7.1897645    11.175768  0.023282849  0.032612223            1 
   41000    1.2470275   -7.1367067     11.56533  0.023506768  0.032661097            1 
   42000    1.2236934   -7.1912792    11.966723  0.023743498  0.032707799            1 
   43000    1.2002397   -7.1509737    12.351854  0.023937701  0.032701459            1 
   44000    1.2261099    -7.166092     12.84395  0.024325663  0.032737145            1 
   45000    1.2375357   -7.1707187    13.217906  0.024477603  0.032788332            3 
   46000    1.2535186   -7.1675493    13.694574   0.02480901   0.03285869            3 
   47000    1.2445295   -7.1654787     14.13247   0.02505757  0.032939109            2 
   48000    1.2350633   -7.1652311    14.470396  0.025122214  0.033019146            2 
   49000    1.2198796   -7.1456657    14.840192  0.025238421  0.033059823            1 
   50000    1.2325508   -7.2081974    15.272367  0.025453945  0.033087786            1 
   51000    1.2294051   -7.1410324    15.724581  0.025693759  0.033128075            1 
   52000    1.2244298   -7.1469229    16.133668  0.025855237   0.03317996            3 
   53000    1.2159365    -7.142104    16.514972  0.025966936  0.033222464            1 
   54000    1.2223821   -7.1675831    16.904815  0.026087677  0.033252984            3 
   55000    1.2128799   -7.2139322    17.415335   0.02638687   0.03330671            2 
   56000    1.2783084   -7.2330814     17.79477  0.026480312  0.033357321            3 
   57000    1.2235912   -7.1384781    18.282147  0.026728284  0.033410744            1 
   58000    1.2353981   -7.1739932    18.715839  0.026890574  0.033461813            2 
   59000    1.2134952   -7.1515368    19.107347  0.026987779  0.033513056            1 
   60000    1.2327434   -7.2074706    19.548373  0.027150518  0.033574303            3 
   61000    1.2320993   -7.2104691    19.944333  0.027246356  0.033623964            1 
   62000    1.2650241   -7.2162846    20.517346  0.027577078  0.033675633            5 
   63000    1.2339071   -7.1642277    20.825526  0.027546991  0.033720945            2 
   64000    1.2019796   -7.1614238    21.328634  0.027771659  0.033768075            1 
   65000     1.233942    -7.167018    21.580716  0.027667585  0.033793651            1 
   66000    1.2050605   -7.1978441    21.823435  0.027554842  0.033805129            1 
   67000     1.213929   -7.1923452    22.381371  0.027837526  0.033817846            3 
   68000    1.2373995   -7.1575241    22.748443  0.027877993  0.033825826            1 
   69000    1.2020985   -7.1842971    23.147691  0.027956149  0.033831708            1 
   70000    1.2140044    -7.237799    23.559362  0.028046859  0.033838929            3 
   71000    1.2371504   -7.1726751    23.803236   0.02793807  0.033830337            1 
   72000    1.2239065   -7.2208135    24.199936  0.028009185  0.033810353            2 
   73000    1.2350643   -7.2115376    24.556016  0.028031982  0.033791043            1 
   74000     1.230873     -7.18454    24.878531  0.028016364  0.033766016            3 
   75000    1.2053861   -7.2194974     25.34614  0.028162377  0.033743111            3 
   76000     1.202127   -7.1898785    25.841692  0.028335189  0.033724002            3 
   77000    1.2369969   -7.1938795    26.267311  0.028427825  0.033716126            2 
   78000    1.2289295   -7.2226647    26.687453  0.028512236  0.033715896            3 
   79000    1.2218125   -7.2487697     27.11492  0.028602236  0.033723729            3 
   80000    1.2262273   -7.2279134    27.505041  0.028651084  0.033723826            4 
   81000    1.2203282    -7.162372    27.890721  0.028694157  0.033717633            2 
   82000    1.2264209   -7.1842507    28.322919  0.028783455  0.033715447            7 
   83000    1.2250573   -7.1697824    28.723714   0.02883907  0.033717252            1 
   84000    1.2440185   -7.1930026     29.18012  0.028948532  0.033721936            1 
   85000    1.2591143    -7.217631    29.499088  0.028920675  0.033722613            2 
   86000    1.2285171   -7.2305011    29.744402  0.028822095  0.033713489            1 
   87000    1.2080752   -7.2057959    30.049477  0.028783024  0.033698357            1 
   88000    1.2252883   -7.2199808    30.276159  0.028670605  0.033668006            2 
   89000    1.2215883   -7.2280563    30.565911  0.028619767  0.033630597            3 
   90000    1.2175606   -7.2015234    30.878218  0.028590943  0.033584005            1 
   91000    1.2105574   -7.2172174    31.098448  0.028478432  0.033531004            2 
   92000    1.2111614   -7.2029148    31.520483  0.028551162  0.033471423            3 
   93000    1.2196818   -7.2107229    32.037071  0.028707053  0.033420522            1 
   94000     1.195931   -7.2081078    32.581234  0.028884072  0.033387342            1 
   95000    1.2187365   -7.2400193    32.793441  0.028766176  0.033351155            3 
   96000    1.2188262   -7.1725365    33.225703  0.028841756   0.03331025            3 
   97000    1.2399628   -7.1826873    33.410146  0.028702874  0.033265755            2 
   98000    1.2400777   -7.2828872    33.633291  0.028599737  0.033218483            3 
   99000     1.215495   -7.2008869    34.133267  0.028731706  0.033169984            2 
  100000    1.1822664    -7.213196    34.468946  0.028724122  0.033125961            2 
  101000    1.2069262   -7.2148994    34.927906  0.028818404  0.033081926            2 
  102000     1.209247     -7.19497    35.280482  0.028823923  0.033042014            3 
  103000      1.19254    -7.194291    35.740496  0.028916259  0.033009536            1 
  104000    1.2213616    -7.235464    36.075747  0.028906848   0.03297548            1 
  105000    1.2157899   -7.2311403    36.295913   0.02880628  0.032937149            2 
  106000    1.2178412   -7.2276662    36.668848  0.028827711  0.032901408            2 
  107000    1.2169416   -7.2323074    37.172385  0.028950456  0.032864244            3 
  108000    1.2320961   -7.2445843    37.532133  0.028959979  0.032830408            1 
  109000    1.2445942   -7.2122324    38.054793  0.029093878  0.032797082            4 
  110000    1.2194887   -7.3128615    38.092441  0.028857909  0.032764602            2 
  111000    1.2049002   -7.2185728    38.344282  0.028786999  0.032729255            2 
  112000     1.192567   -7.2514656    38.603346  0.028722727  0.032686872            2 
  113000    1.2224701   -7.2512311    38.919224  0.028701493  0.032637949            2 
  114000    1.2289881   -7.1927996    39.348987   0.02876388  0.032589836            2 
  115000    1.2406964    -7.264093    39.454403  0.028590147  0.032541613            1 
  116000    1.2163828   -7.2516866    39.955476  0.028703646  0.032493422            3 
  117000    1.2175834   -7.2129974    40.482499  0.028833689  0.032445168            2 
  118000    1.2003105   -7.2125897    40.545012  0.028633483  0.032396583            2 
  119000    1.2045205   -7.2045505    40.719321  0.028514931  0.032346273            4 
  120000    1.2082014   -7.2802057    40.959406  0.028444032  0.032290961            1 
  121000    1.2109704   -7.2713025    41.271435  0.028423853  0.032234564            1 
  122000    1.1761677   -7.2413505     41.74537  0.028514597  0.032180545            2 
  123000    1.2243087    -7.254475    42.144326  0.028553066  0.032126661            1 
  124000    1.1913809   -7.2537443    42.778357  0.028748896  0.032078555            3 
  125000    1.2060192   -7.2770301    42.948111  0.028632074   0.03203591            1 
  126000    1.1764759   -7.2727136     43.25681  0.028609001  0.031996088            1 
  127000    1.1858746   -7.2280044    43.675104  0.028658205  0.031956441            2 
  128000    1.2128624   -7.2461956    44.091392  0.028705333  0.031919183            2 
  129000    1.2347539   -7.2916455    44.274032  0.028600796  0.031880592            2 
  130000    1.1798174   -7.1959842    44.861775  0.028757548  0.031842153            2 
  131000    1.2118321   -7.2703065    45.042364  0.028652903   0.03180294            3 
  132000    1.1976548   -7.2497775    45.089576  0.028465641  0.031756597            5 
  133000    1.2323114   -7.2908931    45.463021  0.028485602  0.031710043            5 
  134000    1.1958085   -7.2241873    45.922694  0.028558889  0.031667083            4 
  135000    1.1913306   -7.2707132    46.150254  0.028487811  0.031623888            2 
  136000    1.1707137   -7.2643451    46.430237    0.0284499  0.031579405            3 
  137000    1.2037965   -7.2399234    46.822108  0.028480601  0.031533462            2 
  138000    1.1965448   -7.2507913    47.213204  0.028510389  0.031490113            1 
  139000    1.2069717   -7.2889811    47.432183   0.02843656   0.03144892            2 
  140000    1.1873077    -7.268643    47.692184  0.028388204  0.031409944            6 
  141000    1.2044165   -7.2534492    48.236465  0.028508549  0.031367718            2 
  142000    1.1710919   -7.2862179    48.724763  0.028594344  0.031333358            1 
  143000    1.1877644   -7.2768392    48.936455  0.028517747  0.031300398            1 
  144000    1.1990152   -7.2677394    49.211654  0.028478966  0.031265265            3 
  145000    1.2049459   -7.2891789    49.398576  0.028389986   0.03122685            1 
  146000    1.1728092   -7.2458423    50.068528  0.028577927  0.031188786            1 
  147000    1.2012186   -7.2355299    50.137651  0.028422705  0.031149559            3 
  148000    1.1998201   -7.3000626    50.306749  0.028325872  0.031108327            2 
  149000    1.1806864   -7.2586088    50.796533  0.028409694  0.031070003            1 
  150000    1.2018645   -7.2555889    50.947511  0.028304173  0.031029989            1 
  151000    1.2146426    -7.289408    51.139688  0.028222786  0.030988445            2 
  152000    1.2045336   -7.3094286    51.422775  0.028192311  0.030947784            3 
  153000    1.1870008   -7.2387699    51.788883  0.028207453  0.030905663            1 
  154000    1.1829597   -7.3092604    52.019036  0.028148829  0.030862866            3 
  155000    1.1665499   -7.2858324    52.474159  0.028211914   0.03082367            1 
  156000    1.1844362   -7.2624962     52.89966  0.028258365  0.030785706            4 
  157000    1.1774462   -7.2833859    53.236339   0.02825708  0.030751144            3 
  158000    1.1909179   -7.2839955    53.678302  0.028311341  0.030716056            2 
  159000     1.188786   -7.2609788    53.969625  0.028285967  0.030684251            2 
  160000    1.1825437   -7.2687907    54.661795  0.028469685  0.030655069            1 
  161000    1.1793873   -7.2447101    54.963189  0.028448856  0.030628775            1 
  162000    1.1773085   -7.2584274    55.586171  0.028593709  0.030603528            5 
  163000    1.1900415   -7.2797555    55.682668  0.028467622  0.030579612            2 
  164000    1.1508104    -7.289184     55.92709  0.028418237  0.030551477            4 
  165000    1.1987786   -7.2970489    56.328644   0.02844881  0.030525062            2 
  166000    1.1663869   -7.2988536    56.641998  0.028434738  0.030502675            1 
  167000    1.1837611   -7.3112113    57.153801   0.02851986  0.030478449            1 
  168000    1.1812207   -7.2319685    57.648958  0.028595713  0.030454331            1 
  169000    1.1776205   -7.2719001    57.594573  0.028399691  0.030431303            2 
  170000     1.180114   -7.2762102    58.020968  0.028441651  0.030409501            1 
  171000    1.1897609   -7.3101878    58.491096  0.028504432  0.030388984            3 
  172000    1.1882298   -7.3061862    58.740465  0.028459527  0.030368886            4 
  173000    1.1692266   -7.3248881    59.191379  0.028512225   0.03035023            1 
  174000    1.2057645   -7.2628251    59.450342  0.028472386  0.030331526            2 
  175000    1.1649559   -7.2929716    59.699437  0.028428303  0.030311258            3 
  176000    1.1694257    -7.307224    59.725079   0.02827892  0.030288756            2 
  177000    1.1899007   -7.3165785    60.186109   0.02833621  0.030265998            4 
  178000    1.1872156   -7.3145344    60.534128  0.028339948  0.030243717            4 
  179000    1.1539657   -7.3027772    60.920732  0.028361607   0.03022081            2 
  180000    1.1859851   -7.3121905    61.376039  0.028414833  0.030197705            1 
  181000    1.1698147   -7.2940109    61.847854  0.028475071  0.030178302            1 
  182000    1.1855475    -7.289956    62.001612  0.028389016  0.030156794            2 
  183000    1.1984762   -7.3266803    62.253008  0.028348364  0.030136364            1 
  184000    1.1764648    -7.331024    62.318643  0.028224023  0.030114076            3 
  185000    1.2137552   -7.2868953    62.716611  0.028250726  0.030090234            3 
  186000    1.1702843   -7.3351517     63.15365  0.028294646  0.030066509            1 
  187000    1.1944076   -7.2965979    63.408453  0.028256887   0.03004371            3 
  188000    1.2122385   -7.2886884    63.636865   0.02820783  0.030019446            5 
  189000    1.1878349     -7.32568     63.79601  0.028128752  0.029997201            2 
  190000    1.1582401   -7.2662713    64.480559  0.028280947  0.029974639            4 
  191000     1.203257   -7.3124834    64.295348  0.028052071  0.029950457            2 
  192000    1.1891729   -7.3420221    64.619936  0.028046847  0.029924364            5 
  193000    1.1750727   -7.3474752    65.101357  0.028109394  0.029897944            2 
  194000    1.1995743   -7.3060988    65.441812  0.028110744  0.029871921            2 
  195000    1.1577926   -7.3105952     65.89431  0.028159962  0.029848254            2 
  196000    1.1842973   -7.3207102    66.447858   0.02825164  0.029827549            2 
  197000    1.1902896   -7.3244303     66.89625  0.028297906  0.029808541            1 
  198000    1.1746757   -7.3443146    66.923488  0.028166451  0.029789841            4 
  199000    1.1816934   -7.3463866    67.158229  0.028123212  0.029769343            2 
  200000    1.1598223    -7.316707    67.186494  0.027994372  0.029746633            1 
  201000    1.1698203   -7.3025761    67.647774  0.028046341  0.029722759            4 
  202000    1.1436869   -7.3110527    67.821745  0.027979268  0.029696761            2 
  203000    1.1736881   -7.3566999    67.918247  0.027881054   0.02966993            2 
  204000    1.1843972   -7.3536278    68.509025  0.027985713  0.029642667            2 
  205000    1.1950055   -7.3424568    68.576087  0.027876458  0.029616492            3 
  206000    1.1822767   -7.3130817    68.950011  0.027892399  0.029589844            1 
  207000    1.1965072   -7.3285215    69.171046  0.027846637  0.029562629            1 
  208000    1.1645944   -7.3450541    69.626859  0.027895376  0.029534877            2 
  209000    1.1484955   -7.3276766    69.954493  0.027892541  0.029507988            2 
  210000    1.1835439   -7.2794046    70.465643  0.027962557  0.029484939            2 
  211000    1.1627923   -7.3958986    70.572513  0.027872241  0.029461521            1 
  212000     1.172185   -7.3435111    70.944556  0.027887011  0.029438024            1 
  213000    1.1752521   -7.3221186    71.425444  0.027944227  0.029417367            2 
  214000    1.1821306   -7.3324024    72.230417  0.028127109  0.029398883            4 
  215000    1.1798404   -7.3191415     71.95624  0.027890016  0.029380238            1 
  216000    1.1909403   -7.3177698    72.516413  0.027977011  0.029359701            3 
  217000    1.1913414   -7.4005082    72.526523  0.027851967  0.029338197            5 
  218000    1.1597917   -7.3740169      72.8891  0.027862806  0.029315418            5 
  219000    1.1956497   -7.3527357    72.930445  0.027751311   0.02929273            1 
  220000     1.174518   -7.3351934    73.403469  0.027804344  0.029269826            2 
  221000    1.1525269   -7.2844049      73.8757  0.027856599  0.029245833            2 
  222000    1.1679992   -7.3839869    73.642541  0.027643596  0.029220675            3 
  223000    1.1739408   -7.3577869    73.908004  0.027618835  0.029193795            3 
  224000    1.1270423   -7.3457166    74.220056  0.027611628  0.029165818            1 
  225000    1.1821676   -7.3217202      74.7123  0.027671222  0.029138796            2 
  226000    1.1759881   -7.3728826    75.029421  0.027665716   0.02911421            3 
  227000    1.1592516   -7.3257939    75.479777  0.027709169  0.029089965            3 
  228000    1.1666135    -7.325749    75.768782  0.027693268  0.029068718            2 
  229000    1.1644128    -7.355246    76.248986  0.027747084  0.029048039            2 
  230000    1.1729834   -7.3835519     76.26808  0.027633362  0.029027063            3 
  231000    1.1575735   -7.3247613    76.730069    0.0276804  0.029005458            2 
  232000     1.181615   -7.3740441    76.666735  0.027538339  0.028983204            3 
  233000    1.1806394   -7.3566055    77.082826  0.027568965  0.028958822            3 
  234000    1.1437257   -7.3690335    77.725126  0.027679888  0.028936652            3 
  235000    1.1656786   -7.3588453    77.644181  0.027533397  0.028915674            1 
  236000    1.1822074   -7.3228207    78.473108  0.027709431  0.028896229            2 
  237000    1.1698909   -7.3671259    79.079512  0.027805735  0.028877393            2 
  238000    1.1608923   -7.3370293    78.913069  0.027630626    0.0288594            4 
  239000    1.1354888   -7.3775179    79.111135  0.027584078  0.028838727            2 
  240000    1.1627297   -7.3771274     79.37489  0.027560726  0.028817561            4 
  241000    1.1634586     -7.35039    79.668383   0.02754785  0.028795841            1 
  242000    1.1898503    -7.401936    79.830543  0.027489856  0.028774045            3 
  243000    1.1605053   -7.3977681    80.053761  0.027453279  0.028752404            2 
  244000     1.151447   -7.3649708    80.669361  0.027551011  0.028730857            1 
  245000    1.1684814    -7.345513    81.022777  0.027558768  0.028710744            2 
  246000    1.1551743     -7.39401    81.090192  0.027469577  0.028689914            4 
  247000    1.1548853   -7.3577392    81.440094  0.027476415  0.028671101            1 
  248000    1.1651302   -7.3749638     81.84426  0.027501431  0.028652894            2 
  249000    1.1575289   -7.3540514    82.196758  0.027508955  0.028636102            4 
  250000    1.1617517   -7.4167571    82.570418  0.027523472  0.028619608            3 
  251000    1.1576756    -7.419151    82.763764  0.027478009  0.028602677            1 
  252000    1.1354005   -7.3255013    83.614747  0.027650379  0.028588235            4 
  253000    1.1448583   -7.3703819    83.343676  0.027451804  0.028571983            7 
  254000    1.1365823   -7.4006071     83.70684  0.027462874  0.028554575            1 
  255000    1.1243549   -7.3879554    83.817939  0.027391483  0.028536822            3 
  256000    1.1500389     -7.41043    84.198621  0.027408405  0.028517615            2 
  257000    1.1571968   -7.4239862    84.401581  0.027367568  0.028499122            2 
  258000     1.150652   -7.4292345    84.797533  0.027389384  0.028481293            7 
  259000    1.1271218   -7.3768369    85.519431  0.027515904   0.02846446            2 
  260000    1.1503643   -7.3814627    85.964967  0.027552874  0.028447705            1 
  261000    1.1549217   -7.4028407    86.255117  0.027539948  0.028432724            1 
  262000    1.1384497   -7.3773951    86.090498  0.027382474  0.028416828            1 
  263000    1.1462584   -7.3344414    87.055087  0.027583995  0.028401679            1 
  264000     1.156621    -7.379132    87.065736  0.027482871  0.028387076            3 
  265000    1.1319839   -7.4014775    87.711329  0.027582179  0.028373391            2 
  266000    1.1831224   -7.3742626    88.068357  0.027590337  0.028360977            2 
  267000    1.1627988   -7.3840071     88.51848   0.02762749  0.028348353            2 
  268000    1.1601056   -7.3438886     89.15625  0.027722714  0.028337181            1 
  269000    1.1327919   -7.3782095    89.414621  0.027699697  0.028328086            4 
  270000    1.1462153   -7.4021449    89.342484  0.027574841  0.028319907            1 
  271000     1.165909   -7.4095498    89.542184  0.027534497  0.028310021            1 
  272000    1.1473501   -7.4118204    90.203293  0.027635813  0.028300375            4 
  273000     1.145953   -7.3924777    90.100047  0.027503067  0.028289968            5 
  274000    1.1513201   -7.4260785    90.081178  0.027396952    0.0282777            2 
  275000    1.1396748   -7.3790306    90.888239  0.027541891  0.028265989            1 
  276000    1.1388534   -7.4175628    90.939385  0.027457544  0.028253415            2 
  277000    1.1285701   -7.3861402    91.259045  0.027454586  0.028240872            2 
  278000    1.1309644   -7.4183331    91.569983  0.027449036  0.028227965            2 
  279000    1.1204515    -7.442575    91.488197  0.027326224  0.028215364            2 
  280000      1.15839   -7.4259252    92.167141  0.027430697  0.028202395            1 
  281000     1.127776   -7.4182412    92.163882  0.027332112  0.028189811            5 
  282000    1.1324977   -7.3982988    92.764646   0.02741272  0.028176522            2 
  283000    1.1325021   -7.3860251    93.069251  0.027405551  0.028163263            1 
  284000    1.1410048    -7.434675    92.745949  0.027214187  0.028149388            1 
  285000    1.1494294   -7.4186875    93.586742  0.027364544  0.028135092            8 
  286000    1.1599112   -7.4382131    93.743553  0.027314555  0.028122174            1 
  287000    1.1364082   -7.3940596    94.571283  0.027459722  0.028109504            2 
  288000    1.1198896   -7.3978678    94.528928   0.02735212  0.028098004            1 
  289000    1.1510186   -7.4297593    94.467451  0.027239749  0.028083997            4 
  290000    1.1557843   -7.4326748    95.060244  0.027316162  0.028070789            1 
  291000    1.1389505     -7.45581    95.318783   0.02729633  0.028056139            5 
  292000    1.1514055   -7.4471679    95.486626  0.027250749   0.02804161            1 
  293000    1.1415449   -7.3965432    96.503795  0.027447041  0.028029144            2 
  294000    1.1212149   -7.3956041    96.516593  0.027357311  0.028017474            2 
  295000    1.1486429     -7.38722     97.33373  0.027495404   0.02800681            2 
  296000    1.1261605   -7.4275428    96.551261  0.027182224  0.027993674            1 
  297000    1.1226072    -7.467577    96.742997    0.0271445  0.027980369            2 
  298000    1.1216559   -7.4176446    97.602795  0.027293846   0.02796661            1 
  299000    1.1324341   -7.4181725     97.52318  0.027180373  0.027954262            2 
  300000    1.1415642   -7.3687227    98.377026  0.027326952  0.027941949            1 
  301000    1.1273213   -7.4162075    98.171829  0.027179355  0.027928936            2 
  302000    1.1242703   -7.4154311    98.362667  0.027142016  0.027915379            4 
  303000    1.1486676   -7.4172219    98.492213  0.027088067  0.027901118            3 
  304000    1.1297184   -7.3976671    99.034596  0.027147641  0.027887034            3 
  305000    1.1322894   -7.4098766     99.17798  0.027097809  0.027872869            2 
  306000    1.1312252   -7.4202611    99.200462  0.027015376   0.02785758            3 
  307000    1.1139447   -7.4235022    99.358471  0.026970269  0.027841774            2 
  308000    1.1138475   -7.4529897    99.790631   0.02699963  0.027825692            1 
  309000    1.1140557   -7.4566669    100.43889  0.027087079  0.027811035            4 
  310000    1.1263235   -7.4227233    100.46464  0.027006623  0.027796895            1 
  311000    1.1402408   -7.4805345    100.60168  0.026956505  0.027782486            2 
  312000     1.124447   -7.4486108    101.13244  0.027011869  0.027768977            3 
  313000    1.1220205   -7.4754219    101.50999  0.027026088  0.027755709            3 
  314000    1.1276434   -7.4384941    101.89703  0.027042737  0.027741733            2 
  315000    1.1108364    -7.474008     101.8974  0.026956985  0.027727324            1 
  316000    1.1471385   -7.4802498    102.11151  0.026928141  0.027712717            2 
  317000    1.1458038   -7.4216863     102.9107  0.027053287  0.027698154            1 
  318000    1.1233398   -7.4356409     102.8609  0.026955162  0.027683367            3 
  319000    1.1426851   -7.4270424    103.32274  0.026991312  0.027668693            1 
  320000    1.1480555   -7.4481646    102.98286  0.026818454  0.027653094            1 
  321000    1.1295577   -7.4435845    103.48889  0.026866275  0.027637294            2 
  322000    1.1577814    -7.442771     103.6395  0.026821817  0.027621955            3 
  323000    1.1206282   -7.4305563    104.07979  0.026852372  0.027606411            1 
  324000    1.1406015   -7.4105525    104.34591   0.02683794  0.027590454            3 
  325000    1.1050492   -7.4348454    104.15753  0.026707059  0.027574482            1 
  326000    1.1093007   -7.4184799    105.13065  0.026873888  0.027558813            1 
  327000    1.1127551   -7.4899348      104.772  0.026700306  0.027542948            2 
  328000     1.107987   -7.4511869    105.61497  0.026833071  0.027527635            4 
  329000    1.1553215   -7.4556623    105.57993  0.026742636  0.027512647            1 
  330000    1.0903845   -7.4312506    105.93514  0.026751298  0.027497609            4 
  331000    1.1314706   -7.4921469     106.2157  0.026741112  0.027482746            2 
  332000     1.131336   -7.4292553    106.54717  0.026743768  0.027468275            2 
  333000    1.1219281   -7.4674227    106.62589  0.026683155  0.027453287            2 
  334000    1.1043877   -7.4328201    107.51058  0.026823996  0.027438786            1 
  335000    1.1150628   -7.4513983    107.73115  0.026798793  0.027424782            2 
  336000    1.1211253   -7.4647066    108.20434  0.026836393  0.027411044            1 
  337000    1.1266887   -7.4396686    108.62191  0.026860016  0.027397345            1 
  338000    1.0873127   -7.4428879    108.78838  0.026821594  0.027383813            1 
  339000    1.1294623   -7.4865294    108.65239  0.026709043  0.027369249            2 
  340000     1.112754   -7.5283351    108.67762   0.02663667  0.027355924            2 
  341000    1.1298179   -7.4597131     109.3618  0.026725757  0.027342331            4 
  342000    1.1014589   -7.4891586    109.25765  0.026622234  0.027327662            1 
  343000    1.1164917   -7.4753417    109.28548   0.02655138   0.02731235            1 
  344000    1.1172045   -7.4981652    109.66914  0.026567136  0.027297109            2 
  345000    1.1162184   -7.5107722     109.5326   0.02645715  0.027280958            3 
  346000    1.1329461   -7.4682181    109.72834  0.026427828  0.027264043            2 
  347000    1.0995528   -7.4583403    110.00099  0.026417145  0.027247041            1 
  348000    1.0991784   -7.4537285    110.41672  0.026440785   0.02723005            1 
  349000    1.1278894   -7.4376108    111.16727  0.026544237  0.027213688            2 
  350000    1.1144198   -7.4174618    111.33706  0.026508825  0.027197713            1 
  351000    1.0956276   -7.5080271    111.15936  0.026391111  0.027181298            1 
  352000     1.115928   -7.4630234     112.1349  0.026547088  0.027165531            2 
  353000    1.0883193   -7.4939806     112.1398   0.02647304  0.027149892            1 
  354000     1.121671   -7.4861751    112.51231  0.026485948  0.027134445            3 
  355000    1.1110267   -7.4797489    112.67352  0.026449182  0.027119634            4 
  356000    1.1036944   -7.4632789    112.76347  0.026395943   0.02710505            2 
  357000    1.1047162   -7.4617656    113.02925  0.026384045  0.027089136            3 
  358000    1.0955497   -7.5139005    112.93096  0.026287467  0.027071837            7 
  359000    1.1277477   -7.4820152    113.25664  0.026289841  0.027054368            4 
  360000    1.1030789   -7.4408944    113.71946   0.02632395  0.027037143            2 
  361000    1.1287739    -7.453293    113.96697  0.026308165  0.027020451            2 
  362000    1.1129794   -7.5210838    113.84751  0.026207991  0.027002906            3 
  363000    1.1044433   -7.4869155    114.12605  0.026199736  0.026985246            3 
  364000     1.104486   -7.4971458    114.32428  0.026173142  0.026966414            2 
  365000    1.1046711   -7.5025717    114.48447  0.026138006  0.026946922            1 
  366000    1.1216705   -7.5069926    114.41287  0.026050289  0.026928172            2 
  367000    1.1006275   -7.4475771    115.50421  0.026227115  0.026910216            1 
  368000    1.1123019   -7.5033621    115.02891  0.026048213  0.026892516            2 
  369000    1.0878854   -7.5205964    115.41902  0.026065723  0.026873801            1 
  370000    1.1564523   -7.5025789    115.73194  0.026065752  0.026855917            1 
  371000    1.0932376   -7.5130626    115.59597  0.025964954  0.026837366            2 
  372000    1.1187394   -7.5100767    116.19914  0.026030274  0.026819034            2 
  373000     1.103456   -7.5213224    116.67356   0.02606648  0.026800435            2 
  374000    1.1067099   -7.4754923    116.84428  0.026034822  0.026782806            1 
  375000    1.0934776   -7.4910435    116.89708  0.025977129  0.026764966            1 
  376000    1.0951906   -7.4975925     117.4437  0.026029189   0.02674721            2 
  377000    1.1091403   -7.4931534    118.14887  0.026116018  0.026729943            3 
  378000    1.1028748   -7.4660941    117.99778  0.026013621  0.026713145            6 
  379000    1.0805161   -7.5215301    118.53417  0.026062922  0.026696574            2 
  380000    1.1141579   -7.5000393      118.786   0.02604956  0.026680606            2 
  381000    1.0904221    -7.485041     119.4496  0.026126334   0.02666531            2 
  382000    1.1132135   -7.5015905    119.09331  0.025980216  0.026649193            2 
  383000    1.0808948   -7.5695179    119.19816  0.025935196  0.026633127            4 
  384000    1.0878029   -7.4757555    119.43282  0.025918582   0.02661603            1 
  385000    1.0849981   -7.4586309    119.78435  0.025927349  0.026598906            2 
  386000    1.1081963   -7.5024858    120.25333  0.025961427   0.02658202            2 
  387000    1.1044958    -7.502581    120.37196  0.025919888  0.026564954            2 
  388000    1.1371868   -7.5226338    120.36154  0.025850847  0.026547569            2 
  389000    1.0967713   -7.5095555    120.76866  0.025871606  0.026530579            2 
  390000     1.100869   -7.5132428    120.99805  0.025854285  0.026513686            1 
  391000    1.0663404   -7.5252651    121.22119  0.025835718  0.026496751            2 
  392000    1.1064758   -7.5838082    121.32924   0.02579278  0.026479541            3 
  393000     1.084105   -7.5351358    121.55778  0.025775612  0.026462861            4 
  394000    1.0922405    -7.490182    121.84961  0.025771914  0.026446401            2 
  395000     1.093715   -7.5468131    121.85507   0.02570782  0.026429363            2 
  396000    1.0847037   -7.5329913    122.19089  0.025713572  0.026412149            1 
  397000    1.0995088    -7.488389    123.23397  0.025867751  0.026395924            2 
  398000    1.0831163   -7.5507488    123.02343  0.025758674  0.026379866            2 
  399000    1.0950634   -7.5036158    123.15886  0.025722403  0.026363725            2 
  400000    1.1129434   -7.5485418    123.29031   0.02568548  0.026347875            2 
  401000    1.0771311   -7.5231315    123.63804  0.025693692  0.026331304            4 
  402000    1.0871184    -7.505893    123.74163  0.025651249  0.026314403            2 
  403000    1.0851987    -7.531867    123.91666  0.025623793  0.026297477            5 
  404000    1.1012389   -7.4810675    124.39076  0.025658159  0.026280326            2 
  405000    1.0689513    -7.541509    124.64762  0.025647658  0.026263444            4 
  406000    1.1073002   -7.5044783    125.33597  0.025725773  0.026247356            2 
  407000    1.0997403   -7.4992283    125.25834  0.025646672  0.026231194            1 
  408000    1.0973891   -7.5404868    125.36768  0.025606144  0.026215032            2 
  409000    1.1234462   -7.5878596     125.5876  0.025588346  0.026198932            2 
  410000     1.091774   -7.5333082    125.91376  0.025592228  0.026182828            1 
  411000    1.0945029    -7.537634    125.44145  0.025434195  0.026165847            3 
  412000    1.0870465   -7.5014461    126.23956  0.025533892  0.026148188            2 
  413000    1.0737188   -7.5248271    126.14718  0.025453426  0.026131096            2 
  414000    1.0849221   -7.5372604    126.10023  0.025382494  0.026113285            2 
  415000    1.0878589   -7.5646053    126.69991  0.025441748  0.026095844            2 
  416000    1.0802429    -7.499673    127.26711  0.025494213  0.026079161            1 
  417000    1.1058623   -7.5813097    126.91145     0.025362  0.026062489            2 
  418000    1.0813595   -7.5066333     128.1295  0.025544159  0.026046085            1 
  419000    1.0864962   -7.5503075    127.97134  0.025451738  0.026030145            3 
  420000    1.0937669   -7.4828863    128.26392  0.025449191  0.026014193            2 
  421000    1.0841406   -7.5489519    128.37964  0.025411647   0.02599792            4 
  422000    1.0950932   -7.4961663    128.75239  0.025425037  0.025981502            2 
  423000     1.081445   -7.5600839    129.06947  0.025427397  0.025965804            3 
  424000    1.0898806   -7.5250364    129.51532  0.025455055  0.025950268            1 
  425000    1.0864686   -7.5275574    129.63758  0.025419133  0.025934464            2 
  426000    1.0775927   -7.5366044     129.4891  0.025330419  0.025918086            2 
  427000    1.0772987   -7.5617407    129.67576  0.025307526   0.02590161            3 
  428000    1.0818433   -7.5488716    130.57278   0.02542305  0.025885521            1 
  429000    1.0651465     -7.56571    130.42052  0.025334212  0.025869638            1 
  430000    1.0674941   -7.5542418    130.81211  0.025351185   0.02585339            4 
  431000    1.0980406   -7.5623059    130.88031   0.02530555  0.025837192            3 
  432000    1.1103947   -7.5906144    130.38859  0.025152121  0.025820994            2 
  433000    1.0794274   -7.5390063    131.00541  0.025212743  0.025803674            1 
  434000    1.0839815    -7.589521    130.65997  0.025088321  0.025786778            7 
  435000    1.0659944   -7.5616632     131.2556  0.025144751  0.025769589            2 
  436000    1.0973734   -7.5862099    131.45661  0.025125498  0.025752734            4 
  437000    1.0757019   -7.5770087    131.98251  0.025168289  0.025736011            1 
  438000    1.0764356   -7.5764467    132.50076   0.02520943  0.025719525            3 
  439000    1.0829046   -7.5527392    132.69824  0.025189491  0.025703628            2 
  440000    1.0895339   -7.5414596    133.36073  0.025257714  0.025687548            2 
  441000    1.1020114   -7.5832553    133.10298  0.025151734  0.025671848            2 
  442000    1.0547544   -7.5794072    133.37876  0.025146826  0.025655922            1 
  443000     1.084162   -7.5690294    133.82855  0.025174671  0.025639531            3 
  444000    1.0717587   -7.5470653    133.69482  0.025092871  0.025623528            2 
  445000    1.0622539   -7.5920291    134.18554  0.025128378  0.025607409            6 
  446000    1.0701591   -7.6088571    134.22454  0.025079324  0.025591329            1 
  447000    1.0623355   -7.5851877    135.04756  0.025176651  0.025575396            6 
  448000    1.0642733   -7.6066554    134.33559   0.02498802  0.025559919            2 
  449000    1.0557856   -7.5699556    135.36504   0.02512343  0.025544266            1 
  450000    1.0512491   -7.5517658    135.22689  0.025042017  0.025529516            2 
  451000    1.0499128   -7.5752736    135.58597   0.02505284  0.025513716            1 
  452000    1.0724041    -7.606781    135.79068  0.025035154  0.025498412            1 
  453000    1.0867426   -7.5886448    136.05711  0.025028902  0.025482989            2 
  454000    1.0674034   -7.5961844    135.82251   0.02493071  0.025467527            3 
  455000    1.0558038   -7.5861415    136.57062  0.025012933  0.025452394            3 
  456000    1.0636181   -7.5719993    136.52704  0.024950117  0.025437405            4 
  457000    1.0717818   -7.5942453    137.21372  0.025020736  0.025421822            9 
  458000    1.0804232   -7.5976016     136.9279  0.024914101  0.025405723            2 
  459000    1.0603327   -7.5857721    137.39522  0.024944666  0.025389851            6 
  460000    1.0595035   -7.5743797     138.0581  0.025010525  0.025374438            2 
  461000    1.0931304    -7.584712    138.34664  0.025008432   0.02535994            4 
  462000    1.0782384   -7.6220135    137.97603  0.024887451  0.025345228            5 
  463000    1.0821965    -7.601696    138.47368  0.024923268  0.025330505            4 
  464000    1.0759778   -7.6218126    138.60587  0.024893295  0.025315378            3 
  465000    1.0537734   -7.5777868    138.90157  0.024892754   0.02530008            4 
  466000     1.078483   -7.6151439    139.30975   0.02491233  0.025286005            4 
  467000    1.0715092   -7.6430171    139.50874  0.024894493  0.025271958            3 
  468000    1.0498958   -7.5830199    139.76054  0.024886136  0.025257089            2 
  469000    1.0663911   -7.5556253    140.24703  0.024919514  0.025242591            2 
  470000    1.0660715   -7.5868559    140.24208  0.024865617  0.025228096            5 
  471000    1.0467378   -7.6029667    140.72058  0.024897485  0.025213928            4 
  472000    1.0601004   -7.6053988    140.75204  0.024850289  0.025199533            2 
  473000    1.0598708   -7.5893453    141.06929  0.024853645  0.025185759            2 
  474000     1.091129   -7.5868228    141.73695  0.024918592  0.025172397            2 
  475000    1.0619499   -7.5988505    141.74898  0.024868243  0.025159611            7 
  476000    1.0633681   -7.6059491    142.20934  0.024896594  0.025146906            3 
  477000    1.0579393   -7.6283855     142.5045  0.024895964  0.025134284            2 
  478000    1.0622375   -7.5701694    143.41803  0.025003144  0.025122482            3 
  479000    1.0531448   -7.5690309    143.46885  0.024959786  0.025110451            2 
  480000     1.065676   -7.6271333    143.38462  0.024893164  0.025098256            1 
  481000    1.0494841   -7.6368702    143.50918   0.02486299  0.025086079            2 
  482000    1.0665554   -7.6286644    143.82995  0.024866865  0.025073853            4 
  483000    1.0628062   -7.6439557    143.71953  0.024796331    0.0250614            2 
  484000    1.0820683   -7.6038882    144.76039  0.024924309  0.025048918            2 
  485000    1.0857021    -7.606589    144.25679   0.02478639  0.025036005            2 
  486000    1.0560349    -7.622026    144.62495  0.024798516  0.025023087            4 
  487000     1.057839   -7.6080031    144.76394  0.024771379  0.025010136            3 
  488000    1.0654307    -7.646377    144.71965  0.024713054  0.024997106            4 
  489000    1.0415236   -7.6742312    145.01928  0.024713578  0.024983554            3 
  490000    1.0789236   -7.6019237    145.26831  0.024705494  0.024970152            2 
  491000    1.0556643    -7.635318    145.37717  0.024673654  0.024956777            2 
  492000    1.0441612   -7.6110846    145.60758   0.02466253  0.024943273            1 
  493000    1.0735343   -7.6485558    146.05577  0.024688265  0.024929932            3 
  494000    1.0614042   -7.5960292     146.0886  0.024643826   0.02491657            4 
  495000     1.047649   -7.5873465    146.49542  0.024662529  0.024903254            2 
  496000    1.0644417   -7.6102589    146.85445  0.024673127  0.024890094            1 
  497000    1.0444286   -7.6459789    146.79559  0.024613614  0.024876489            3 
  498000    1.0616374    -7.599125    147.31308  0.024650783  0.024863107            2 
  499000    1.0482461   -7.6391493    147.29666   0.02459864  0.024849722            3 
  500000    1.0650175   -7.6791431    146.97005  0.024495009  0.024836163            5 
  501000    1.0522122   -7.6295886     147.6842  0.024564903  0.024822167            2 
  502000    1.0744921   -7.6731194    147.78061  0.024531973  0.024808312            3 
  503000    1.0529293   -7.6721299    148.13906  0.024542589  0.024794915            2 
  504000    1.0448207   -7.6145621    149.10393  0.024653427  0.024782141            1 
  505000    1.0360682   -7.6027524    149.06492  0.024598172  0.024769838            2 
  506000    1.0439716   -7.6339834    149.27978  0.024584944  0.024757529            2 
  507000    1.0458881   -7.6387847    148.86669  0.024468555  0.024744611            3 
  508000    1.0500061   -7.6837653    149.05006   0.02445047   0.02473109            3 
  509000    1.0658976   -7.6493654    148.78277  0.024358671   0.02471741            1 
  510000    1.0320431   -7.6646423    149.21317  0.024381237  0.024703551            4 
  511000    1.0572044   -7.6734659     148.9753  0.024294732  0.024689386            2 
  512000    1.0535265   -7.6392206    149.88772  0.024395787  0.024675065            4 
  513000    1.0748799   -7.6580313    150.09492  0.024381891  0.024661012            3 
  514000    1.0537929   -7.6066828    150.21065  0.024353218  0.024646937            2 
  515000     1.046015   -7.6439407    150.05959  0.024281487  0.024632894            2 
  516000    1.0699309   -7.6610648    150.26942  0.024268317  0.024618334            3 
  517000    1.0320217   -7.6768863    150.57888  0.024271257  0.024603793            2 
  518000    1.0362847   -7.6201141    151.37068  0.024351782  0.024589208            3 
  519000    1.0428091   -7.6864691    151.13415  0.024266884  0.024575025            3 
  520000    1.0545835    -7.658681    151.37586  0.024258951  0.024560662            1 
  521000    1.0460727    -7.643111    151.14321  0.024175178  0.024546682            3 
  522000    1.0375842   -7.6575869    152.12144  0.024285032  0.024532847            1 
  523000    1.0447946   -7.6715615    152.12607  0.024239335  0.024519111            1 
  524000    1.0334784   -7.6785539    152.16981  0.024200033  0.024505225            1 
  525000    1.0392598    -7.688921    152.65712  0.024231289  0.024491117            5 
  526000    1.0625968   -7.5860034    152.95901  0.024233049  0.024476779            2 
  527000     1.048445   -7.6494823    152.72415  0.024149929  0.024463115            3 
  528000    1.0444741   -7.6604908    153.25409   0.02418783  0.024449024            2 
  529000    1.0470695   -7.6785339    153.08906  0.024116108   0.02443515            2 
  530000    1.0380824    -7.687943    152.94834  0.024048482  0.024420877            4 
  531000    1.0283124   -7.7023413    152.99114  0.024009909  0.024406456            2 
  532000    1.0166348   -7.6594745    153.52678  0.024048681  0.024391801            3 
  533000    1.0300433   -7.6647489    154.12487  0.024097071  0.024377139            3 
  534000    1.0331789   -7.6885924     153.7079  0.023986876  0.024362735            3 
  535000    1.0731127   -7.6677889    154.17302   0.02401449  0.024348374            2 
  536000     1.046412   -7.6938444    154.54911  0.024028158  0.024333571            2 
  537000    1.0338551   -7.7111018    154.17293  0.023925035  0.024318667            3 
  538000    1.0351863   -7.6964822     154.5755  0.023942922   0.02430387            5 
  539000    1.0402987   -7.7433524    154.45008  0.023879109  0.024288583            2 
  540000    1.0341978   -7.6846306    154.70379  0.023874042    0.0242733            3 
  541000    1.0447811   -7.6683443    155.02329  0.023879127  0.024258176            4 
  542000    1.0454836    -7.664547    155.72586  0.023943091  0.024243016            1 
  543000    1.0499517   -7.6972786    155.21827  0.023821098  0.024227591            1 
  544000    1.0157228   -7.6773384    155.49777  0.023820124   0.02421184            1 
  545000    1.0442137   -7.6883251    155.92291  0.023841424  0.024196029            2 
  546000    1.0312752   -7.7347187     155.6192  0.023751405  0.024180427            1 
  547000    1.0681493   -7.6880436    156.32966  0.023816219  0.024164683            2 
  548000    1.0533634   -7.6739848    156.35827   0.02377711  0.024149124            3 
  549000    1.0172892   -7.6941332    155.85056  0.023656733  0.024133791            3 
  550000    1.0283985   -7.7085782    156.48853  0.023710383  0.024118093            4 
  551000    1.0191794   -7.7249988    155.88099  0.023575468  0.024101928            1 
  552000    1.0214406   -7.7006649    156.47314  0.023622153  0.024085462            3 
  553000    1.0478547   -7.6869941    156.98077  0.023655933  0.024069334            3 
  554000    1.0368114    -7.629174    157.06276  0.023625565   0.02405302            2 
  555000    1.0258927   -7.6984125     157.3924  0.023632492  0.024036652            2 
  556000    1.0396551    -7.677279    157.32935  0.023580539  0.024020075            1 
  557000     1.018248     -7.68919    157.00916    0.0234903  0.024003604            3 
  558000    1.0102968   -7.6666987    157.53632   0.02352693  0.023987122            2 
  559000    1.0349398   -7.6759078    157.67161  0.023505011  0.023970501            1 
  560000    0.9964091   -7.7081874    157.59705  0.023451942  0.023954061            4 
  561000     1.018866   -7.7172787    158.31098  0.023516188  0.023937138            2 
  562000    1.0243608   -7.6806594    158.30627  0.023473647  0.023920586            2 
  563000    1.0301964   -7.7308424    158.31215  0.023432823  0.023903921            2 
  564000    1.0089386   -7.7398447    158.37752  0.023400933  0.023887306            3 
  565000    1.0202074   -7.7488962    158.39373  0.023361907  0.023870766            2 
  566000    1.0172755   -7.7088543    158.84555  0.023387154  0.023854312            3 
  567000    1.0307723   -7.7009069    159.45562   0.02343557  0.023838168            2 
  568000    1.0059664   -7.6906348    159.57844   0.02341233  0.023822323            5 
  569000    1.0286153   -7.7111161    160.32359  0.023480315  0.023806798            2 
  570000    1.0274373   -7.6762742     160.2217  0.023424225  0.023790832            2 
  571000    1.0192116   -7.7110839    160.70729  0.023454071  0.023775449            3 
  572000    1.0117606      -7.6929    160.99938  0.023455621  0.023760504            2 
  573000    1.0265292   -7.6855745    161.02032  0.023417731  0.023745725            4 
  574000    1.0388159   -7.7090454    161.24152  0.023409048  0.023730771            5 
  575000    1.0304919   -7.6836552    161.20591  0.023363175  0.023715464            7 
  576000    1.0324058    -7.719809     161.4168  0.023353125  0.023700053            1 
  577000    1.0134561   -7.7098587    161.43875  0.023315822  0.023684832            2 
  578000    1.0410056   -7.7242357    161.55168  0.023291764   0.02366924            4 
  579000    1.0127699   -7.7143208    162.11422  0.023332502  0.023653636            1 
  580000    1.0236611   -7.7235071    161.60956  0.023219765  0.023638012            6 
  581000    1.0201242   -7.7373879    162.14709  0.023256898  0.023622272            2 
  582000    1.0419655   -7.7166343    161.92222  0.023184739  0.023606412            5 
  583000     1.021711   -7.6956795      162.525  0.023231132  0.023590704            4 
  584000    1.0403663   -7.7045376    162.54758  0.023194575  0.023575006            3 
  585000     1.016576   -7.7112108    162.94813  0.023211984  0.023559566            4 
  586000    1.0197948   -7.7180621    162.71024  0.023138543  0.023543728            1 
  587000    1.0275109   -7.7776729    162.64456  0.023089801  0.023527739            5 
  588000   0.99875482   -7.7192878    163.94185  0.023234389  0.023512017            3 
  589000    1.0221458   -7.7391247    163.43733  0.023123561  0.023496327            2 
  590000    1.0172021   -7.7631178    163.45055  0.023086235  0.023480135            5 
  591000    1.0049467   -7.7519174    163.70275  0.023082733   0.02346402            1 
  592000    1.0175864   -7.7620029    164.14971  0.023106659  0.023448597            4 
  593000    1.0233624     -7.72281     164.3277  0.023092706   0.02343333            1 
  594000    1.0436379   -7.7029131    164.67254  0.023102208  0.023418299            2 
  595000    1.0114049   -7.7140227    165.07199  0.023119326  0.023402992            3 
  596000    1.0162368   -7.7270534    165.16861  0.023094045  0.023387777            2 
  597000   0.99908961   -7.7149239    165.28946  0.023072231  0.023372492            6 
  598000    1.0190024   -7.7994869    164.01624   0.02285622  0.023356737            2 
  599000    1.0126225   -7.7459008    165.34662  0.023003146  0.023340698            3 
  600000    1.0221388   -7.7475237    165.92894  0.023045687     0.023325            3 
  601000    0.9899187   -7.7631684    165.47232  0.022944026  0.023309497            5 
  602000     1.004693   -7.7821582    165.47398  0.022906144  0.023294241            4 
  603000    1.0283711   -7.7910748    165.87798  0.022923989  0.023279108            3 
  604000    1.0337179   -7.7775411    166.54277  0.022977756   0.02326374            2 
  605000    1.0039251   -7.7592791    166.74325   0.02296739  0.023248425            2 
  606000    1.0142567   -7.7652974    166.84816  0.022943916  0.023233234            1 
  607000   0.99229892   -7.7155068    167.13041  0.022944867  0.023218326            2 
  608000    1.0081791   -7.7006414    167.27853   0.02292743  0.023203127            2 
  609000    1.0094329   -7.7477609    167.34295  0.022898598  0.023187941            3 
  610000    1.0123236   -7.7160793    167.86246  0.022932031  0.023172871            1 
  611000   0.99511907   -7.7510228    167.54232  0.022850835  0.023157627            3 
  612000    1.0206139   -7.7621844    167.55087  0.022814661  0.023142238            3 
  613000    1.0010915   -7.7914915    167.11415  0.022718074   0.02312666            2 
  614000    1.0086001   -7.7891744    166.99008  0.022664235  0.023110383            5 
  615000    1.0210593    -7.747007    167.98835  0.022762648  0.023094367            2 
  616000    1.0017994   -7.7670418    168.33062     0.022772  0.023078506            4 
  617000    1.0099121   -7.7466155    168.55523  0.022765428  0.023062706            6 
  618000   0.99756595   -7.7589295    168.52863  0.022725004  0.023046986            3 
  619000    0.9911649   -7.7646513     168.6015  0.022698101  0.023031354            4 
  620000   0.99902583   -7.7674189    168.55236  0.022654887  0.023015797            3 
  621000    1.0089219   -7.7924656    168.79876  0.022651471  0.023000086            3 
  622000    1.0019897   -7.7819175    169.17935  0.022666044  0.022984582            4 
  623000    1.0046534   -7.7857726    168.94915   0.02259887   0.02296912            2 
  624000    1.0032731   -7.7862107    169.15982  0.022590787  0.022953548            4 
  625000    1.0051621   -7.7636365     170.0162  0.022668827  0.022937919            2 
  626000   0.99707603   -7.7243608     169.8778   0.02261419  0.022922297            1 
  627000   0.98856881   -7.8146502     170.3493   0.02264079  0.022907004            4 
  628000   0.99021272   -7.7529404    170.20065  0.022585012  0.022891623            3 
  629000      1.00648   -7.7770166    170.61828  0.022604436  0.022876286            4 
  630000   0.98258738   -7.7856358     170.2639   0.02252168  0.022860714            6 
  631000   0.98680253    -7.772874    170.74237  0.022549178  0.022844966            5 
  632000    1.0186777   -7.7495344    170.88437  0.022532222  0.022829475            3 
  633000    1.0183459   -7.7647538    170.97961  0.022509164  0.022813878            3 
  634000    1.0021384   -7.7789653    170.86505  0.022458602   0.02279807            3 
  635000    1.0068513   -7.7768325    170.82642  0.022418165  0.022782119            3 
  636000    1.0037636   -7.8151719    170.66485  0.022361746  0.022766037            3 
  637000    1.0013557   -7.7587046    171.45441  0.022429933  0.022749899            3 
  638000    0.9904117   -7.7660353    171.22519  0.022364837  0.022733744            3 
  639000   0.98572992   -7.7978012    171.03647  0.022305226  0.022717573            5 
  640000    1.0027852   -7.7893117    171.52592  0.022334104   0.02270132            4 
  641000   0.99672238   -7.7957061    172.29279  0.022398958  0.022685057           13 
  642000   0.98675304    -7.772244    172.21838  0.022354411  0.022669039            3 
  643000   0.98025912   -7.8141956    171.46401  0.022221878  0.022652717            7 
  644000   0.98837194   -7.8028339    171.66015  0.022212752   0.02263644            4 
  645000    1.0078905   -7.7924327    172.22954  0.022251879  0.022620062            5 
  646000    0.9882882   -7.7729269    172.05073  0.022194367  0.022603677            2 
  647000    1.0022665   -7.8159901    171.92077  0.022143325  0.022587016            1 
  648000   0.98434016   -7.7691857    172.54177  0.022189013  0.022570328            3 
  649000   0.98392437   -7.7928073    172.36268  0.022131829  0.022553888            4 
  650000   0.98592959   -7.7920299      172.845  0.022159615   0.02253736            3 
  651000   0.99415791    -7.761299    172.86911  0.022128662  0.022520894            2 
  652000   0.99222975   -7.8038094     172.4101  0.022036056  0.022504282            2 
  653000    1.0118104   -7.8336104    172.58153  0.022024187  0.022487378            4 
  654000   0.98191733   -7.8312229    173.29693  0.022081668  0.022470517            2 
  655000   0.98601296   -7.7724299    172.94883  0.022003668  0.022453594            1 
  656000    1.0012823   -7.8003028     173.0314  0.021980615  0.022436605            8 
  657000    1.0035489   -7.7499743    173.24912  0.021974775    0.0224196            2 
  658000   0.98593818   -7.7827806     173.2415  0.021940413   0.02240262            1 
  659000    1.0082533   -7.8078632    173.23874  0.021906771   0.02238555            5 
  660000   0.99224844   -7.7935555    173.00774  0.021844411  0.022368179            2 
  661000   0.99989906   -7.8073842    173.34507  0.021853892  0.022350845            5 
  662000    1.0212809   -7.8387269    173.04301  0.021782856  0.022333204            3 
  663000   0.96755264   -7.8278852     173.1375  0.021761878  0.022315401            2 
  664000   0.98233192   -7.8202205    173.44548  0.021767756  0.022297602            3 
  665000   0.99336092   -7.7731874    173.85642  0.021786519  0.022280014            3 
  666000   0.99318883   -7.7904538    174.24943  0.021802981  0.022262476            2 
  667000    1.0036534   -7.8202752    174.01432   0.02174092  0.022244859            2 
  668000   0.97913219   -7.8203518    173.97674  0.021703685  0.022227162            3 
  669000   0.98838284    -7.758321    174.89068  0.021785087  0.022209766            2 
  670000   0.98674907   -7.8005088    174.42336  0.021694448  0.022192412            3 
  671000   0.99494164   -7.8406918    174.35788  0.021653984  0.022174584            4 
  672000   0.97723639   -7.8295452    174.76448  0.021672183  0.022157165            3 
  673000    0.9807048   -7.8486297    174.71628  0.021634012  0.022139653            2 
  674000   0.98656482   -7.8419945    174.97412  0.021633793  0.022122158            2 
  675000    0.9798108   -7.8015029    175.49633  0.021666214   0.02210455            3 
  676000   0.98244161   -7.8380423    174.82785  0.021551756  0.022086898            2 
  677000   0.97880759   -7.8517792    175.28391   0.02157606  0.022069385            2 
  678000   0.99447726   -7.8637184     175.7082  0.021596386  0.022051805            6 
  679000   0.97459402   -7.8547917    175.62333  0.021554164  0.022034214            2 
  680000   0.98710681   -7.8288712      175.693  0.021531005  0.022016638            2 
  681000   0.98334497   -7.8308751    176.28698  0.021572072  0.021999224            2 
  682000    1.0013127   -7.8507186    176.11692  0.021519663  0.021981929            3 
  683000   0.96858881   -7.8033229    176.71347  0.021560941  0.021964483            4 
  684000   0.97270883   -7.8711704    175.54315  0.021386836  0.021946868            2 
  685000   0.98119089   -7.8276889    176.65779  0.021491215   0.02192914            4 
  686000   0.97886876    -7.817657     176.3357  0.021420761  0.021911576            2 
  687000   0.99641524   -7.7945434    176.50735  0.021410402  0.021893813            3 
  688000   0.96529346   -7.8175505    176.47475  0.021375333  0.021876117            5 
  689000   0.98349905   -7.7853722    177.26299  0.021439645    0.0218586            2 
  690000   0.97786163   -7.8259626    176.90681  0.021365557  0.021841106            3 
  691000   0.99255752   -7.8409356    176.53029   0.02128923  0.021823191            2 
  692000   0.96265589   -7.8666996    176.80523  0.021291574  0.021805215            5 
  693000   0.99446997   -7.8700648    176.85558  0.021266905  0.021787278            4 
  694000   0.97094344   -7.8718323    177.02648  0.021256781  0.021769431            3 
  695000   0.97918201   -7.8493417    177.17816  0.021244383  0.021751531            3 
  696000   0.99957615   -7.8669985    177.03316  0.021196499  0.021733809            1 
  697000   0.95896097   -7.8777952      177.316  0.021199904  0.021715913            1 
  698000   0.95067578   -7.9056088    177.20043  0.021155735  0.021697914            2 
  699000   0.97127124   -7.8451301    177.44679  0.021154839  0.021680005            2 
  700000   0.97807396   -7.8713805    177.57547  0.021139937  0.021662053            5 
  701000   0.97718636   -7.8363905    177.91446  0.021150079  0.021644145            3 
  702000   0.98689452   -7.8422531    178.19156  0.021152844  0.021626316            3 
  703000     0.975421   -7.8603521    177.70543  0.021065129  0.021608454            4 
  704000    0.9662732   -7.8762088    178.29699  0.021105231  0.021590658            6 
  705000   0.97834602   -7.8669614    178.15791  0.021058855  0.021572993            2 
  706000   0.96110725    -7.835778    178.55606  0.021076022  0.021555395            3 
  707000   0.96123485   -7.8515936    178.67885  0.021060685  0.021537627            4 
  708000    0.9809495   -7.8566525    179.14883  0.021086256  0.021519971            3 
  709000   0.97639016   -7.8478283    179.68954  0.021120068  0.021502447            3 
  710000   0.97309848   -7.9130407     179.2635  0.021040317  0.021484773            3 
  711000   0.95869335   -7.8536119    180.19475  0.021119872   0.02146741            2 
  712000   0.96036161    -7.846667    179.98535  0.021065701  0.021450188            4 
  713000   0.99235201   -7.8664939    179.65278  0.020997286  0.021432881            5 
  714000    1.0003074   -7.8697166    179.83169  0.020988759   0.02141563            3 
  715000   0.99234793   -7.8213221    180.65505  0.021055367  0.021398713            4 
  716000   0.96793516   -7.8329322    181.24318  0.021094411  0.021382116            6 
  717000   0.95598306   -7.8517192    181.00386  0.021037176  0.021365558            3 
  718000   0.96563063   -7.8387746    180.85254  0.020990314  0.021348966            3 
  719000   0.96916344   -7.8499358    181.46595  0.021032215  0.021332263           10 
  720000   0.95709763   -7.8408364    181.36952  0.020991842  0.021315515            5 
  721000   0.96390335   -7.8503835    181.29512  0.020954129  0.021298602            3 
  722000    0.9565768   -7.8448465    181.66293  0.020967559   0.02128181            1 
  723000   0.94511261   -7.8424004    181.97154  0.020974128  0.021265163            3 
  724000   0.94935023   -7.8399373    181.56581  0.020898459  0.021248266            4 
  725000    0.9472899   -7.8601213    181.52308  0.020864722  0.021231383            5 
  726000   0.95280111   -7.8955435    181.39721  0.020821535  0.021214388            5 
  727000   0.96696142   -7.9032625    181.84098  0.020843762  0.021197495            3 
  728000   0.96414362   -7.8959375    182.14663  0.020850117   0.02118057            2 
  729000    0.9776466   -7.9122297     181.9778  0.020802217  0.021163773            4 
  730000   0.96459097   -7.8873595    182.15083  0.020793474  0.021147005            3 
  731000   0.96033755   -7.8758968    182.38933  0.020792217  0.021130363            2 
  732000   0.96098373   -7.8903021    182.49856  0.020776247  0.021114138           10 
  733000   0.98348489   -7.8908229    183.09775  0.020816025  0.021097762            2 
  734000    0.9439283   -7.8633307    183.52656  0.020836349  0.021081402            6 
  735000   0.98511102   -7.8902852    183.54691  0.020810308  0.021065208            2 
  736000   0.95943073   -7.9275232     183.3655  0.020761492  0.021048811            3 
  737000   0.95966807   -7.8798198    183.63795  0.020764129  0.021032314            4 
  738000   0.94733255    -7.895576    183.14759  0.020680622  0.021015974            5 
  739000   0.95437743   -7.8999859    183.66138  0.020710576  0.020999574            3 
  740000   0.96386608   -7.8817499     184.0975    0.0207317  0.020983278            1 
  741000   0.96136394   -7.8552187    184.28184  0.020724453  0.020966879            3 
  742000   0.97936876    -7.925489    183.70682  0.020631943  0.020950323            6 
  743000   0.96489236   -7.9173552    183.26882  0.020555049  0.020933609            2 
  744000   0.96358557   -7.8836332    184.24002  0.020636202  0.020916952            4 
  745000   0.97114304   -7.8993181    184.54201  0.020642283  0.020900403            2 
  746000   0.95536336   -7.8756328    184.13491  0.020569136  0.020883872            2 
  747000   0.95994299   -7.9172626    184.08173  0.020535668  0.020867544            3 
  748000   0.95737403   -7.8931116    185.15668  0.020627972  0.020851107            2 
  749000   0.96551182   -7.9069405    184.57764  0.020536008  0.020834873            2 
  750000   0.95074306    -7.930261    185.17473   0.02057497  0.020818474            3 
  751000   0.97227154   -7.9391115    184.73662  0.020498959  0.020802171            2 
  752000    0.9515237   -7.8839982    185.24351  0.020527872  0.020786065            3 
  753000   0.98343453   -7.8988215    185.21546  0.020497506  0.020769902            3 
  754000   0.94278057   -7.8527428     185.5626  0.020508687   0.02075381            3 
  755000   0.95797888   -7.9097823    185.38895  0.020462356  0.020737348            3 
  756000   0.97857587   -7.8826676    185.40628    0.0204372  0.020720827           10 
  757000   0.92897424    -7.884333    186.25823  0.020503988  0.020704734            4 
  758000   0.94761813   -7.9157391    185.49534  0.020393067   0.02068858            4 
  759000   0.94489948   -7.9209077    185.48128  0.020364655  0.020672124            3 
  760000   0.96271852   -7.9324218    185.91056   0.02038493  0.020656012            5 
  761000   0.94790307   -7.9056457    186.46086  0.020418403  0.020639821            2 
  762000   0.95069136   -7.9073522    186.68877  0.020416532  0.020623596            2 
  763000   0.94542523   -7.9066984    186.63286  0.020383667  0.020607616            8 
  764000   0.94019369   -7.9364906    186.98138  0.020395002  0.020591628            4 
  765000   0.95256431   -7.9424537    186.90289  0.020359792  0.020575556            3 
  766000   0.96528671   -7.9371522    187.29298   0.02037565  0.020559647            4 
  767000   0.96215757   -7.9318826    187.87206  0.020412002  0.020543837            2 
  768000   0.93355641   -7.9744875    187.51526  0.020346708  0.020528067           12 
  769000   0.94325252   -7.9296481    187.53973  0.020322901  0.020512478            7 
  770000    0.9444683   -7.9190927    188.28305  0.020376954  0.020496981            4 
  771000   0.95675414   -7.9193328    188.34241   0.02035694  0.020481549            2 
  772000   0.92962849   -7.8981434    188.53674  0.020351547  0.020466089            2 
  773000   0.94240994     -7.90894    188.64602  0.020337001  0.020450769            2 
  774000   0.95401249   -7.9123588     188.5612  0.020301594  0.020435347            3 
  775000   0.95236155   -7.9288282    188.56416  0.020275716  0.020419769            3 
  776000   0.94795011   -7.8917964    188.68103  0.020262139  0.020404027            2 
  777000   0.95485128   -7.9296974    188.68171  0.020236133  0.020388342            2 
  778000   0.93709313   -7.9265796    188.48485  0.020189037  0.020372521            4 
  779000   0.93242375   -7.9134261    188.47454  0.020162017  0.020356919            5 
  780000   0.95351752   -7.9445831    188.49633  0.020138497  0.020341297            6 
  781000   0.92545476   -7.9610243    189.28849  0.020197236  0.020325638            2 
  782000    0.9303922   -7.9669666    189.04301  0.020145249  0.020309993            5 
  783000   0.93721182    -7.949578    189.29619  0.020146465  0.020294538            7 
  784000   0.92708434   -7.9286716    189.54187  0.020146882  0.020279397            7 
  785000   0.94268057   -7.9493528      189.645  0.020132165  0.020264157            5 
  786000   0.93882448   -7.9432421     189.3446  0.020074703  0.020248746            3 
  787000   0.95554139   -7.9560611    190.05713  0.020124643  0.020233319            2 
  788000   0.93371351   -7.9546013    189.83382  0.020075488   0.02021803            4 
  789000   0.96478005   -7.9185935    190.30144  0.020099434  0.020202696            2 
  790000   0.93906285   -7.9432082    190.10626  0.020053403  0.020187469            6 
  791000   0.91029757   -7.9676501    190.38579    0.0200575  0.020172202            3 
  792000   0.95139345   -7.9370739     190.3323  0.020026547  0.020156907            2 
  793000   0.95952823   -7.9926736    190.38978  0.020007333  0.020141786            3 
  794000   0.93541154   -7.9373917    190.65326  0.020009788  0.020126577            8 
  795000   0.93358444   -7.9311584      191.126  0.020034172  0.020111447            7 
  796000   0.92516148   -7.9090033    191.03848  0.019999841  0.020096307            2 
  797000    0.9547891   -7.9268835    191.00871  0.019971634  0.020081005            3 
  798000   0.92047532   -7.9469229    190.95049  0.019940527  0.020065813            3 
  799000   0.95483207   -7.9540349    190.95422   0.01991596   0.02005037            2 
  800000   0.94338716   -7.9788202    191.09719  0.019905957  0.020034916            2 
  801000   0.91288369   -7.9306558    191.08385  0.019879718  0.020019579            5 
  802000    0.9400518   -7.9765313    191.12167   0.01985886  0.020004197            1 
  803000   0.92461509   -7.9390133    191.63986  0.019887906  0.019988908            6 
  804000   0.91583756   -7.9394617    191.29061  0.019826971  0.019973701            6 
  805000   0.91889338   -7.9443863    191.69314   0.01984401  0.019958193            5 
  806000   0.88764569   -7.9710581    191.30296  0.019779049  0.019942609            1 
  807000   0.91666598   -7.9459651    191.39215  0.019763749  0.019927013            7 
  808000   0.91606586   -7.9733215    191.66272  0.019767194  0.019911351            3 
[...]
 1800000   0.52924953   -9.0351031    204.11187 0.0094496238 0.0079478648          248 
 1801000   0.54327019   -9.0279289     204.0263 0.0094404174 0.0079405912          224 
 1802000   0.52939888   -9.0383832    203.90814 0.0094297143 0.0079333267          235 
 1803000   0.53848927   -9.0271798    204.04447 0.0094307851 0.0079260796          228 
 1804000   0.52845936   -9.0219108     204.2752 0.0094362158 0.0079188387          219 
 1805000    0.5263611   -9.0392889    203.90656 0.0094139688 0.0079116066          226 
 1806000   0.53668022   -9.0311604     203.8238 0.0094049375 0.0079043711          241 
 1807000   0.52172149    -9.031263    203.88428 0.0094025218 0.0078971484          227 
 1808000   0.53239615   -9.0145502    203.73069 0.0093902421 0.0078899361          231 
 1809000   0.52577178   -9.0284891     203.5523 0.0093768335 0.0078827261          234 
 1810000   0.53395541    -9.039886    204.03619 0.0093939312  0.007875524          222 
 1811000   0.53300058   -9.0333962    203.78397 0.0093771384  0.007868335          230 
 1812000    0.5261707   -9.0364966    203.52325 0.0093599727 0.0078611546          232 
 1813000   0.54382133   -9.0476777    203.63788 0.0093600789 0.0078539803          242 
 1814000   0.52742309   -9.0398013     203.7818 0.0093615305 0.0078468122          451 
 1815000   0.52645429   -9.0586097    203.48562 0.0093427742  0.007839655          232 
 1816000   0.52507459   -9.0333418     203.7777 0.0093510326 0.0078325012          242 
 1817000   0.52788417   -9.0523035    203.80335 0.0093470624 0.0078253558          229 
 1818000    0.5244524   -9.0419212    203.69895 0.0093371358 0.0078182169          246 
 1819000   0.53281962   -9.0262645    203.79847  0.009336562 0.0078110927          231 
 1820000   0.52568771   -9.0432147    204.04164  0.009342566 0.0078039736          242 
 1821000   0.53160047   -9.0464515    203.80397 0.0093265589  0.007796866          246 
 1822000   0.52332279   -9.0373384    203.69948 0.0093166612 0.0077897672          436 
 1823000   0.53066461   -9.0309381    203.51899 0.0093032998 0.0077826714          476 
 1824000   0.53898999   -9.0359177    203.89075 0.0093151842 0.0077755938          238 
 1825000   0.53029428   -9.0413325    203.71165 0.0093019018 0.0077685263          227 
 1826000   0.52872714   -9.0504443    203.78292 0.0093000604  0.007761467          232 
 1827000   0.52543531   -9.0289561    203.80708 0.0092960718 0.0077544137          235 
 1828000   0.52500733   -9.0371367    203.83283 0.0092921603 0.0077473637          236 
 1829000   0.52325987   -9.0556831    203.79197 0.0092852181 0.0077403277          240 
 1830000   0.52758566   -9.0432012    203.64632 0.0092735118 0.0077332945          246 
 1831000   0.52230551   -9.0375297    204.06961 0.0092877123 0.0077262697          241 
 1832000   0.52553539   -9.0493553    203.73473 0.0092674096  0.007719253          236 
 1833000   0.52143899    -9.049948       203.59 0.0092557737 0.0077122449          248 
 1834000   0.52001004   -9.0488047    204.00768 0.0092697057 0.0077052453          245 
 1835000   0.51734025   -9.0506783    203.79112 0.0092548191  0.007698253          238 
 1836000   0.51813385   -9.0546543    203.41296 0.0092326145 0.0076912691          245 
 1837000   0.51639727   -9.0311522    203.89495 0.0092494534 0.0076842953          236 
 1838000   0.53052219   -9.0471962    203.50283 0.0092266426 0.0076773381          237 
 1839000    0.5160048   -9.0394354    203.70339 0.0092307136 0.0076703848          250 
 1840000   0.51599939   -9.0453234    203.57817 0.0092200259 0.0076634347          246 
 1841000   0.50348456   -9.0456372    203.67386 0.0092193493 0.0076564928          243 
 1842000   0.51983184   -9.0291835    204.03731 0.0092307866 0.0076495651          434 
 1843000   0.50684221   -9.0678628    203.46639 0.0091999634 0.0076426414          465 
 1844000   0.51140378   -9.0520574    203.84522 0.0092120941 0.0076357246          233 
 1845000    0.5164902   -9.0516158    203.70461 0.0092007501 0.0076288183          236 
 1846000    0.5136484   -9.0658106    203.60396 0.0091912224 0.0076219233          253 
 1847000   0.51923357   -9.0526751    203.66509 0.0091890042 0.0076150286          255 
 1848000   0.51380748   -9.0494927    203.58052 0.0091802184 0.0076081443          245 
 1849000   0.51075649   -9.0583897    203.62449 0.0091772348 0.0076012662          246 
 1850000   0.51507401   -9.0496712    203.32703 0.0091588753 0.0075943956          236 
 1851000   0.51536493    -9.050884    203.53834 0.0091634405 0.0075875331          246 
 1852000   0.51747557   -9.0467378    203.85252 0.0091726294 0.0075806787          242 
 1853000   0.52168023   -9.0565021    203.24596 0.0091404013 0.0075738382          422 
 1854000   0.52148055   -9.0706778    203.63997 0.0091531812 0.0075670069          233 
 1855000   0.51402909    -9.065569    203.30869 0.0091333642 0.0075601745          248 
 1856000   0.50967643   -9.0662544    203.42369 0.0091336068 0.0075533568          232 
 1857000   0.50451462   -9.0620373    203.78927 0.0091450936 0.0075465416          288 
 1858000   0.49960367   -9.0670443    203.44976 0.0091249445 0.0075397398          232 
 1859000   0.50998974    -9.056136    203.50427 0.0091224795 0.0075329434          244 
 1860000   0.50291058   -9.0582614    203.29452 0.0091081772 0.0075261593          237 
 1861000   0.52066055   -9.0807134     203.7027 0.0091215609 0.0075193812          450 
 1862000   0.51514784   -9.0689065    203.54947 0.0091098044 0.0075126115          241 
 1863000   0.50444178   -9.0541931    203.82574 0.0091172725 0.0075058491          237 
 1864000   0.51332523   -9.0627075    203.31012 0.0090893295 0.0074990896          232 
 1865000   0.51016015   -9.0648856    203.33378 0.0090855131 0.0074923392          228 
 1866000   0.50906869   -9.0694433    203.43692 0.0090852499  0.007485597          234 
 1867000   0.49976555   -9.0516618    203.42126 0.0090796847   0.00747887          241 
 1868000   0.52195289   -9.0587911    203.76824 0.0090903033 0.0074721482          232 
 1869000    0.5066159   -9.0648719    203.49173 0.0090731109 0.0074654356          223 
 1870000   0.49878828   -9.0655528    203.25395 0.0090576627  0.007458726          249 
 1871000   0.52308222   -9.0753806    203.47439   0.00906264 0.0074520292          253 
 1872000   0.51345192   -9.0712293    203.52013 0.0090598346 0.0074453347          238 
 1873000     0.519988   -9.0615369    203.27566 0.0090441206 0.0074386503          237 
 1874000   0.51685267   -9.0767355     203.5409 0.0090510894 0.0074319685          242 
 1875000   0.50972712   -9.0719925    203.25612 0.0090336052 0.0074252986          238 
 1876000   0.51315082   -9.0727836    203.52692 0.0090408192 0.0074186343          248 
 1877000   0.51128093    -9.074005    203.32372  0.009026981 0.0074119784          233 
 1878000   0.50885121   -9.0772816    203.29262 0.0090207944 0.0074053286          460 
 1879000    0.5055741   -9.0775344    203.63652 0.0090312451 0.0073986886          439 
 1880000   0.49772817   -9.0914975    203.11902 0.0090035029 0.0073920513          250 
 1881000   0.51185163   -9.0821241    203.10443 0.0089980699 0.0073854236          445 
 1882000   0.50080515   -9.0974742    203.54067  0.009012605 0.0073788008          242 
 1883000   0.50727684   -9.0913037    203.48411 0.0090053156 0.0073721834          232 
 1884000   0.50309216   -9.0909533    203.52222 0.0090022215 0.0073655794          234 
 1885000   0.48969135   -9.0764129    203.65914 0.0090034988 0.0073589837          224 
 1886000   0.48999625   -9.0950732    203.28892 0.0089823666 0.0073523938          250 
 1887000   0.50237585   -9.0917473    203.34724 0.0089801818 0.0073458125          246 
 1888000    0.4986278   -9.0808524    203.27006 0.0089720191 0.0073392403          246 
 1889000   0.50441388    -9.076444    203.57129  0.008980558 0.0073326713          229 
 1890000   0.50982228   -9.0980962    203.20138 0.0089594966 0.0073261135          240 
 1891000   0.49543472   -9.0693016    203.28606 0.0089584902  0.007319561          230 
 1892000   0.48870626   -9.0935021    203.39632 0.0089586118 0.0073130198          255 
 1893000   0.50132661   -9.0818486    203.39652 0.0089538882  0.007306488          232 
 1894000   0.49972828   -9.0793477    203.01966 0.0089325794 0.0072999679          235 
 1895000    0.4860117    -9.067459    203.26159 0.0089385043 0.0072934463          233 
 1896000   0.49557951   -9.0802183    203.27536 0.0089343951 0.0072869388          252 
 1897000   0.49845509   -9.0706888    203.51201 0.0089400812 0.0072804318          244 
 1898000   0.48261063   -9.0987389    203.39007 0.0089300169 0.0072739401          235 
 1899000   0.49736398   -9.0825114    203.57004  0.008933212 0.0072674572          232 
 1900000   0.49995377   -9.0895233    203.20427 0.0089124682 0.0072609711          236 
 1901000   0.49470552   -9.0858205    203.37417 0.0089152276 0.0072545017          233 
 1902000   0.49637595   -9.1129975    203.03869 0.0088958416  0.007248034          247 
 1903000   0.49079559   -9.0994134    203.45743 0.0089095037 0.0072415723          242 
 1904000   0.49339495   -9.1078645    203.33116 0.0088992981 0.0072351202          232 
 1905000   0.49029011    -9.110241    203.18551 0.0088882552 0.0072286798          227 
 1906000   0.48224743   -9.0962898    203.32982 0.0088899013 0.0072222445          239 
 1907000   0.49334469   -9.0910335    203.19472 0.0088793357 0.0072158158          234 
 1908000   0.48746663   -9.1034993    203.30835 0.0088796449 0.0072093931          230 
 1909000   0.48991723   -9.0959058    203.10024  0.008865909 0.0072029781          239 
 1910000   0.50332013   -9.0837979     203.1007  0.008861287 0.0071965731          267 
 1911000   0.48136773   -9.0928841    203.40551 0.0088699421 0.0071901793          265 
 1912000   0.49603391   -9.0969492    203.10987 0.0088524178 0.0071837943          236 
 1913000   0.49775391   -9.1175315    203.54554 0.0088667687 0.0071774121          254 
 1914000   0.49204053   -9.0954615    203.52778 0.0088613628 0.0071710372          234 
 1915000   0.48556224    -9.111228    203.39208 0.0088508305 0.0071646722          251 
 1916000   0.48726836   -9.1001712     203.1511 0.0088357299  0.007158317          248 
 1917000   0.49198071   -9.1025587    203.11147 0.0088293978 0.0071519641          236 
 1918000   0.50109702   -9.1120675    203.37135 0.0088360858 0.0071456189          247 
 1919000   0.48011224   -9.1041373    203.13332 0.0088211445 0.0071392879          227 
 1920000   0.49350399   -9.0947583    203.21787 0.0088202199 0.0071329597          241 
 1921000   0.47890042   -9.0948188    203.10367 0.0088106746 0.0071266377          235 
 1922000   0.47951142   -9.1058126    202.98303 0.0088008597  0.007120327          252 
 1923000    0.4740317   -9.0957083    202.83692 0.0087899515 0.0071140185          251 
 1924000   0.47834754   -9.0967344    202.99763 0.0087923434 0.0071077227          250 
 1925000    0.4789941   -9.0993294    203.08226   0.00879144 0.0071014311          417 
 1926000   0.48105087   -9.1045726    203.04354    0.0087852 0.0070951503          255 
 1927000   0.48681222   -9.1097591    203.00254 0.0087788677 0.0070888676          249 
 1928000    0.4864634    -9.110145    203.06234 0.0087768994 0.0070825993          260 
 1929000   0.48457239   -9.1000094    203.37464 0.0087858408 0.0070763342          238 
 1930000   0.47833714   -9.0984764    202.99279 0.0087648011 0.0070700851          245 
 1931000   0.48065516   -9.1174267    203.10767 0.0087652196 0.0070638388          244 
 1932000   0.48518411   -9.0912975    203.34008 0.0087707073 0.0070575977          252 
 1933000   0.48521241   -9.1032692    203.18628 0.0087595397 0.0070513706          242 
 1934000   0.47166974   -9.1203598    203.14459  0.008753214 0.0070451459          233 
 1935000   0.48749935   -9.1178881    202.92137 0.0087390771 0.0070389278          239 
 1936000   0.47515651   -9.1231599    202.95142 0.0087358567 0.0070327105          243 
 1937000   0.48882154   -9.1122088    203.32923 0.0087476007 0.0070265061          234 
 1938000   0.47626704   -9.1161224    203.09335 0.0087329441 0.0070203088          244 
 1939000   0.47622039   -9.1134862    203.02716 0.0087255957 0.0070141235          238 
 1940000   0.47364033   -9.1261313    203.15915 0.0087267678 0.0070079353          240 
 1941000   0.48130432    -9.111553    203.05316 0.0087177211 0.0070017627          231 
 1942000   0.47735249   -9.1070335    203.01468 0.0087115809 0.0069955977          261 
 1943000   0.49013935     -9.11636    202.93473 0.0087036683 0.0069894446          252 
 1944000   0.48161514   -9.1332122    203.06855 0.0087049275  0.006983288          238 
 1945000   0.46308646   -9.1175331    203.04153 0.0086992943 0.0069771398          256 
 1946000   0.47573371    -9.113291    202.85698 0.0086869211 0.0069709993          243 
 1947000   0.47698788    -9.122725    203.02336 0.0086895806 0.0069648617          242 
 1948000   0.48074702   -9.1225111     202.9824 0.0086833676   0.00695874          251 
 1949000   0.47569526     -9.11817     202.9954 0.0086794683 0.0069526205          253 
 1950000   0.48100102   -9.1279128    203.11487 0.0086801227 0.0069465123          266 
 1951000   0.46234251   -9.1205987    203.00616 0.0086710303 0.0069404028          245 
 1952000   0.47295931   -9.1235605    202.94372 0.0086639223 0.0069343067          241 
 1953000    0.4851308   -9.1222194    203.16275 0.0086688322 0.0069282189          249 
 1954000   0.47140561   -9.1323309    202.83151 0.0086502692 0.0069221322          246 
 1955000   0.48011447   -9.1318096     202.8023 0.0086445993 0.0069160526          243 
 1956000    0.4594877   -9.1239436     202.8296 0.0086413429 0.0069099798          249 
 1957000   0.47953891   -9.1301314    202.92455 0.0086409705 0.0069039123          244 
 1958000   0.47061331   -9.1290713    202.85739 0.0086336989 0.0068978511          247 
 1959000   0.46445578   -9.1295138    202.87565 0.0086300687 0.0068917973          253 
 1960000   0.46873888   -9.1327293    203.23594 0.0086409839 0.0068857575          243 
 1961000   0.47364794   -9.1255817    203.08893   0.00863033 0.0068797164          242 
 1962000   0.48289706   -9.1373753     202.8774  0.008616947 0.0068736862          259 
 1963000   0.48192489   -9.1340463    202.80484  0.008609477 0.0068676594          246 
 1964000   0.47313403   -9.1294008    203.02864 0.0086145892 0.0068616418          251 
 1965000   0.45724671   -9.1410514    202.98191 0.0086082235 0.0068556363          245 
 1966000   0.47422207    -9.130626    203.02488 0.0086056662 0.0068496379          274 
 1967000   0.47909754   -9.1375846    202.94042 0.0085977129 0.0068436476          270 
 1968000   0.46809469   -9.1370115    203.24938 0.0086064268 0.0068376624          237 
 1969000   0.45979236   -9.1275157    202.99859 0.0085914419 0.0068316829          240 
 1970000   0.46256309   -9.1452099    202.95052 0.0085850472 0.0068257157          245 
 1971000   0.46360599   -9.1506309    203.12604 0.0085881126 0.0068197526          252 
 1972000   0.46938408   -9.1289604    202.59077 0.0085611382 0.0068137899          263 
 1973000   0.46883245    -9.151069    202.74026 0.0085631128 0.0068078343          255 
 1974000   0.46101788   -9.1410164    202.80324 0.0085614338 0.0068018872          247 
 1975000   0.45455752   -9.1461151    202.91031 0.0085616166 0.0067959492          248 
 1976000    0.4671011   -9.1366291    202.97054 0.0085598238 0.0067900196          231 
 1977000   0.46561266   -9.1427551    202.55346 0.0085379136 0.0067840955          245 
 1978000   0.46369091   -9.1378124    202.94287 0.0085500029 0.0067781778          251 
 1979000   0.46114492   -9.1522021    202.71854 0.0085362362  0.006772263          261 
 1980000   0.46141416   -9.1514237     202.7098 0.0085315573 0.0067663595          243 
 1981000    0.4709013   -9.1309491    202.84893 0.0085331031  0.006760458          243 
 1982000   0.45901338   -9.1500052    202.50815 0.0085144697 0.0067545659          264 
 1983000   0.45856953   -9.1473078    203.05032 0.0085329602 0.0067486828          262 
 1984000   0.45540712   -9.1369163    202.83761 0.0085197251 0.0067428057          430 
 1985000   0.45515926   -9.1315676    202.83912  0.008515496 0.0067369327          234 
 1986000   0.45439904   -9.1360864     202.6665 0.0085039654 0.0067310673          266 
 1987000   0.46792633   -9.1411321    202.79371 0.0085050204  0.006725205          259 
 1988000   0.45685692   -9.1449546    202.85314 0.0085032336 0.0067193488          240 
 1989000    0.4580469   -9.1408083    202.75197 0.0084947196 0.0067135002          263 
 1990000   0.46902993   -9.1576687    202.76697 0.0084910792 0.0067076569          243 
 1991000   0.45709017   -9.1460646    202.81326 0.0084887518  0.006701826          247 
 1992000   0.46663809   -9.1465084    202.43212 0.0084685459 0.0066959966          237 
 1993000   0.44700546   -9.1637501    202.58014 0.0084704859 0.0066901743          248 
 1994000   0.44359067   -9.1453077    203.09751   0.00848786 0.0066843537          245 
 1995000   0.45950367   -9.1430746    202.84621  0.008473108 0.0066785513          230 
 1996000   0.45559419   -9.1459555    202.54259 0.0084561869  0.006672754          461 
 1997000   0.46100997   -9.1461391    202.64496 0.0084562244 0.0066669596          240 
 1998000   0.45406123   -9.1469299    202.95243 0.0084648159   0.00666118          245 
 1999000   0.44977268   -9.1601584     202.4948 0.0084415041 0.0066553982          255 
 2000000   0.45085728   -9.1520278    202.62015 0.0084425064 0.0066496225          253 
 2001000   0.44877891   -9.1440799    202.99242 0.0084537906 0.0066438602          243 
 2002000   0.45242364   -9.1452139    202.77557 0.0084405417 0.0066381044          249 
 2003000   0.45688933   -9.1387541    202.74153 0.0084349114 0.0066323491          240 
 2004000   0.45243857   -9.1526431    202.75446 0.0084312401 0.0066266032          261 
 2005000   0.45188423   -9.1517327    202.93294 0.0084344532 0.0066208648          233 
 2006000   0.46336005   -9.1642503    202.85982 0.0084272108 0.0066151322          238 
 2007000   0.45249385     -9.14598    202.66295 0.0084148375 0.0066094067          238 
 2008000   0.45417937   -9.1488683    202.61782 0.0084087741 0.0066036804          254 
 2009000   0.45187102   -9.1530844    202.90137 0.0084163502 0.0065979695          249 
 2010000   0.45860927   -9.1490734     202.7288 0.0084050083 0.0065922616          246 
 2011000   0.46040475   -9.1554102    202.77781 0.0084028598 0.0065865614          256 
 2012000   0.44906308   -9.1574073    202.83743 0.0084011528 0.0065808666          242 
Loop time of 5129.53 on 48 procs for 2000000 steps with 4000 atoms

Performance: 67374.575 tau/day, 389.899 timesteps/s
99.4% CPU use with 48 MPI tasks x no OpenMP threads

MPI task timing breakdown:
Section |  min time  |  avg time  |  max time  |%varavg| %total
---------------------------------------------------------------
Pair    | 354.39     | 379.26     | 406.41     |  80.2 |  7.39
Neigh   | 33.925     | 35.225     | 36.574     |  12.1 |  0.69
Comm    | 326.68     | 355.27     | 385.12     |  92.7 |  6.93
Output  | 4.8101     | 4.8125     | 4.8565     |   0.3 |  0.09
Modify  | 4287.4     | 4304.8     | 4317.5     |  12.0 | 83.92
Other   |            | 50.18      |            |       |  0.98

Nlocal:        83.3333 ave          89 max          77 min
Histogram: 3 1 4 5 6 13 5 1 5 5
Nghost:        2281.08 ave        2296 max        2258 min
Histogram: 1 3 4 2 2 5 11 12 6 2
Neighs:        15438.1 ave       17160 max       14002 min
Histogram: 4 5 5 8 4 8 5 3 3 3
FullNghs:      30877.0 ave       33110 max       28214 min
Histogram: 3 1 2 8 7 10 4 5 3 5

Total # of neighbors = 1482095
Ave neighs/atom = 370.52375
Neighbor list builds = 106581
Dangerous builds = 0

#clear
#
#next RN
#
#jump SELF
Total wall time: 1:25:33
