
units lj                  # Use reduced LJ style units
atom_style atomic         # Uncharged point particles
atom_modify map hash      # Needed for indexing of clusters etc
                          # Used to be able to find where atoms are in relation to each other.

# Define a lattice with which to populate the simulation cell. With units
# set to 'lj' the second argument to the lattice command is the reduced
# density rho* and the spacings are multiples of that required to acheive
# that density. Also define a simulation cell called 'box' in lattice units
# and fill it with atoms. Here we're creating a box which is ten lattice
# constants in each direction.
lattice fcc 1.0 spacing 1 1 1                 # All equal sizes - gives the right reduced density.
Lattice spacing in x,y,z = 1.5874011 1.5874011 1.5874011

region box block 0 10 0 10 0 10 units lattice # Defines a region, "box", in lattice units
create_box 1 box                              # Creates a simulation box as specified above,
Created orthogonal box = (0.0000000 0.0000000 0.0000000) to (15.874011 15.874011 15.874011)
  3 by 4 by 4 MPI processor grid
                                              # with one type of atom
create_atoms 1 box                            # Creates particles on lattice points
Created 4000 atoms
  using lattice units in orthogonal box = (0.0000000 0.0000000 0.0000000) to (15.874011 15.874011 15.874011)
  create_atoms CPU = 0.003 seconds


# Set the mass of the first (and only) atom type.
mass 1 1.0

# Lennard-Jones interactions between particles, 3.5 sigma cut-off. Apply
# long range tail corrections to energy and pressure and set all coefficients
# to unity since we work in reduced units here. Note that this doesn't shift
# the potential such that it goes to zero at the cutoff. That would require
# pair_modify('shift', 'yes').
pair_style lj/cut  3.5      # non-GPU version
pair_modify tail  yes
pair_coeff 1  1  1.0  1.0   # Intearaction between 1 and 1 set with epsilon = 1 and sigma = 1

write_data data.*
System init for write_data ...
Neighbor list info ...
  update every 1 steps, delay 10 steps, check yes
  max neighbors/atom: 2000, page size: 100000
  master list distance cutoff = 3.8
  ghost atom cutoff = 3.8
  binsize = 1.9, bins = 9 9 9
  1 neighbor lists, perpetual/occasional/extra = 1 0 0
  (1) pair lj/cut, perpetual
      attributes: half, newton on
      pair build: half/bin/atomonly/newton
      stencil: half/bin/3d
      bin: standard

#############################
#   M E L T   S Y S T E M   #
#############################

velocity all create 2.4 6229865 mom yes dist gaussian # Assign velocities
                                                    # Temperature 2.4, random number seed, zero linear momentum
						                                                        # Gaussian distribution

timestep 0.002   # simulation timestep
thermo 1000       # output thermodynamic data every 1000 steps

# Define a fix  in this case with index 1 applied to all
# particles in the simulation. This fix is for simulations
# in the anisotropic NPT ensemble. Note that we use the MTK
# correction.
fix 1 all npt temp 2.4 2.4 0.1 iso 5.68 5.68 0.5 mtk yes tchain 5 pchain 5 # Use NPT ensemble
                                                                         # Set temperature and pressure and damping
                                                                         # Numbers of thermostats in chain and in barostat
run 1000         # run for 10000 steps
Per MPI rank memory allocation (min/avg/max) = 3.642 | 3.644 | 3.648 Mbytes
Step Temp E_pair E_mol TotEng Press Volume 
       0          2.4   -8.3859253            0   -4.7868253   -2.2405722         4000 
    1000    2.3673149   -4.4811735            0  -0.93108891    5.4341652    5181.8809 
Loop time of 0.239775 on 48 procs for 1000 steps with 4000 atoms

Performance: 720674.227 tau/day, 4170.568 timesteps/s
99.2% CPU use with 48 MPI tasks x no OpenMP threads

MPI task timing breakdown:
Section |  min time  |  avg time  |  max time  |%varavg| %total
---------------------------------------------------------------
Pair    | 0.091706   | 0.099845   | 0.11267    |   1.3 | 41.64
Neigh   | 0.017854   | 0.018817   | 0.020956   |   0.5 |  7.85
Comm    | 0.057818   | 0.074943   | 0.081965   |   1.8 | 31.26
Output  | 2.5031e-05 | 2.5641e-05 | 3.277e-05  |   0.0 |  0.01
Modify  | 0.041675   | 0.044602   | 0.047485   |   0.7 | 18.60
Other   |            | 0.001543   |            |       |  0.64

Nlocal:        83.3333 ave          93 max          73 min
Histogram: 3 0 4 4 7 9 11 6 2 2
Nghost:        1387.69 ave        1414 max        1367 min
Histogram: 3 5 6 3 12 8 6 2 2 1
Neighs:        7359.17 ave        8798 max        6287 min
Histogram: 3 2 7 11 7 9 6 0 1 2

Total # of neighbors = 353240
Ave neighs/atom = 88.310000
Neighbor list builds = 87
Dangerous builds = 25

# Equilibrate just above the melting temperature to avoid step fn in T

fix 1 all npt temp 1.25 1.25 0.1 iso 5.68 5.68 0.5 mtk yes tchain 5 pchain 5
run 1000
Per MPI rank memory allocation (min/avg/max) = 3.642 | 3.644 | 3.648 Mbytes
Step Temp E_pair E_mol TotEng Press Volume 
    1000    2.3673149   -4.4811735            0  -0.93108891    5.4341652    5181.8809 
    2000    1.2267189   -5.8365426            0   -3.9969242     5.526825     4357.147 
Loop time of 0.215962 on 48 procs for 1000 steps with 4000 atoms

Performance: 800140.576 tau/day, 4630.443 timesteps/s
99.6% CPU use with 48 MPI tasks x no OpenMP threads

MPI task timing breakdown:
Section |  min time  |  avg time  |  max time  |%varavg| %total
---------------------------------------------------------------
Pair    | 0.092902   | 0.099615   | 0.11077    |   1.1 | 46.13
Neigh   | 0.015573   | 0.016531   | 0.018299   |   0.4 |  7.65
Comm    | 0.065016   | 0.07483    | 0.082841   |   1.5 | 34.65
Output  | 2.3848e-05 | 2.4601e-05 | 3.0504e-05 |   0.0 |  0.01
Modify  | 0.020377   | 0.02304    | 0.027506   |   1.2 | 10.67
Other   |            | 0.001921   |            |       |  0.89

Nlocal:        83.3333 ave          92 max          76 min
Histogram: 3 5 0 11 8 7 8 3 2 1
Nghost:        1554.94 ave        1577 max        1535 min
Histogram: 2 2 4 9 7 14 2 6 1 1
Neighs:        8736.65 ave        9525 max        7851 min
Histogram: 2 5 3 3 9 8 3 9 4 2

Total # of neighbors = 419359
Ave neighs/atom = 104.83975
Neighbor list builds = 76
Dangerous builds = 8


# Small amount of linear quench

fix 1 all npt temp 1.25 ${temp} 0.1 iso 5.68 5.68 0.5 mtk yes tchain 5 pchain 5
fix 1 all npt temp 1.25 1 0.1 iso 5.68 5.68 0.5 mtk yes tchain 5 pchain 5
run 2000
Per MPI rank memory allocation (min/avg/max) = 3.643 | 3.645 | 3.648 Mbytes
Step Temp E_pair E_mol TotEng Press Volume 
    2000    1.2267189   -5.8365426            0   -3.9969242     5.526825     4357.147 
    3000    1.1214879   -6.0279751            0   -4.3461638    5.6301988    4260.0958 
    4000    1.0064232   -6.2261355            0   -4.7168781    5.5951801    4178.5465 
Loop time of 0.44652 on 48 procs for 2000 steps with 4000 atoms

Performance: 773985.816 tau/day, 4479.085 timesteps/s
99.7% CPU use with 48 MPI tasks x no OpenMP threads

MPI task timing breakdown:
Section |  min time  |  avg time  |  max time  |%varavg| %total
---------------------------------------------------------------
Pair    | 0.19572    | 0.21336    | 0.23075    |   1.6 | 47.78
Neigh   | 0.026935   | 0.0281     | 0.030648   |   0.4 |  6.29
Comm    | 0.13424    | 0.15263    | 0.17829    |   2.4 | 34.18
Output  | 4.7583e-05 | 4.8613e-05 | 6.0279e-05 |   0.0 |  0.01
Modify  | 0.037247   | 0.047608   | 0.05928    |   2.7 | 10.66
Other   |            | 0.004782   |            |       |  1.07

Nlocal:        83.3333 ave          91 max          78 min
Histogram: 5 3 6 13 6 3 9 1 0 2
Nghost:        1596.00 ave        1624 max        1573 min
Histogram: 1 8 5 5 10 8 6 1 1 3
Neighs:        9114.10 ave        9928 max        8380 min
Histogram: 3 5 4 9 6 7 3 6 3 2

Total # of neighbors = 437477
Ave neighs/atom = 109.36925
Neighbor list builds = 124
Dangerous builds = 0

#############################
# F R E E Z E  S Y S T E M  #
#############################

# Define solid atoms. This closely follows ten Wolde  Ruiz-Montero and Frenkel  Faraday Discuss  1996  104  93-110
# Compute components of the per-atom q6 vector
compute q6 all orientorder/atom degrees 1 6 components 6 nnn NULL cutoff 1.3 # compute the Q6 parameter.
                                                                             # Use all neighbours within 1.3 unit cell.

# get number of connections
compute coord_number all coord/atom orientorder q6 0.5

# An atom is solid if it has 8 or more connections (of a possible 14)
variable is_solid atom c_coord_number>=8
group solid dynamic all var is_solid    # Must be dynamic to update
dynamic group solid defined

# do clustering
compute cluster solid cluster/atom 1.3 # Create a cluster where all atoms within are solid and max 1.3 units from another member

# define chunks one chunk per cluster
compute clus_chunks solid chunk/atom c_cluster nchunk every compress yes  # Says which atoms are in which chunk

# count the size of each chunk
compute size_chunks solid property/chunk clus_chunks count


# Find the maximum entry in the vector of chunk sizes
variable max_n equal max(c_size_chunks)


# Thermo style which includes this variable
thermo_style custom step temp pe vol v_max_n

thermo ${N}  # Print the thermo information every 100 steps
thermo 1000  

# Reset the npt fix at a lower temperature (below freezing)
fix 1  all npt temp  ${temp} ${temp}  0.1  iso  5.68  5.68  0.5  mtk yes tchain  5  pchain  5
fix 1  all npt temp  1 ${temp}  0.1  iso  5.68  5.68  0.5  mtk yes tchain  5  pchain  5
fix 1  all npt temp  1 1  0.1  iso  5.68  5.68  0.5  mtk yes tchain  5  pchain  5

dump dmp2 all dcd ${N} traj_${rand}.dcd
dump dmp2 all dcd 1000 traj_${rand}.dcd
dump dmp2 all dcd 1000 traj_462431.dcd


# fix rnuntil all halt ${N} v_max_n >= 3980 error soft message no   # Stop when solidified


run 1000000 # 5000000  # Run for this many steps
Neighbor list info ...
  update every 1 steps, delay 10 steps, check yes
  max neighbors/atom: 2000, page size: 100000
  master list distance cutoff = 3.8
  ghost atom cutoff = 3.8
  binsize = 1.9, bins = 9 9 9
  4 neighbor lists, perpetual/occasional/extra = 1 3 0
  (1) pair lj/cut, perpetual
      attributes: half, newton on
      pair build: half/bin/atomonly/newton
      stencil: half/bin/3d
      bin: standard
  (2) compute orientorder/atom, occasional
      attributes: full, newton on
      pair build: full/bin/atomonly
      stencil: full/bin/3d
      bin: standard
  (3) compute coord/atom, occasional
      attributes: full, newton on
      pair build: full/bin/atomonly
      stencil: full/bin/3d
      bin: standard
  (4) compute cluster/atom, occasional
      attributes: full, newton on
      pair build: full/bin/atomonly
      stencil: full/bin/3d
      bin: standard
Per MPI rank memory allocation (min/avg/max) = 9.363 | 9.368 | 9.374 Mbytes
Step Temp PotEng Volume v_max_n 
    4000    1.0064232   -6.2261355    4178.5465            4 
    5000   0.99804897   -6.2654994    4150.4443           14 
    6000    1.0019776   -6.2748757    4150.4922           11 
    7000    1.0137776   -6.2790544    4158.9463            3 
    8000    1.0065591   -6.2460483    4165.7716            8 
    9000   0.97971548   -6.2834347    4144.3274            7 
   10000   0.99193031   -6.2724373    4162.0437           16 
   11000    1.0229554   -6.2938018    4138.5327            9 
   12000    1.0111587   -6.2801195    4151.6082            7 
   13000    0.9942957   -6.2592297    4139.5448           12 
   14000    1.0019489   -6.2708043    4152.2387           13 
   15000   0.99952798   -6.2496595     4154.171            4 
   16000   0.98305069   -6.2934458    4160.7307            6 
   17000      1.00221   -6.2641268    4172.9248            7 
   18000   0.98642594   -6.2672176     4153.321            6 
   19000    0.9835558   -6.2835478     4151.308            5 
   20000   0.99479932   -6.2703215    4149.0503            5 
   21000   0.99599623   -6.2930827    4152.9608            7 
   22000   0.98994036   -6.2727348    4138.1555            9 
   23000   0.99431182   -6.2797803    4149.2731           15 
   24000    1.0080109   -6.2400081    4156.9825            6 
   25000   0.99678353   -6.2752172    4155.5105            6 
   26000    1.0102049   -6.2531651    4171.1427            5 
   27000   0.99393238   -6.2258342    4148.8779            8 
   28000   0.99426401   -6.2818819    4147.9857            5 
   29000    1.0035825   -6.2316157    4147.0928            5 
   30000    1.0109075   -6.2788025    4158.9985            8 
   31000   0.98526665   -6.2875059    4154.7457            5 
   32000   0.98852052   -6.2461521    4152.6368            7 
   33000   0.98269399   -6.2825011    4143.1847            4 
   34000    1.0112152   -6.2968895    4151.1545            5 
   35000   0.98254731   -6.2552077    4156.7507            6 
   36000   0.99845193   -6.2747911    4132.7414            8 
   37000    1.0107573   -6.2493041    4151.1108           10 
   38000   0.99756195   -6.2581763    4151.2976            5 
   39000   0.99551589   -6.2687827    4159.0459            3 
   40000    1.0121551   -6.2759523    4155.7388            5 
   41000   0.99217797   -6.2566173    4139.2997            5 
   42000   0.98532186   -6.2784978    4146.9133            9 
   43000    1.0135109   -6.3068394    4156.6771            6 
   44000    1.0111937    -6.285365    4166.0691            4 
   45000    1.0003138   -6.2927881    4143.0953            6 
   46000   0.99166558   -6.2713842    4159.0097            9 
   47000   0.99667777   -6.2837418     4144.742            9 
   48000   0.99833591   -6.2681764    4136.7365           10 
   49000    1.0403385   -6.2857147    4151.2297            9 
   50000   0.99638234   -6.2840762    4158.7622            4 
   51000   0.99695613   -6.2666535    4156.3683            5 
   52000   0.98728277   -6.2742001    4150.3327            8 
   53000   0.98432076   -6.2632315    4156.8937            8 
   54000    1.0039105   -6.2627444    4147.8368            4 
   55000     1.013127    -6.249277    4158.0499            5 
   56000   0.99594369   -6.3078277     4145.311            9 
   57000   0.99893665   -6.2812806    4142.7422           10 
   58000    1.0083904   -6.3114964    4155.7443           11 
   59000   0.96878924   -6.2569012    4156.7129            6 
   60000   0.97673443   -6.2673626    4141.3073           11 
   61000   0.99547766   -6.2856955    4155.3013            5 
   62000    1.0114933   -6.2607248    4143.5211            8 
   63000    1.0148923   -6.2826755    4172.4995            6 
   64000    1.0002937   -6.2989825    4139.9843            3 
   65000    1.0023014   -6.2900007    4164.3612            6 
   66000    1.0083221    -6.266791    4137.6593            8 
   67000    1.0061516   -6.2843107    4168.6517            3 
   68000    0.9994756   -6.2423008    4169.1371            7 
   69000    1.0078266   -6.2725813    4159.1426           10 
   70000   0.99301795   -6.3009672    4143.6664            8 
   71000    1.0034761   -6.2475996    4135.7322           11 
   72000    1.0035324   -6.2634811    4142.2651            6 
   73000   0.98728085   -6.2546047    4160.6999            5 
   74000   0.97964136   -6.2712067    4152.3876            5 
   75000    1.0300396   -6.2717372    4138.9858            6 
   76000   0.99137703   -6.2810447    4146.4817            7 
   77000    1.0003352   -6.2723626    4143.1731            7 
   78000   0.97843771    -6.260058    4154.9254            8 
   79000    1.0169429   -6.2733243    4160.8381           17 
   80000   0.98870435   -6.2926236    4146.8274            4 
   81000    1.0175508   -6.2742302    4152.1172            5 
   82000     1.036686   -6.2773581    4146.5123           14 
   83000     1.008426   -6.2760367    4149.9943           15 
   84000    1.0222083    -6.288747    4151.0866            5 
   85000    1.0017031   -6.2649737    4146.6423            4 
   86000   0.98541263   -6.2358928    4151.8762            7 
   87000   0.99570672   -6.2940162    4156.6713           11 
   88000    1.0171223   -6.2680189    4160.2775            4 
   89000    1.0021356   -6.2365767     4173.923           13 
   90000    1.0016388   -6.2876706    4138.8931            3 
   91000   0.99663548   -6.2716787    4159.9319            3 
   92000   0.98648046   -6.2482744    4171.0142            5 
   93000   0.98269741   -6.2837695    4147.3792           10 
   94000    1.0114147   -6.3056917    4130.8292            6 
   95000   0.98301644   -6.2871031    4144.4769            3 
   96000   0.98229814   -6.2827307    4148.0961            3 
   97000    1.0002205   -6.2386925    4160.5198            3 
   98000   0.99193945   -6.2749006    4159.7101           12 
   99000    1.0236033   -6.2754374    4150.6686           23 
  100000    0.9680296   -6.2915092    4164.5275           11 
  101000    1.0062251    -6.286124      4147.04            8 
  102000    1.0058758   -6.2365585    4154.8076            5 
  103000    1.0158273   -6.2643591    4157.2687           12 
  104000    1.0199648   -6.2730158    4139.1902           17 
  105000   0.99595757   -6.2737192    4134.9541            4 
  106000     1.002156   -6.2756467    4138.9028            5 
  107000   0.99010362   -6.2546362    4140.4795            5 
  108000   0.99617383   -6.2508185    4165.6566            5 
  109000   0.98780294   -6.2399864    4157.6814            6 
  110000   0.99424744   -6.2496549    4152.7124            6 
  111000   0.98679457   -6.3231556    4146.6867           11 
  112000   0.98648641   -6.2575035    4158.6623            7 
  113000   0.98241744   -6.2630276    4167.9608            4 
  114000   0.99971903   -6.2583555    4143.3213            6 
  115000   0.97965864   -6.2647696    4156.9957           11 
  116000   0.99808115   -6.2780655    4142.6828            6 
  117000   0.99611572   -6.2717749    4157.9629            7 
  118000   0.99676352   -6.2832144    4160.6634            7 
  119000   0.99777024   -6.2699879    4148.5616            9 
  120000   0.98018643    -6.260504    4159.3986            4 
  121000    1.0047085   -6.2748949    4149.2626            5 
  122000     1.003006   -6.2739779    4151.2001            6 
  123000   0.99563271   -6.2746709    4166.5193            6 
  124000    1.0017388   -6.2650146    4149.7763            6 
  125000    1.0116569   -6.2759128    4147.0738            3 
  126000    1.0028274   -6.2489795    4154.1662            4 
  127000    0.9813534   -6.2684701    4147.1149            4 
  128000   0.99973481    -6.260887    4169.7365            3 
  129000   0.99005601   -6.2444367    4170.9915            7 
  130000    1.0093178    -6.262091    4179.7077            7 
  131000    1.0002201   -6.2742874    4147.9566            9 
  132000    1.0004399   -6.2697955    4137.0498           15 
  133000     1.023721   -6.2750192     4127.687            9 
  134000    1.0082514   -6.2732496    4144.7055            3 
  135000   0.96662114   -6.2790969    4166.7317           16 
  136000    1.0004078    -6.266358    4145.0165            4 
  137000    1.0071867   -6.2664815    4158.6579            3 
  138000   0.98344607   -6.2591599    4147.4885            3 
  139000   0.99029915   -6.2558648    4166.9424            7 
  140000   0.99173477   -6.2785332    4147.4192            6 
  141000   0.99632597   -6.2769804    4152.3582            5 
  142000   0.98098058   -6.2675749    4152.1495            3 
  143000   0.98453299    -6.268279    4135.5457            7 
  144000   0.98770714   -6.2707956    4147.5747            6 
  145000    1.0036564   -6.2637001    4161.2446            3 
  146000   0.99171802   -6.2680267    4145.3405           11 
  147000    1.0034757   -6.2702757    4155.4734            5 
  148000    1.0077672   -6.2747727    4155.2014            5 
  149000    1.0102455   -6.2422634    4155.6447            8 
  150000    1.0006518   -6.2410997    4155.5689            5 
  151000    1.0102141   -6.2747787    4141.0974            5 
  152000     1.001079   -6.2829586    4153.6424           16 
  153000   0.99918431   -6.2721494    4135.9005            4 
  154000    1.0020323   -6.2774393    4125.7362            4 
  155000   0.99899265   -6.2996337    4145.6856            5 
  156000    1.0082079   -6.2543116    4152.6877            3 
  157000    1.0034409   -6.2970936    4145.4807            5 
  158000    1.0139445   -6.2742946    4147.9266            9 
  159000   0.99875871   -6.2694631    4158.0774            8 
  160000    1.0060183   -6.2741296    4137.7121           10 
  161000   0.99875738   -6.2339576    4155.1739           13 
  162000   0.98390715   -6.2508131    4147.8679           10 
  163000   0.99691043   -6.2661112    4147.6209            5 
  164000   0.98998792   -6.2654899    4157.5328            5 
  165000    1.0088924   -6.2756078    4152.5662            8 
  166000   0.99109926   -6.2565326    4163.7504            5 
  167000   0.97813769   -6.2693526    4154.2607            5 
  168000    1.0100373   -6.2679967    4151.3283            4 
  169000   0.95459124   -6.2411296    4170.4568            8 
  170000   0.98881788   -6.2625483    4156.0251            9 
  171000    1.0097397   -6.2708929    4169.4917            3 
  172000    1.0045486   -6.2444025    4156.1652            8 
  173000   0.98885767   -6.2906656    4149.0669            8 
  174000    1.0051945   -6.2669818     4161.903            9 
  175000   0.98962602   -6.2869866    4122.5378           14 
  176000    1.0016322   -6.2580802    4157.9775            5 
  177000   0.99490858   -6.2842479    4158.6738           11 
  178000   0.97998439   -6.3210388    4132.7482           10 
  179000    1.0034454   -6.2821419    4156.7283            6 
  180000    1.0157265    -6.301775    4150.8306            9 
  181000    1.0020505   -6.2564146    4157.0416            6 
  182000    1.0066271   -6.2808889    4153.7096           10 
  183000   0.98813577   -6.2885121    4161.7699            6 
  184000    1.0131685   -6.2810193    4154.7434            4 
  185000   0.96836115   -6.2386641    4160.4393           13 
  186000   0.99835996    -6.272321    4141.2521           10 
  187000    1.0319422   -6.2896929    4154.6448            3 
  188000    1.0128335   -6.2789662    4146.0054            6 
  189000    1.0028656   -6.2764307    4153.0989            5 
  190000   0.98894027   -6.2858619    4156.5574           10 
  191000   0.99647982   -6.2565015    4134.6377           13 
  192000   0.97463854   -6.2693796    4151.8847            5 
  193000   0.98666441   -6.2569237    4154.3357            5 
  194000    1.0285539   -6.2580616    4164.8211            6 
  195000   0.98751039     -6.26355    4161.2706           10 
  196000    0.9850445   -6.2804504    4152.7766            8 
  197000   0.99292301   -6.2748165    4169.3755            6 
  198000    0.9899045   -6.3002118    4150.9617            8 
  199000   0.98996189    -6.241569    4145.9287            5 
  200000    1.0058249   -6.3082893       4133.6            5 
  201000    1.0033677   -6.2334437    4161.3301            9 
  202000   0.99484395   -6.2358263     4161.128            8 
  203000    1.0139114   -6.2962836    4169.3191            6 
  204000    1.0061388   -6.2943356    4148.9161            4 
  205000   0.98934271   -6.2704806    4148.6789            9 
  206000   0.99963207   -6.2633976    4150.5201            4 
  207000   0.99293534   -6.3035931    4138.2501            8 
  208000   0.99836707   -6.2787287    4150.5884            7 
  209000    1.0000908   -6.2775772    4145.9209            3 
  210000   0.98128005   -6.2259386    4156.0839            5 
  211000   0.98404842   -6.2562932    4170.0269            8 
  212000   0.99467187   -6.2818118    4136.2224            6 
  213000     1.001557   -6.2569414    4146.3843           12 
  214000   0.99415016   -6.2739007    4134.5862           12 
  215000    1.0017497   -6.2867444    4148.5277            3 
  216000    1.0171023   -6.2781094    4155.5012            8 
  217000   0.98506156   -6.2809746    4153.2338            9 
  218000     1.019125   -6.2654921    4141.0775            4 
  219000     0.999069   -6.2514148    4159.2523            5 
  220000   0.99755215   -6.2818285    4130.7679            6 
  221000   0.98712112   -6.2496326    4168.2563           16 
  222000    1.0150728   -6.2802053    4159.6144            4 
  223000   0.99731221   -6.2698699    4153.0235            5 
  224000    1.0041942   -6.2761061    4144.7271            7 
  225000   0.98710985   -6.2836883    4157.7992           11 
  226000    0.9931939   -6.2470751    4139.4323            8 
  227000    1.0010587   -6.2468617    4159.0972           18 
  228000   0.99459974   -6.2993141    4151.8858            8 
  229000   0.99731951   -6.2979382    4149.1449           13 
  230000   0.98438444   -6.2472662    4168.1673            8 
  231000    1.0007367   -6.2680635    4157.3282            8 
  232000   0.98222389   -6.2908915    4134.6868            5 
  233000    1.0147695    -6.291387    4158.1908            5 
  234000    1.0221653   -6.2732175    4137.5591           13 
  235000    1.0091024   -6.2570786    4142.8716            3 
  236000    1.0095466   -6.2636233     4145.508            8 
  237000   0.98706521   -6.2513149    4151.7714            4 
  238000   0.99825272   -6.2612397    4149.9878            5 
  239000   0.97684906   -6.2663193    4148.3486            5 
  240000   0.99964329   -6.2762904    4143.7292            5 
  241000    1.0097003   -6.2926318    4158.5211           13 
  242000    1.0040082   -6.2421668    4166.5425            7 
  243000   0.99290264   -6.2809553    4154.4842            7 
  244000    1.0041354   -6.2755686    4133.6409            4 
  245000    1.0073066   -6.2884274    4152.2658            3 
  246000    1.0110757   -6.2657958    4167.8285           12 
  247000    1.0143007   -6.2760745    4146.1296           11 
  248000   0.99485863   -6.2634778    4159.5553            5 
  249000   0.99847134    -6.282849    4162.5329            7 
  250000    1.0449971   -6.2695386    4159.8208           21 
  251000   0.99698252   -6.2974763    4159.8359           10 
  252000   0.98623848   -6.2191146    4163.9524            6 
  253000   0.99764026    -6.271235     4139.322            4 
  254000    1.0061689   -6.2517679    4156.9425            8 
  255000    0.9962409   -6.2878398     4152.362            8 
  256000   0.99570311   -6.2580738    4155.4296            9 
  257000     1.000973   -6.2556924     4143.273           10 
  258000    1.0023369   -6.2489457    4146.6534           13 
  259000    1.0035737   -6.2458655    4152.6693            6 
  260000    1.0006628   -6.2821675    4166.4764            6 
  261000   0.99531789   -6.2703354    4147.6068           14 
  262000     1.007143   -6.2587051    4170.0299           16 
  263000    1.0123174   -6.2540551     4140.035            7 
  264000    1.0178857   -6.2753303    4158.8024           13 
  265000   0.97463783   -6.2739684    4166.1449            7 
  266000    1.0024717   -6.2585014    4164.8173            4 
  267000   0.98414836   -6.2483454    4146.1186            7 
  268000   0.98984583   -6.2700161    4157.4942           11 
  269000     1.029711   -6.2608802    4141.0557            4 
  270000    1.0123645   -6.2642911     4161.606            4 
  271000    1.0147997   -6.2705571    4148.9267            7 
  272000   0.99302177   -6.2370592     4152.315           10 
  273000    1.0009076   -6.2600255     4157.958            8 
  274000   0.99541641   -6.2596166    4177.7123            8 
  275000    1.0111868   -6.2866778    4153.1947           10 
  276000   0.99173342   -6.2840351    4154.8191            9 
  277000    1.0048141   -6.2951617    4141.7369           12 
  278000    0.9995353   -6.2491839      4155.81            5 
  279000    1.0112032   -6.2359368    4166.1796            5 
  280000     1.005976   -6.2657892    4142.2662            4 
  281000    1.0014507   -6.2386104    4161.3528            5 
  282000   0.99340004   -6.2864599    4126.8098            5 
  283000    1.0024931   -6.2693808    4140.8917            3 
  284000   0.98546091   -6.2946535    4131.2019           10 
  285000   0.98642753   -6.2694224    4157.8657            8 
  286000   0.99490098   -6.3094613    4128.7887            7 
  287000   0.99910671   -6.2784309    4154.7376            5 
  288000    1.0053318   -6.2649478    4159.3233            4 
  289000    1.0154642    -6.277743    4160.5904            6 
  290000   0.98992383   -6.2454965    4162.9022            4 
  291000    1.0191459   -6.2787342    4150.9763            5 
  292000   0.99263001   -6.2589473    4162.1492           11 
  293000    1.0112366   -6.2622909    4159.9464            5 
  294000    1.0171162   -6.2874729    4151.7116            5 
  295000     1.014333    -6.268834      4141.39            3 
  296000   0.99006148   -6.2635402    4154.7435            8 
  297000    0.9843501   -6.2537822    4155.4251            6 
  298000    1.0066037   -6.2735936    4156.4372            8 
  299000   0.99740561   -6.2670396    4157.8759            9 
  300000   0.98278459   -6.2453503    4151.2188            6 
  301000    1.0145179   -6.2654222    4164.7999            2 
  302000   0.99925136   -6.2722898     4147.975            8 
  303000    1.0084174     -6.28724    4141.4641            8 
  304000    1.0067367   -6.2862931    4154.5674            7 
  305000    1.0006371   -6.2447941    4153.5367            5 
  306000    1.0142162   -6.2592199    4152.0701            5 
  307000    1.0047622   -6.2726569     4137.741            3 
  308000    1.0169736   -6.2838538    4155.8227            7 
  309000   0.99277906    -6.298927    4170.2276            6 
  310000    0.9953629   -6.3043666    4136.6607            7 
  311000     1.000889   -6.2896407    4138.1998            5 
  312000    1.0200162    -6.274875    4159.3992            7 
  313000   0.99743656   -6.2834373    4147.4472            3 
  314000   0.99959467   -6.2693304    4165.5232            9 
  315000   0.98995568   -6.2449765    4130.2689            7 
  316000    1.0265379   -6.2590302    4162.3207            5 
  317000   0.99652498   -6.2861352    4155.1862            3 
  318000    1.0198576   -6.2507068    4153.4507           14 
  319000   0.99792025   -6.2755297    4151.6135            7 
  320000   0.99778012   -6.2841738    4139.2949            7 
  321000   0.99282274   -6.2916653    4157.8306            7 
  322000   0.99444321   -6.2639252    4149.5942           14 
  323000    1.0256744   -6.2750664    4153.3695            6 
  324000   0.99702315    -6.288702    4141.2875            3 
  325000    1.0010085   -6.2845677    4129.7221           10 
  326000    1.0087771   -6.2817696     4141.041            4 
  327000    1.0025289   -6.2814435    4157.4719            4 
  328000   0.97916417   -6.2693964     4144.881            9 
  329000   0.96327823   -6.2932459    4148.2394            4 
  330000    1.0132321   -6.2961671    4136.7679            6 
  331000    1.0022531   -6.2842578    4162.4461            4 
  332000    1.0068184   -6.3080321    4144.2943            7 
  333000    1.0109443   -6.2947741     4138.344            6 
  334000   0.98834298   -6.2826774    4145.4422            3 
  335000   0.98301945   -6.2951793    4132.5776            7 
  336000   0.98839991   -6.2552896    4149.6764           25 
  337000    1.0141732   -6.2918915    4160.3075            4 
  338000   0.98441527   -6.2681681    4164.3061            4 
  339000    1.0118118   -6.2441279    4138.9563            7 
  340000    0.9881859   -6.2712671     4152.855           10 
  341000    1.0163677    -6.266041     4159.098           10 
  342000    1.0043578   -6.2887771    4143.5443            8 
  343000   0.98581372   -6.2653642    4152.0589           13 
  344000    1.0025289   -6.2696192    4139.7233            8 
  345000    1.0086755   -6.2246751    4142.7825           19 
  346000    1.0009312   -6.2948354    4163.8037            9 
  347000      1.01713   -6.2595224     4152.282            4 
  348000   0.99706159   -6.2780532    4153.0997           10 
  349000   0.98747981   -6.2660644     4165.547            9 
  350000    1.0014553   -6.2570689    4152.8624           11 
  351000    1.0240628   -6.2418623    4161.8416           12 
  352000     1.018018   -6.2438641    4144.1215            6 
  353000   0.99555944   -6.2911541    4153.8655            9 
  354000    1.0136383   -6.2596356    4162.5518           12 
  355000   0.98460992   -6.2657741    4153.0795            3 
  356000   0.99526177   -6.2518916    4138.4638           15 
  357000     1.018292   -6.2685995    4148.3277            5 
  358000   0.98188334   -6.2517201    4146.6594            5 
  359000    1.0237504   -6.2411895    4168.5101            7 
  360000    1.0024132   -6.2566238    4162.1691            5 
  361000   0.96867658    -6.292073    4161.1545            9 
  362000   0.98989004   -6.2633025    4152.2591            9 
  363000   0.96119458   -6.2587372    4149.3675            3 
  364000   0.99340259   -6.2949919    4150.3446            8 
  365000    0.9978627   -6.2407711      4171.66            6 
  366000   0.99352281   -6.2493337    4163.1152            4 
  367000    1.0001693   -6.2946096    4148.3752            7 
  368000    1.0196292    -6.230364    4165.4877            4 
  369000   0.98074223   -6.2350562    4146.3595            7 
  370000   0.99006682    -6.257363    4160.2241            6 
  371000   0.99051879    -6.293153     4154.781            8 
  372000   0.99165713   -6.2524227    4139.4341            5 
  373000    1.0151699   -6.2408816    4172.6161            6 
  374000   0.98219308   -6.2672973    4147.6059            4 
  375000   0.98595674   -6.2738658    4135.5714           19 
  376000    1.0192436   -6.2369646    4155.9117            9 
  377000     1.015256   -6.2837764    4145.0834            8 
  378000   0.99176032      -6.2886    4146.4974           17 
  379000   0.98708733   -6.2801949    4161.0313            6 
  380000    1.0060428    -6.273262    4157.0056            7 
  381000    1.0248707   -6.2610128     4140.854           15 
  382000    1.0016322   -6.2957488    4149.1739            9 
  383000    1.0172703   -6.2323094    4139.4622            8 
  384000    1.0058125   -6.2790692    4167.0104           10 
  385000    1.0166014   -6.2869911    4150.1443            7 
  386000   0.97078657   -6.2839331    4150.6814            5 
  387000   0.99920954   -6.2564848    4151.1334            5 
  388000    1.0161061   -6.2999295    4160.8608            2 
  389000    1.0020433   -6.2311375    4155.5129           12 
  390000   0.99813682   -6.2643018    4160.8722            4 
  391000   0.99882845   -6.2695332    4149.6939           10 
  392000    1.0192239    -6.299285    4151.2034            8 
  393000    1.0020527   -6.2649799     4160.839           11 
  394000   0.99328238   -6.2771761    4143.9889            8 
  395000    1.0085753   -6.2478904    4136.0949            8 
  396000    1.0077079   -6.2569123    4158.1156            7 
  397000    1.0051595   -6.2620266    4142.9102            4 
  398000   0.99091792    -6.264636    4146.2428            8 
  399000    1.0075233   -6.2580089    4157.4351            5 
  400000   0.99847238   -6.2639009    4141.0122            8 
  401000    0.9985447   -6.3034915    4152.1926            7 
  402000    1.0122768   -6.2738208    4157.5599            9 
  403000    0.9897715   -6.2503289    4167.0816            5 
  404000   0.97352037   -6.2851095    4158.0761            8 
  405000   0.99281644   -6.2281886    4158.3489            5 
  406000   0.99766474   -6.2642833    4149.6823            7 
  407000    1.0089001   -6.2719546    4150.0875            4 
  408000    1.0065552   -6.2589017    4176.7459           10 
  409000   0.98421235    -6.250086    4147.2202            4 
  410000   0.99428701   -6.2430413    4148.4022            5 
  411000   0.99700151    -6.259455    4159.3639            7 
  412000   0.99243372   -6.2747185     4147.033           10 
  413000   0.99460919   -6.2890866    4158.0469            4 
  414000    1.0006633   -6.2755984    4148.2816            5 
  415000    1.0136156   -6.2666634    4155.5468            5 
  416000     1.002683   -6.2756139    4143.1747           11 
  417000    1.0112244   -6.2687527    4158.4134           11 
  418000   0.99088368   -6.2983293    4140.0899           10 
  419000   0.99244324   -6.2668404    4147.4686            5 
  420000   0.97921219   -6.2644151    4146.9673            7 
  421000   0.96027384   -6.2382792     4140.657           18 
  422000   0.98332442   -6.2817927    4138.1245            4 
  423000    1.0027619   -6.2666697    4146.9571            7 
  424000    1.0209505   -6.2603334    4173.7505            5 
  425000    0.9993582   -6.2786502    4150.1747           12 
  426000   0.99991554   -6.2558051    4158.4005            6 
  427000   0.98265432   -6.2874326    4147.4873            5 
  428000   0.99295301   -6.2860449    4144.9585            5 
  429000   0.98372932   -6.2845397    4157.1959            4 
  430000   0.97906152   -6.2680032    4144.8504            9 
  431000    1.0105215   -6.2791073    4162.7736            7 
  432000   0.97079305    -6.294112    4142.3053            5 
  433000    1.0014428   -6.2542043    4156.3878            2 
  434000    1.0029344   -6.2521541    4153.6776            4 
  435000    1.0014506   -6.2592902    4159.2868            5 
  436000   0.99838905   -6.2089575    4152.8106            5 
  437000   0.99921892   -6.2874591    4133.7605            4 
  438000    1.0201823   -6.2765029    4159.7139            5 
  439000     1.006534   -6.2551065    4167.9402            8 
  440000     1.004322    -6.283208    4148.6601            7 
  441000   0.97354479   -6.2666762    4159.2517            6 
  442000    1.0060291   -6.2882712    4152.2699           11 
  443000   0.98929331   -6.2610227    4153.1301            6 
  444000    1.0122076   -6.2786506    4158.1287            6 
  445000   0.99894941   -6.2531278    4147.2695            9 
  446000    1.0005841   -6.2625004    4173.5617            6 
  447000   0.98131108   -6.2522077    4156.3422            6 
  448000    1.0130422   -6.2511963    4164.0751           19 
  449000    1.0135498    -6.252949    4166.4504            4 
  450000    1.0110498    -6.235348    4159.1163            4 
  451000    1.0065958   -6.2822946    4145.5498           16 
  452000    0.9899264   -6.2670987    4167.7971           10 
  453000    1.0042443   -6.2856457    4144.4454            6 
  454000   0.99911881   -6.3054835    4141.3681           12 
  455000    0.9906161   -6.2826994    4148.2867            5 
  456000    1.0224839   -6.2751882    4147.3697            5 
  457000    1.0021532   -6.2585549    4152.7624            8 
  458000   0.98637852   -6.2892089    4157.6711            9 
  459000    1.0119553   -6.3013146    4153.4529            5 
  460000      1.00261   -6.2918698     4157.301            4 
  461000   0.99935641   -6.2830227     4145.312            5 
  462000   0.99123371    -6.282311    4165.2897            8 
  463000   0.99237591   -6.2656877    4152.5701            8 
  464000    1.0129575   -6.2590715    4151.4498           15 
  465000    1.0105018   -6.2803991    4148.9308            5 
  466000    1.0004871   -6.2437831    4153.8902            6 
  467000    1.0181835   -6.2506231    4159.3876            6 
  468000   0.98734238   -6.2212742    4162.9041            6 
  469000   0.99446446   -6.2879122    4154.4337            6 
  470000    1.0154954   -6.2802324    4153.8003           10 
  471000    1.0052544   -6.2979558    4157.4735           14 
  472000   0.99855336   -6.2671676    4160.3502           11 
  473000    1.0051761   -6.2595927    4164.1838           11 
  474000   0.97568368   -6.2712096    4122.1836            7 
  475000    1.0152846   -6.2779945    4146.6337            4 
  476000   0.99284589   -6.2490482    4154.2355            5 
  477000     1.014132   -6.3044332    4159.1132            5 
  478000    1.0012908   -6.2604227    4138.9634            6 
  479000   0.98643918   -6.2834649    4153.2519            4 
  480000    1.0034157   -6.2687345    4145.4507            6 
  481000   0.99389232   -6.2996698    4142.2568           11 
  482000    1.0157344   -6.2734793    4165.2195            8 
  483000   0.99903571   -6.2456222    4157.2508            7 
  484000   0.99337571   -6.2863679     4145.273            9 
  485000    1.0161473   -6.2825045    4158.6034           13 
  486000     1.001767   -6.2524988    4147.4447            9 
  487000   0.98535053   -6.2804489    4144.0399            7 
  488000    1.0075922   -6.2833061    4147.0477            4 
  489000    1.0092177    -6.240985    4146.7031            4 
  490000   0.98406889   -6.2758371    4144.1541            5 
  491000   0.99273292   -6.2715687    4157.6236            8 
  492000    1.0204177   -6.2794058    4149.1051           13 
  493000    1.0068968   -6.2535607    4132.5085            6 
  494000   0.99058537   -6.2644609    4149.3754            5 
  495000   0.99492531   -6.2625243    4149.6087           12 
  496000    1.0075765   -6.2715344    4147.3117            6 
  497000   0.99375899   -6.2871694    4159.5821            9 
  498000    1.0084352   -6.2691111    4165.9958            5 
  499000   0.97328699   -6.2996082    4149.2173            5 
  500000   0.99144615    -6.275821    4138.6328            7 
  501000    1.0040675   -6.2573922    4153.0722            6 
  502000    1.0038878   -6.2564308    4160.5486            6 
  503000   0.99400705   -6.2479565    4139.6133            6 
  504000   0.98012395   -6.2819715     4133.085            4 
  505000    0.9964322   -6.2487933     4151.256            5 
  506000     1.019756   -6.2640398    4151.2118            5 
  507000   0.99390776   -6.2711713    4148.6844            7 
  508000    1.0042846    -6.253356     4174.489            4 
  509000   0.99985838   -6.3100923    4154.8302            9 
  510000    1.0196435   -6.2690418    4156.3696            4 
  511000     1.009347   -6.2775418    4168.3657            7 
  512000   0.99889752   -6.2574915    4156.5177           15 
  513000    1.0026528    -6.261455     4141.414            9 
  514000    1.0127199   -6.2486282     4164.009            9 
  515000    1.0080118   -6.2698298    4148.2598            4 
  516000    1.0043807   -6.2626884    4155.8058            9 
  517000    1.0103924   -6.3190273    4121.6848            4 
  518000    1.0066265   -6.2533641    4165.3608           22 
  519000   0.99788319    -6.291213    4146.8533            5 
  520000    1.0252866   -6.2905775    4161.4347           16 
  521000    1.0076913   -6.3107502    4131.7694           19 
  522000     1.005248   -6.2799792    4141.8359            6 
  523000      1.00193   -6.2613239    4163.2364            6 
  524000    1.0143199   -6.2718622    4149.2564            5 
  525000     1.000901   -6.2620754    4158.1018            7 
  526000    0.9889266   -6.2664785    4159.8286           11 
  527000   0.99999924   -6.2353007    4163.4641            7 
  528000    1.0130531   -6.2723325    4152.7664            5 
  529000   0.99753752   -6.2824332    4156.2798            5 
  530000    1.0055167   -6.2851053    4137.6079            6 
  531000   0.98315881   -6.2458941    4167.1873           16 
  532000    1.0060629   -6.2594975    4165.8224            6 
  533000    1.0011332    -6.273759    4151.0453            5 
  534000    1.0141533    -6.301396    4148.9875            7 
  535000    1.0115226   -6.2949075     4145.873            5 
  536000   0.99587192   -6.2388684    4160.8779            5 
  537000    1.0118984   -6.2942991    4136.7545            5 
  538000   0.99592883   -6.2436588    4154.6439            5 
  539000   0.99807123   -6.2641232    4146.1033            6 
  540000    1.0238288   -6.2672165    4162.9364           12 
  541000   0.98533566   -6.2902885    4163.5678            8 
  542000    1.0209293   -6.2717145    4168.6875            5 
  543000   0.99984397   -6.2332923    4156.7282            7 
  544000     1.002303   -6.2713561    4150.1137            3 
  545000    1.0007784   -6.2440699    4163.9588            6 
  546000    1.0164293   -6.2904258    4142.5982            7 
  547000   0.99389119   -6.2447653    4163.4059           10 
  548000    1.0428027    -6.225913     4168.362            3 
  549000    1.0191381   -6.2456156    4142.9478            6 
  550000    1.0091636   -6.2403646    4164.5242            8 
  551000   0.99076375   -6.2302085    4148.5894            6 
  552000    1.0046637   -6.2605139    4152.9161            8 
  553000    1.0180843   -6.2800704    4168.9571            8 
  554000   0.98903001   -6.2907841    4156.2694            4 
  555000   0.98304356   -6.2405927     4153.243            5 
  556000    1.0113861   -6.2622029    4146.5385            6 
  557000    1.0037988   -6.2705927    4166.4434            3 
  558000    1.0086723   -6.2793075    4158.6688            6 
  559000   0.99137183   -6.3083803    4145.2272           28 
  560000     1.022743   -6.2588016    4146.1567            8 
  561000    1.0080319   -6.2577448    4160.0061            9 
  562000   0.98913055   -6.2631743    4157.9687           13 
  563000   0.98044751   -6.2813257    4164.1189            5 
  564000    1.0072675   -6.2700215     4159.702            4 
  565000   0.99494804   -6.2667077    4148.9026           13 
  566000   0.99115307   -6.2694711    4145.3147            6 
  567000    0.9995241   -6.2993054    4131.6591            7 
  568000    1.0152006    -6.310336    4144.3784            6 
  569000    1.0150003   -6.2658502    4181.3801            6 
  570000    1.0107444   -6.2541383    4156.6084            4 
  571000   0.97636494   -6.2853076    4149.7365            3 
  572000    1.0079631   -6.2583638    4157.2764            6 
  573000   0.99706891   -6.3021912    4159.9973           12 
  574000    0.9970809   -6.2847186    4156.5495           11 
  575000    1.0091391   -6.2401229    4156.2389            7 
  576000   0.99055654   -6.2838752       4152.7            5 
  577000    1.0066869   -6.3168726     4152.594           14 
  578000    1.0073732    -6.266667    4159.9104           14 
  579000   0.98797883   -6.2808484    4139.3425            6 
  580000    1.0238619   -6.2678372    4159.9124            5 
  581000     1.012804   -6.2774883    4157.0391            3 
  582000    1.0046888   -6.2504935    4138.6664            7 
  583000   0.96196175    -6.279997    4136.1461            3 
  584000   0.99354527   -6.2747395    4143.5967            9 
  585000    1.0142793   -6.2579542    4165.0108            5 
  586000   0.99198874   -6.2589051    4143.8645            6 
  587000    1.0037836   -6.2787933    4140.2336            7 
  588000   0.99092147   -6.2822126    4158.5541           10 
  589000   0.97696478   -6.3088446    4163.6048           15 
  590000   0.97853735   -6.2803344    4144.6613            4 
  591000   0.99959107   -6.2920296    4148.2331            5 
  592000    1.0095702   -6.2819664    4155.3282           11 
  593000   0.97869796   -6.3015097    4157.0808            7 
  594000    1.0175947   -6.2756749    4141.8282            6 
  595000     1.010732   -6.3129866    4156.9726            8 
  596000   0.99985201   -6.2884808    4152.0417            7 
  597000    1.0020578   -6.2507875    4147.3619            5 
  598000    1.0018199   -6.2441912    4141.4863            7 
  599000   0.99822887   -6.2657506    4161.3456            3 
  600000   0.96739337   -6.2592062    4160.1169            8 
  601000    1.0081584   -6.2632045     4157.678            8 
  602000    1.0043948   -6.3260543    4124.7751           11 
  603000    1.0215382   -6.3053876    4148.3926            4 
  604000   0.98731063   -6.2656833    4149.4524            7 
  605000     1.006393   -6.2490768    4157.6356            7 
  606000    1.0220792   -6.2813999     4172.509            7 
  607000   0.99097484   -6.2917166    4145.3711            6 
  608000   0.98696827   -6.2537956    4145.9877            7 
  609000    1.0215585    -6.312591     4145.761            5 
  610000   0.99552886   -6.2708062    4151.3014            7 
  611000    1.0248565   -6.2762765    4156.7283            8 
  612000   0.99642329   -6.2711528    4146.6624            4 
  613000     1.000148   -6.2740411    4144.3378           10 
  614000    1.0094057   -6.2651579    4143.0429            6 
  615000   0.99663016   -6.2673905    4157.7404           14 
  616000   0.99652358   -6.2668039    4148.7422            5 
  617000   0.98347868   -6.2748296    4167.6252            6 
  618000    0.9945213   -6.2602681    4163.5907           16 
  619000   0.99485926   -6.2723343     4160.278            5 
  620000    1.0094985   -6.2634941    4141.4696            9 
  621000    1.0281796   -6.2574463    4128.0104            6 
  622000   0.99729531   -6.2976807    4162.1034            5 
  623000   0.98416251   -6.2945966    4141.7679            7 
  624000   0.99570718    -6.305177      4144.37            7 
  625000    1.0029656   -6.2777479    4146.5308            8 
  626000    1.0042894    -6.244799    4161.0832            6 
  627000   0.99699831   -6.2755597    4160.5636            5 
  628000   0.98061186   -6.2841621    4152.5927            5 
  629000    1.0006086    -6.279898    4140.7429           14 
  630000    1.0173083   -6.2792191    4140.0927            3 
  631000   0.98722507   -6.2868041    4155.0998            5 
  632000    1.0049842   -6.2753227     4149.267            3 
  633000    1.0291784   -6.2800794    4148.4942            5 
  634000   0.99452504   -6.2479649    4156.7384            6 
  635000   0.99928981   -6.2669653    4143.6651            5 
  636000   0.96814886    -6.269274    4141.1493            6 
  637000     1.022074   -6.2675941    4156.4485            8 
  638000    1.0166134    -6.295118    4164.1582            9 
  639000    1.0010179   -6.2654808    4172.1345            8 
  640000    1.0034285   -6.2507481    4161.9285            6 
  641000    1.0086339   -6.2850837    4143.3668            6 
  642000    1.0198288   -6.2536722     4141.354            8 
  643000    1.0325047   -6.2647442    4174.6658            4 
  644000    1.0006348    -6.261407    4147.1816            5 
  645000   0.99476615   -6.2650436    4170.3224            4 
  646000   0.97084792   -6.2702477    4153.9051           11 
  647000    1.0057693   -6.2781333    4166.2888            7 
  648000   0.97104017   -6.2744724    4161.4027            9 
  649000    1.0045684   -6.3086502    4136.5257            6 
  650000   0.99192964   -6.2782043    4154.3268            7 
  651000   0.99295649   -6.2888567    4140.9235            3 
  652000   0.99511528   -6.2847175    4106.4776            6 
  653000    1.0161309   -6.3010205    4151.1262           14 
  654000    1.0076758   -6.2711942    4160.4461            6 
  655000   0.99255243   -6.2688804    4132.1466            9 
  656000    1.0104788   -6.2283064    4158.3832            9 
  657000    1.0036272   -6.2694308     4146.998            8 
  658000   0.98371903   -6.2597735    4159.2883            6 
  659000   0.99318245    -6.273052    4163.7772            8 
  660000    1.0070161   -6.2768016    4149.3963            6 
  661000    1.0009503   -6.2720326    4133.9989            7 
  662000    1.0034593   -6.2575007    4150.1245            6 
  663000    1.0075502   -6.2937847    4142.8129           15 
  664000    1.0103973   -6.2870651    4142.7354            7 
  665000    1.0007757   -6.2398263    4165.8619            8 
  666000     1.002093   -6.2532254    4144.9636            5 
  667000    1.0060696    -6.291219    4136.9045           11 
  668000   0.98356509    -6.298189    4151.4215            6 
  669000    1.0155624   -6.2894588    4145.0319            9 
  670000   0.99661104   -6.2649423    4147.7836            7 
  671000   0.99131394    -6.283776    4158.5211           11 
  672000    1.0022733   -6.2933121    4136.5267            7 
  673000    1.0124057   -6.2680442    4146.1148            4 
  674000   0.98921355   -6.2445626    4164.9004           10 
  675000    1.0067949   -6.2741978    4157.6256            3 
  676000   0.99973241   -6.2363093    4157.5652            5 
  677000   0.99760852   -6.2620116    4148.5306            8 
  678000    1.0152873   -6.2511928    4152.6393            6 
  679000   0.98761294   -6.2923949    4151.4869           14 
  680000   0.96901111    -6.240772     4154.314            5 
  681000   0.99442379   -6.2783263    4154.9524            4 
  682000   0.99068562    -6.318499    4139.2062            4 
  683000   0.99440688   -6.2642136    4162.1635            3 
  684000   0.99112844   -6.2820813    4140.5457            3 
  685000    1.0298928   -6.2967843    4169.4764            4 
  686000    1.0160355     -6.26073    4141.7685            7 
  687000   0.98954024     -6.25264    4170.4585            6 
  688000    1.0071718   -6.2297215    4175.4874            5 
  689000   0.99984079   -6.2642716    4145.8745           17 
  690000   0.98538218    -6.266349    4158.0444           12 
  691000   0.98482477   -6.2903947    4148.0899           16 
  692000    1.0171535   -6.2556561    4144.9156            6 
  693000    1.0122138   -6.2940808    4149.5355            3 
  694000    1.0247236   -6.2782194    4164.5327           10 
  695000    1.0086899   -6.2702624    4147.3965            6 
  696000     1.007299   -6.2466656    4147.3461            7 
  697000    1.0124046   -6.2722596    4147.5863            3 
  698000   0.97801371   -6.2945688    4152.0556            5 
  699000    1.0053649   -6.2957281     4139.824            7 
  700000   0.99343205   -6.2607307    4149.3937            5 
  701000    0.9961576   -6.2918983    4144.2325            7 
  702000   0.98738367   -6.2588626    4137.2413            4 
  703000    0.9849395   -6.2643429    4181.9615            3 
  704000    0.9909836   -6.2220291    4157.9431            5 
  705000   0.99343889    -6.300722    4149.8784           12 
  706000   0.97459818   -6.2854333    4146.9194            6 
  707000   0.99447782   -6.2930124    4147.3917           10 
  708000    1.0134194   -6.2916307    4152.8189           10 
  709000   0.98040417   -6.2776168    4156.2171            6 
  710000    1.0139698   -6.2579613    4143.4166           10 
  711000    0.9846737   -6.2710655    4162.6624            5 
  712000    0.9988986   -6.2769892    4139.9218           11 
  713000   0.99883029   -6.2808178    4151.8538            8 
  714000    1.0360145   -6.2721096    4154.7359            9 
  715000    1.0157302   -6.2861829    4145.4637            5 
  716000    1.0061906    -6.254894    4146.7424            4 
  717000      1.01003   -6.2499028    4157.1501            9 
  718000   0.98971699   -6.2783918    4163.2825            5 
  719000   0.99114883   -6.2871962    4150.0426            9 
  720000   0.99253179   -6.2935088    4157.7666            7 
  721000    1.0022112   -6.2627284    4167.0855            7 
  722000    1.0014978   -6.2454356    4165.2018            2 
  723000   0.97418576   -6.2698641    4172.8044            9 
  724000   0.97472339    -6.289477    4138.8827            7 
  725000    1.0289157   -6.2629048    4156.2741           13 
  726000   0.99336464   -6.2540787    4145.0085            4 
  727000   0.99260676    -6.276012    4169.9958            2 
  728000   0.98845717   -6.2690126     4154.324            9 
  729000   0.98808523   -6.2531503    4156.5292            9 
  730000   0.99703137   -6.3119351    4161.9393            8 
  731000    1.0001266   -6.2415747    4169.3859            6 
  732000   0.98273518   -6.2707774    4161.0595           15 
  733000     1.000548   -6.2727907     4152.077           11 
  734000    1.0024212   -6.2775618    4151.5696            6 
  735000   0.97056291   -6.2709565    4145.2873           13 
  736000   0.99692141    -6.271207    4149.6572            6 
  737000    1.0098989   -6.2457623     4149.452           13 
  738000   0.99942316   -6.3007518     4161.314            4 
  739000   0.99800621   -6.2551123    4145.7001            4 
  740000   0.98028231   -6.2903394    4144.3346            5 
  741000    1.0168116   -6.2742308    4141.4186           14 
  742000   0.99381261   -6.2685505    4149.6724            4 
  743000    1.0130049   -6.2757683    4151.9307            5 
  744000   0.98436809   -6.3198042    4133.0572            7 
  745000    1.0028848   -6.2479877    4159.4068           11 
  746000    1.0289874   -6.2739566    4155.5654            5 
  747000   0.97237578   -6.3165906    4153.7076            5 
  748000   0.98250555   -6.2430915    4151.6434            6 
  749000   0.99075606   -6.2814912      4147.63            4 
  750000     1.002301   -6.2484961    4145.8325            5 
  751000    1.0148225   -6.2665534    4158.6624            8 
  752000   0.98066416   -6.2600775    4140.3143            6 
  753000   0.98360736   -6.2555429    4151.4582            7 
  754000    1.0016676   -6.2484819    4155.2574            4 
  755000    1.0019754   -6.2663173    4145.9459            7 
  756000    1.0000198   -6.2596588    4163.9816            6 
  757000   0.98228121   -6.2422473    4170.8652            6 
  758000   0.97370816   -6.2698829    4147.6723            9 
  759000    1.0121455   -6.2555023    4140.5467            7 
  760000   0.98247178   -6.2670607    4158.6284            7 
  761000   0.98696992   -6.2547043    4155.5908            4 
  762000   0.99843162   -6.2738394    4152.8375            6 
  763000     1.026544    -6.250635    4158.8043           10 
  764000    1.0138674    -6.263492     4158.623            5 
  765000   0.98619166   -6.2477578    4143.8852           11 
  766000    1.0105755   -6.2678334    4157.6441            8 
  767000    1.0047492   -6.2718931    4155.6703            7 
  768000    1.0017208   -6.2800563    4135.0718            8 
  769000   0.99095414   -6.2615328    4152.8526            5 
  770000   0.99814256   -6.2798032    4157.2924           15 
  771000   0.98597293   -6.2439261    4157.8955            8 
  772000    1.0234498   -6.3180061    4139.0417            8 
  773000    1.0138869   -6.2913074    4152.6018            6 
  774000   0.99518432   -6.2518487    4153.0151            9 
  775000    1.0095359   -6.2588197    4161.6518            6 
  776000   0.99599347   -6.2514442     4147.381            4 
  777000    1.0018428   -6.2556986    4133.5072            8 
  778000    1.0068081    -6.281706    4169.8927            6 
  779000    1.0088943   -6.2873028    4157.1753            5 
  780000    1.0174201   -6.2362266    4160.5421            4 
  781000    1.0052724   -6.2653785    4142.5762            6 
  782000    1.0030837   -6.2527921    4137.2528            9 
  783000   0.98879533    -6.295523    4151.6111            7 
  784000   0.97633723   -6.2861349    4140.1513            5 
  785000   0.99681567   -6.2495486    4153.5666            5 
  786000   0.98462388   -6.3061304     4150.233            7 
  787000    1.0158174   -6.3041609    4149.4991           11 
  788000   0.99892933   -6.3103666    4156.9199            5 
  789000   0.98589525   -6.2844617    4160.9255            7 
  790000   0.99094637   -6.3076905    4150.2591            8 
  791000   0.98285268   -6.2359127    4148.2887           12 
  792000   0.99287904   -6.2744806    4169.7057            4 
  793000    1.0176057   -6.2712612      4148.89            7 
  794000   0.99133869   -6.2928994    4147.0773            5 
  795000    1.0067417   -6.2491126    4158.4313            5 
  796000    1.0299037   -6.2812126    4146.1092            2 
  797000    1.0054168   -6.2630458    4171.8156            4 
  798000    1.0169378   -6.2782887     4156.897            8 
  799000   0.99532443    -6.284678    4146.9341            9 
  800000   0.98746337   -6.2709185    4155.4479            7 
  801000    1.0243114   -6.2782466    4150.8276            6 
  802000     1.001814   -6.2606936    4155.9964            5 
  803000   0.99461455   -6.3071275    4155.5886            9 
  804000   0.99467312   -6.2706395    4165.1708            5 
  805000    0.9684668   -6.2703355    4174.2235            6 
  806000    1.0134821    -6.257969    4153.8111           15 
  807000     1.032344    -6.295314    4157.4609            4 
  808000   0.97887929   -6.2509139    4147.9026            6 
  809000     1.013644   -6.2762044    4144.0754            5 
  810000   0.98983841   -6.2839659    4133.2873            8 
  811000   0.98478548   -6.2836245    4157.1417            6 
  812000   0.97837684    -6.301433    4137.7329            4 
  813000   0.99779676   -6.2900301    4160.3142           18 
  814000    1.0020694   -6.2742074    4149.0964            3 
  815000   0.99486833   -6.2800141    4141.3928           13 
  816000   0.99993482     -6.28206    4139.7709            3 
  817000    1.0037396   -6.2606789    4146.5577            6 
  818000   0.96941917   -6.2303226    4163.4753            6 
  819000    1.0003313   -6.2807931    4159.7448           10 
  820000   0.98899429   -6.2760759    4156.6065            3 
  821000   0.98503648   -6.2514181    4165.5849            7 
  822000   0.97542383    -6.252065    4164.2685           10 
  823000    1.0045962   -6.2389208    4145.1206            7 
  824000   0.99737013   -6.2924897     4146.114           11 
  825000   0.99919901   -6.2733615    4141.3279           11 
  826000   0.99225727   -6.2855802    4147.9572           11 
  827000   0.99644204   -6.2659217    4139.1501           10 
  828000   0.98516648   -6.2648041    4162.8293            6 
  829000   0.98910651   -6.2871707     4160.338            7 
  830000    1.0079199   -6.2585589    4147.1992            3 
  831000   0.99200071   -6.2946708    4165.6557            8 
  832000    1.0073046   -6.2832893    4156.4159           19 
  833000    0.9883172   -6.2866884    4131.3182            7 
  834000   0.99673107   -6.2686884    4162.4482            9 
  835000   0.98185693   -6.2953587    4162.6929            5 
  836000    1.0145872   -6.2634912    4159.2143            9 
  837000    1.0171702   -6.2474658    4151.0656            6 
  838000   0.99928893   -6.2978031    4148.0135            5 
  839000    1.0175235   -6.2882467    4135.9693           18 
  840000    1.0043549   -6.2947746    4167.8943           10 
  841000    1.0021137   -6.2730568    4146.8159            5 
  842000    1.0005313   -6.2700143    4177.2493            4 
  843000    1.0065026   -6.2812383    4161.7374            6 
  844000   0.99495055   -6.2789036    4151.0875            6 
  845000   0.99680715   -6.2315228    4159.7176           10 
  846000   0.99468329   -6.2850584    4153.4677            6 
  847000    1.0073611   -6.2955644    4140.9526            5 
  848000    1.0124553   -6.2628554    4148.8648            6 
  849000   0.98396486    -6.283452      4147.72           14 
  850000   0.99512359   -6.2300592     4155.126            7 
  851000    1.0024746   -6.2605704    4150.1361            5 
  852000    1.0093878   -6.2897381    4150.4501           10 
  853000    1.0215403   -6.2775308    4149.3698            4 
  854000   0.99374882   -6.2409088    4158.6739            9 
  855000   0.99830158   -6.2721059    4147.0716            9 
  856000   0.98978708   -6.2488269     4152.947            5 
  857000    1.0317006   -6.2848018    4162.6873            7 
  858000    1.0047035   -6.2559093    4165.3694            4 
  859000   0.98378279   -6.2914656    4142.2943            6 
  860000    1.0013079   -6.2914426    4147.2941            5 
  861000     1.019268   -6.2619022    4148.2898            4 
  862000    1.0110651   -6.2467023     4159.345            8 
  863000   0.97952923   -6.2152834    4142.6828           10 
  864000   0.99935476   -6.2776663    4140.5301            4 
  865000    0.9948632   -6.2821788    4142.7784           17 
  866000    1.0009618   -6.2748259    4157.4545            8 
  867000    1.0099169   -6.2724015    4158.9267            4 
  868000     1.002243   -6.2621001     4152.513            5 
  869000    1.0080922   -6.2872818    4145.5062            4 
  870000   0.99386785   -6.2713309    4164.1647            8 
  871000    1.0039877   -6.2805226    4179.1292            6 
  872000   0.99593324   -6.2707864    4148.9117            4 
  873000    1.0319872   -6.2610549    4150.0976           10 
  874000    1.0150275   -6.2641771    4160.6824            9 
  875000     0.998289   -6.2889752    4154.6724            4 
  876000   0.99343234   -6.2650631    4161.2628            7 
  877000   0.98169749   -6.2391353    4175.6249            5 
  878000    1.0079873   -6.2599883    4156.5544            7 
  879000    1.0059112   -6.2774292    4147.7355            7 
  880000    1.0219627    -6.300326    4131.2018            4 
  881000   0.98791769   -6.2997229    4152.0521            8 
  882000    1.0026955   -6.2766073    4157.0055            7 
  883000   0.98890488   -6.2929956    4149.6239            3 
  884000   0.98532933   -6.2779246    4142.5404            7 
  885000    1.0082621   -6.2879812    4153.0622            5 
  886000    1.0071621   -6.2761733    4155.5311            4 
  887000   0.99954362   -6.2745717    4142.2102           10 
  888000    1.0228142    -6.300761    4146.4309            6 
  889000    1.0030658   -6.3012174    4153.4365            8 
  890000    1.0108362   -6.2641486    4145.9597            5 
  891000   0.99979266   -6.2906699    4133.4673            7 
  892000    1.0014796   -6.2876395    4149.1584           10 
  893000    1.0067629   -6.2673314    4160.4152            6 
  894000    1.0324357   -6.2516911    4155.9724            2 
  895000   0.99316164   -6.2805064    4140.4533            5 
  896000   0.99840541   -6.2622801    4146.1318            6 
  897000   0.98631498   -6.2835535    4152.3084            4 
  898000   0.97314931   -6.2706828    4136.4907            9 
  899000     1.014807   -6.2622996    4149.3276            6 
  900000   0.99175169   -6.2737725    4161.8278            5 
  901000    1.0050712   -6.2730492    4147.6692           11 
  902000    1.0093234   -6.2981233    4150.3443            6 
  903000   0.99973143   -6.2982419    4144.2134            6 
  904000    0.9981739   -6.2837612    4167.1959            3 
  905000   0.99599991   -6.2557181    4150.0932            6 
  906000   0.98428234   -6.2811602    4143.3162            4 
  907000   0.99666789   -6.2907741    4140.1795            5 
  908000    0.9836024   -6.2753743     4145.125            4 
  909000    1.0022071   -6.2844543    4151.4054            4 
  910000   0.96240098   -6.2845271    4144.2586            7 
  911000   0.98682785   -6.2832158    4145.4738            4 
  912000   0.99884761   -6.2710439    4168.3735            2 
  913000   0.98932523   -6.2835456     4141.383            5 
  914000   0.96957778   -6.2632704    4143.0538            8 
  915000   0.99912814   -6.2746838    4159.3279           14 
  916000   0.97725051   -6.3041571    4144.2008           11 
  917000    1.0047592   -6.2756987    4157.1762            8 
  918000    1.0027876   -6.2607715    4152.9192            8 
  919000   0.99398125   -6.2775645    4148.0881            5 
  920000    1.0016251   -6.2839002    4161.5334           11 
  921000    1.0050409   -6.2458045    4170.7624            5 
  922000   0.97118206   -6.2418182     4151.106            4 
  923000   0.99744013   -6.2559005    4151.5267            9 
  924000   0.99735181   -6.2598968    4148.4904            7 
  925000     1.012756   -6.2832002    4153.7302           13 
  926000   0.99090013   -6.2415207    4139.7207            8 
  927000   0.97205216    -6.252001    4158.0333            9 
  928000     1.001913   -6.2660789    4142.5035            8 
  929000   0.97128879    -6.286199    4150.2716            5 
  930000    1.0217591   -6.2549856    4155.7973            5 
  931000    1.0071664   -6.2702142     4152.839           10 
  932000   0.99283149   -6.2603189    4146.0254            2 
  933000   0.98330066   -6.2437725    4153.4654           13 
  934000    1.0029129   -6.2968033    4153.8928            4 
  935000   0.98623941   -6.2795885    4165.0777            5 
  936000    1.0047686   -6.2705926    4146.5947            4 
  937000   0.98067614   -6.2684701    4148.7086            2 
  938000    1.0027179   -6.2879592    4146.1375            5 
  939000    1.0099495    -6.263726    4156.6558           15 
  940000    1.0192058   -6.2841288    4138.5979           16 
  941000   0.99370409   -6.2661149    4147.8117            7 
  942000    1.0098018   -6.2521382    4156.9563            3 
  943000    1.0028454   -6.3001856    4166.0759            6 
  944000   0.98336384   -6.2658254    4139.1055           13 
  945000   0.96655791   -6.2735665    4170.9779            7 
  946000    1.0197346   -6.2858598    4151.5029           10 
  947000   0.99523268   -6.2497825     4160.413            8 
  948000   0.99990939   -6.2880817    4153.3824            9 
  949000   0.98691241   -6.2852554    4150.8772           13 
  950000   0.99740482    -6.252285    4157.7983            8 
  951000    1.0007348    -6.282926    4145.3387            3 
  952000   0.99797316    -6.265106    4149.4097            7 
  953000   0.99287661   -6.2709684    4164.2154            9 
  954000    1.0051205   -6.2540495    4154.0661            5 
  955000   0.99208504   -6.2701048    4157.3312           12 
  956000   0.99700832   -6.2946747    4144.6179            6 
  957000    1.0118136   -6.2733786    4142.3803           12 
  958000    1.0225814   -6.2467136    4148.9838            3 
  959000   0.99489041   -6.2218698    4144.9896            7 
  960000    1.0295974   -6.2697979    4154.5236            6 
  961000    1.0020381   -6.2574042    4149.8264            7 
  962000    1.0076927   -6.2798333    4161.1926            7 
  963000   0.98818954   -6.2639368    4157.8059            9 
  964000    1.0000522   -6.2805481    4145.0181            5 
  965000    1.0062332   -6.2427419    4151.6383            3 
  966000    1.0299515   -6.2706472    4160.0767            8 
  967000   0.99120774   -6.2706971    4147.0353           12 
  968000    1.0028777   -6.2641645    4143.5292            5 
  969000    1.0041793   -6.2528821    4150.5752            6 
  970000    1.0070153    -6.296565    4148.5419            4 
  971000    1.0048034    -6.271927    4143.7035            3 
  972000   0.97696682   -6.2675009    4153.8635            3 
  973000   0.98407117    -6.264377    4159.4789            6 
  974000   0.97417105   -6.2848232    4165.3575           17 
  975000    1.0221797   -6.2753823    4140.9819            5 
  976000    1.0092363   -6.2605789    4161.8285            5 
  977000   0.99743623   -6.2612776    4147.2671            4 
  978000   0.99874116   -6.3027393    4154.3344            7 
  979000    1.0058069   -6.2427164    4162.8335            7 
  980000    1.0245802   -6.2691396    4157.6357            6 
  981000    1.0001756   -6.2660495     4147.136            5 
  982000   0.97451009   -6.2753896    4140.1338           20 
  983000   0.98580148    -6.281426     4151.752            8 
  984000   0.98653759   -6.2838104    4143.4309           15 
  985000   0.99924732   -6.2785625    4151.3497           13 
  986000   0.98365844   -6.2666536    4150.4329            5 
  987000   0.98786128   -6.2688473    4154.5861            6 
  988000   0.98689049   -6.2847128    4158.3955            6 
  989000    1.0127587   -6.2524365    4157.0084            7 
  990000   0.98337731   -6.2860364    4160.2045            6 
  991000   0.99996482   -6.2865005    4142.0789            4 
  992000      1.01316   -6.2384032    4142.5182            6 
  993000    1.0003899   -6.2769358    4161.6711            7 
  994000    1.0151935   -6.2459422    4143.8009            5 
  995000   0.99811402   -6.2673445    4153.4172            5 
  996000     1.001457   -6.2982973    4154.3931            9 
  997000    1.0002911   -6.2762043    4169.0191            4 
  998000   0.99808261   -6.2797763    4148.3934            5 
  999000     1.017958    -6.268045    4163.4182            7 
 1000000    1.0086536   -6.2792904     4142.679            5 
 1001000     1.025668   -6.2601584    4156.1681            5 
 1002000    1.0062117   -6.2602683    4149.8238            2 
 1003000    1.0079508   -6.2736377    4157.4472            4 
 1004000   0.99041067   -6.3120495    4154.9312            8 
Loop time of 2072.87 on 48 procs for 1000000 steps with 4000 atoms

Performance: 83362.839 tau/day, 482.424 timesteps/s
99.4% CPU use with 48 MPI tasks x no OpenMP threads

MPI task timing breakdown:
Section |  min time  |  avg time  |  max time  |%varavg| %total
---------------------------------------------------------------
Pair    | 122.92     | 133.06     | 144.48     |  49.2 |  6.42
Neigh   | 14.703     | 14.912     | 15.374     |   3.7 |  0.72
Comm    | 112.24     | 121.63     | 128.65     |  42.7 |  5.87
Output  | 1.1943     | 1.1956     | 1.2122     |   0.2 |  0.06
Modify  | 1772.2     | 1782.1     | 1791.3     |  10.8 | 85.97
Other   |            | 19.96      |            |       |  0.96

Nlocal:        83.3333 ave          90 max          78 min
Histogram: 3 4 9 3 5 15 4 1 1 3
Nghost:        1603.75 ave        1620 max        1591 min
Histogram: 3 6 6 9 8 2 6 3 2 3
Neighs:        9180.06 ave        9933 max        8442 min
Histogram: 2 6 1 7 5 11 8 4 2 2
FullNghs:      18374.7 ave       20058 max       16936 min
Histogram: 3 2 7 7 10 6 5 4 2 2

Total # of neighbors = 881985
Ave neighs/atom = 220.49625
Neighbor list builds = 59722
Dangerous builds = 0

#clear
#
#next RN
#
#jump SELF
Total wall time: 0:34:34
