
units lj                  # Use reduced LJ style units
atom_style atomic         # Uncharged point particles
atom_modify map hash      # Needed for indexing of clusters etc
                          # Used to be able to find where atoms are in relation to each other.

# Define a lattice with which to populate the simulation cell. With units
# set to 'lj' the second argument to the lattice command is the reduced
# density rho* and the spacings are multiples of that required to acheive
# that density. Also define a simulation cell called 'box' in lattice units
# and fill it with atoms. Here we're creating a box which is ten lattice
# constants in each direction.
lattice fcc 1.0 spacing 1 1 1                 # All equal sizes - gives the right reduced density.
Lattice spacing in x,y,z = 1.5874011 1.5874011 1.5874011

region box block 0 10 0 10 0 10 units lattice # Defines a region, "box", in lattice units
create_box 1 box                              # Creates a simulation box as specified above,
Created orthogonal box = (0.0000000 0.0000000 0.0000000) to (15.874011 15.874011 15.874011)
  3 by 4 by 4 MPI processor grid
                                              # with one type of atom
create_atoms 1 box                            # Creates particles on lattice points
Created 4000 atoms
  using lattice units in orthogonal box = (0.0000000 0.0000000 0.0000000) to (15.874011 15.874011 15.874011)
  create_atoms CPU = 0.002 seconds


# Set the mass of the first (and only) atom type.
mass 1 1.0

# Lennard-Jones interactions between particles, 3.5 sigma cut-off. Apply
# long range tail corrections to energy and pressure and set all coefficients
# to unity since we work in reduced units here. Note that this doesn't shift
# the potential such that it goes to zero at the cutoff. That would require
# pair_modify('shift', 'yes').
pair_style lj/cut  3.5      # non-GPU version
pair_modify tail  yes
pair_coeff 1  1  1.0  1.0   # Intearaction between 1 and 1 set with epsilon = 1 and sigma = 1

write_data data.*
System init for write_data ...
Neighbor list info ...
  update every 1 steps, delay 10 steps, check yes
  max neighbors/atom: 2000, page size: 100000
  master list distance cutoff = 3.8
  ghost atom cutoff = 3.8
  binsize = 1.9, bins = 9 9 9
  1 neighbor lists, perpetual/occasional/extra = 1 0 0
  (1) pair lj/cut, perpetual
      attributes: half, newton on
      pair build: half/bin/atomonly/newton
      stencil: half/bin/3d
      bin: standard

#############################
#   M E L T   S Y S T E M   #
#############################

velocity all create 2.4 8172548 mom yes dist gaussian # Assign velocities
                                                    # Temperature 2.4, random number seed, zero linear momentum
						                                                        # Gaussian distribution

timestep 0.002   # simulation timestep
thermo 1000       # output thermodynamic data every 1000 steps

# Define a fix  in this case with index 1 applied to all
# particles in the simulation. This fix is for simulations
# in the anisotropic NPT ensemble. Note that we use the MTK
# correction.
fix 1 all npt temp 2.4 2.4 0.1 iso 5.68 5.68 0.5 mtk yes tchain 5 pchain 5 # Use NPT ensemble
                                                                         # Set temperature and pressure and damping
                                                                         # Numbers of thermostats in chain and in barostat
run 1000         # run for 10000 steps
Per MPI rank memory allocation (min/avg/max) = 3.642 | 3.644 | 3.648 Mbytes
Step Temp E_pair E_mol TotEng Press Volume 
       0          2.4   -8.3859253            0   -4.7868253   -2.2405722         4000 
    1000    2.3771194   -4.4871205            0  -0.92233289    5.5875552    5161.7788 
Loop time of 0.227006 on 48 procs for 1000 steps with 4000 atoms

Performance: 761214.537 tau/day, 4405.177 timesteps/s
99.2% CPU use with 48 MPI tasks x no OpenMP threads

MPI task timing breakdown:
Section |  min time  |  avg time  |  max time  |%varavg| %total
---------------------------------------------------------------
Pair    | 0.094279   | 0.10086    | 0.11333    |   1.2 | 44.43
Neigh   | 0.017962   | 0.0189     | 0.020819   |   0.4 |  8.33
Comm    | 0.066393   | 0.079403   | 0.09021    |   1.8 | 34.98
Output  | 2.5023e-05 | 2.9077e-05 | 3.6631e-05 |   0.0 |  0.01
Modify  | 0.018677   | 0.026251   | 0.033554   |   3.0 | 11.56
Other   |            | 0.001559   |            |       |  0.69

Nlocal:        83.3333 ave          94 max          74 min
Histogram: 1 5 2 8 9 8 6 7 1 1
Nghost:        1391.79 ave        1422 max        1368 min
Histogram: 5 4 4 8 8 8 4 3 2 2
Neighs:        7382.04 ave        8524 max        6261 min
Histogram: 1 1 7 9 7 8 6 6 2 1

Total # of neighbors = 354338
Ave neighs/atom = 88.584500
Neighbor list builds = 87
Dangerous builds = 20

# Equilibrate just above the melting temperature to avoid step fn in T

fix 1 all npt temp 1.25 1.25 0.1 iso 5.68 5.68 0.5 mtk yes tchain 5 pchain 5
run 1000
Per MPI rank memory allocation (min/avg/max) = 3.642 | 3.644 | 3.648 Mbytes
Step Temp E_pair E_mol TotEng Press Volume 
    1000    2.3771194   -4.4871205            0  -0.92233289    5.5875552    5161.7788 
    2000    1.2335674   -5.8576808            0   -4.0077922     5.754077    4330.1845 
Loop time of 0.215319 on 48 procs for 1000 steps with 4000 atoms

Performance: 802531.500 tau/day, 4644.280 timesteps/s
99.6% CPU use with 48 MPI tasks x no OpenMP threads

MPI task timing breakdown:
Section |  min time  |  avg time  |  max time  |%varavg| %total
---------------------------------------------------------------
Pair    | 0.095282   | 0.099939   | 0.10804    |   0.9 | 46.41
Neigh   | 0.015561   | 0.016121   | 0.018439   |   0.3 |  7.49
Comm    | 0.063547   | 0.074456   | 0.082177   |   1.4 | 34.58
Output  | 2.3535e-05 | 2.4504e-05 | 3.234e-05  |   0.0 |  0.01
Modify  | 0.018516   | 0.022814   | 0.026603   |   1.5 | 10.60
Other   |            | 0.001964   |            |       |  0.91

Nlocal:        83.3333 ave          94 max          77 min
Histogram: 7 6 8 5 6 10 1 3 1 1
Nghost:        1557.46 ave        1569 max        1545 min
Histogram: 4 2 5 8 0 7 9 7 2 4
Neighs:        8796.44 ave       10016 max        7978 min
Histogram: 5 6 6 6 8 6 7 3 0 1

Total # of neighbors = 422229
Ave neighs/atom = 105.55725
Neighbor list builds = 74
Dangerous builds = 3


# Small amount of linear quench

fix 1 all npt temp 1.25 ${temp} 0.1 iso 5.68 5.68 0.5 mtk yes tchain 5 pchain 5
fix 1 all npt temp 1.25 1 0.1 iso 5.68 5.68 0.5 mtk yes tchain 5 pchain 5
run 2000
Per MPI rank memory allocation (min/avg/max) = 3.643 | 3.645 | 3.648 Mbytes
Step Temp E_pair E_mol TotEng Press Volume 
    2000    1.2335674   -5.8576808            0   -4.0077922     5.754077    4330.1845 
    3000     1.149152   -6.0491986            0   -4.3259016    5.6434332    4253.4669 
    4000     1.011694   -6.2495013            0   -4.7323397    5.5998091    4168.9687 
Loop time of 0.442335 on 48 procs for 2000 steps with 4000 atoms

Performance: 781308.945 tau/day, 4521.464 timesteps/s
99.7% CPU use with 48 MPI tasks x no OpenMP threads

MPI task timing breakdown:
Section |  min time  |  avg time  |  max time  |%varavg| %total
---------------------------------------------------------------
Pair    | 0.20422    | 0.21322    | 0.23473    |   1.2 | 48.20
Neigh   | 0.027493   | 0.028704   | 0.030274   |   0.3 |  6.49
Comm    | 0.13316    | 0.15128    | 0.16179    |   1.7 | 34.20
Output  | 4.6946e-05 | 4.8025e-05 | 6.1101e-05 |   0.0 |  0.01
Modify  | 0.039329   | 0.044391   | 0.053458   |   1.6 | 10.04
Other   |            | 0.00469    |            |       |  1.06

Nlocal:        83.3333 ave          89 max          77 min
Histogram: 2 4 2 4 7 11 9 2 3 4
Nghost:        1595.83 ave        1612 max        1569 min
Histogram: 1 1 0 5 6 6 11 8 8 2
Neighs:        9141.65 ave        9959 max        8378 min
Histogram: 1 3 8 3 9 9 8 4 1 2

Total # of neighbors = 438799
Ave neighs/atom = 109.69975
Neighbor list builds = 127
Dangerous builds = 0

#############################
# F R E E Z E  S Y S T E M  #
#############################

# Define solid atoms. This closely follows ten Wolde  Ruiz-Montero and Frenkel  Faraday Discuss  1996  104  93-110
# Compute components of the per-atom q6 vector
compute q6 all orientorder/atom degrees 1 6 components 6 nnn NULL cutoff 1.3 # compute the Q6 parameter.
                                                                             # Use all neighbours within 1.3 unit cell.

# get number of connections
compute coord_number all coord/atom orientorder q6 0.5

# An atom is solid if it has 8 or more connections (of a possible 14)
variable is_solid atom c_coord_number>=8
group solid dynamic all var is_solid    # Must be dynamic to update
dynamic group solid defined

# do clustering
compute cluster solid cluster/atom 1.3 # Create a cluster where all atoms within are solid and max 1.3 units from another member

# define chunks one chunk per cluster
compute clus_chunks solid chunk/atom c_cluster nchunk every compress yes  # Says which atoms are in which chunk

# count the size of each chunk
compute size_chunks solid property/chunk clus_chunks count


# Find the maximum entry in the vector of chunk sizes
variable max_n equal max(c_size_chunks)


# Thermo style which includes this variable
thermo_style custom step temp pe vol v_max_n

thermo ${N}  # Print the thermo information every 100 steps
thermo 1000  

# Reset the npt fix at a lower temperature (below freezing)
fix 1  all npt temp  ${temp} ${temp}  0.1  iso  5.68  5.68  0.5  mtk yes tchain  5  pchain  5
fix 1  all npt temp  1 ${temp}  0.1  iso  5.68  5.68  0.5  mtk yes tchain  5  pchain  5
fix 1  all npt temp  1 1  0.1  iso  5.68  5.68  0.5  mtk yes tchain  5  pchain  5

dump dmp2 all dcd ${N} traj_${rand}.dcd
dump dmp2 all dcd 1000 traj_${rand}.dcd
dump dmp2 all dcd 1000 traj_462431.dcd


# fix rnuntil all halt ${N} v_max_n >= 3980 error soft message no   # Stop when solidified


run 1000000 # 5000000  # Run for this many steps
Neighbor list info ...
  update every 1 steps, delay 10 steps, check yes
  max neighbors/atom: 2000, page size: 100000
  master list distance cutoff = 3.8
  ghost atom cutoff = 3.8
  binsize = 1.9, bins = 9 9 9
  4 neighbor lists, perpetual/occasional/extra = 1 3 0
  (1) pair lj/cut, perpetual
      attributes: half, newton on
      pair build: half/bin/atomonly/newton
      stencil: half/bin/3d
      bin: standard
  (2) compute orientorder/atom, occasional
      attributes: full, newton on
      pair build: full/bin/atomonly
      stencil: full/bin/3d
      bin: standard
  (3) compute coord/atom, occasional
      attributes: full, newton on
      pair build: full/bin/atomonly
      stencil: full/bin/3d
      bin: standard
  (4) compute cluster/atom, occasional
      attributes: full, newton on
      pair build: full/bin/atomonly
      stencil: full/bin/3d
      bin: standard
Per MPI rank memory allocation (min/avg/max) = 9.362 | 9.368 | 9.373 Mbytes
Step Temp PotEng Volume v_max_n 
    4000     1.011694   -6.2495013    4168.9687            5 
    5000   0.98373496    -6.273282    4142.7386            6 
    6000   0.99785086   -6.2814333    4173.3818            7 
    7000    0.9777496   -6.2708563    4153.8893            2 
    8000    1.0120162    -6.265452    4142.1084            7 
    9000   0.97627257   -6.2948961    4165.6305            6 
   10000    1.0233466   -6.2687767    4148.1006            6 
   11000   0.99986589   -6.2519178     4149.045            9 
   12000   0.97987058   -6.3135468    4157.5047            4 
   13000   0.99622796   -6.2706895    4155.7588           17 
   14000   0.98513289   -6.2414901    4165.4519            4 
   15000   0.99505919   -6.3151177     4138.961            4 
   16000   0.99393815   -6.2666003    4153.6411            7 
   17000    1.0108804   -6.2497433    4160.5731            3 
   18000    1.0069907   -6.3089023     4147.146            9 
   19000    1.0040224   -6.2750323    4142.3237            3 
   20000    1.0116353   -6.2765379    4156.2553           18 
   21000   0.99904622   -6.2619573    4151.0278            8 
   22000    1.0034689   -6.2746065    4149.2601            3 
   23000    1.0035766   -6.3262683    4141.5725            4 
   24000    1.0031222   -6.2663316    4144.9485           14 
   25000    1.0022642   -6.2735633    4157.8611            9 
   26000   0.98500958   -6.2950441    4122.0409           33 
   27000   0.99867832   -6.2541653     4154.356            3 
   28000    1.0150445   -6.2702009    4134.5133           13 
   29000   0.98648032   -6.2293562    4158.8616            7 
   30000    1.0130467   -6.2745488    4164.4954           16 
   31000   0.99183203   -6.2246369    4153.6746            6 
   32000    1.0057407   -6.2770468    4162.1141            6 
   33000    1.0028105   -6.2260935    4149.0696            5 
   34000    1.0127772   -6.2962051    4139.2991            4 
   35000    1.0014985   -6.3064153    4170.7188           16 
   36000    1.0137796   -6.2501536    4157.6136            7 
   37000    1.0013769   -6.2966992    4126.0264           18 
   38000   0.99251242    -6.274211    4148.7102            8 
   39000   0.96481281   -6.2710546    4157.8796           14 
   40000     1.002924   -6.2591925    4137.7396            6 
   41000     1.005226   -6.2865785    4158.4388            5 
   42000      1.00969   -6.2566377    4148.3318            5 
   43000    1.0132123   -6.2974195    4160.3108            5 
   44000    1.0133346    -6.262053    4155.4311           14 
   45000    1.0161448   -6.2801255     4148.975           10 
   46000   0.98338175   -6.2637297    4159.0358            6 
   47000   0.99395551   -6.2910996    4144.6783            6 
   48000     1.018622   -6.2741991    4145.6929            4 
   49000   0.99570093   -6.2771287    4150.3722            6 
   50000    1.0041481   -6.2306481    4161.1173            3 
   51000    1.0108209   -6.2578236    4132.3058            5 
   52000    1.0097875   -6.2894382    4166.2415            5 
   53000    1.0045147   -6.2680966    4158.4271            4 
   54000    1.0167927   -6.2404407    4146.6642            3 
   55000    1.0058813   -6.2724274    4151.3216            5 
   56000    1.0001388   -6.2700873    4140.4666            9 
   57000    1.0123659   -6.2809101    4149.0648            4 
   58000    1.0005837   -6.2743267    4145.4691            6 
   59000    1.0153629   -6.2850268    4152.7369            7 
   60000    1.0028609   -6.2928195    4154.4666            8 
   61000     1.014843   -6.2872587    4157.1724            7 
   62000    1.0072551   -6.2929917    4151.1295           18 
   63000   0.99017974   -6.2994364    4146.0414            6 
   64000   0.99598972   -6.2786819    4159.1818           10 
   65000    1.0173721   -6.2713685    4153.2793            6 
   66000     1.000366   -6.2676152     4147.993            5 
   67000   0.98146919   -6.2755179    4147.5166            3 
   68000    1.0059142    -6.280503    4143.0261            8 
   69000   0.98628451   -6.2470519    4165.6628            6 
   70000    1.0025664   -6.2734674    4145.7101           10 
   71000   0.99097413   -6.2843013    4147.3817           10 
   72000   0.99597379   -6.2812603    4146.5465            7 
   73000   0.98473856   -6.2813386    4169.4084            9 
   74000    1.0059039   -6.2691237    4144.0752            3 
   75000    1.0160269   -6.2547784     4148.346            5 
   76000    1.0031518   -6.2600768    4149.3406            6 
   77000    1.0043733   -6.2919573    4156.9303            5 
   78000   0.99471199   -6.2549872    4165.8052            3 
   79000    1.0013514   -6.2505349    4163.6502           10 
   80000    1.0203371   -6.2631298    4129.6042           19 
   81000    0.9737093   -6.2636189    4158.0916            4 
   82000   0.99290637   -6.2878142    4137.8325           14 
   83000   0.98001198   -6.3049879    4133.6959            6 
   84000   0.99581006   -6.2531238    4152.9824            6 
   85000    0.9976577   -6.2637155    4147.8536            9 
   86000   0.99239326   -6.2441056     4160.329            4 
   87000    1.0011429   -6.2981319    4155.8842            4 
   88000    1.0049538   -6.2498349    4156.9246            6 
   89000   0.99094963   -6.2816827    4156.5937            7 
   90000   0.99881143   -6.2773546    4145.0361            6 
   91000   0.99601256   -6.2996435    4131.1771            3 
   92000    1.0082582   -6.2662601    4149.4184            3 
   93000   0.99064013   -6.2910185    4144.0152            4 
   94000    1.0212043   -6.2624606    4159.4213            5 
   95000   0.98989164   -6.2885253    4161.8586            4 
   96000    1.0145394   -6.3018187    4156.4189            5 
   97000    1.0146774   -6.2529428     4149.192           11 
   98000    1.0086357   -6.2646627    4145.2047            5 
   99000   0.98970537   -6.2602272    4158.4379           11 
  100000    1.0039106   -6.2505788    4167.1095           11 
  101000    0.9961299   -6.2756942    4149.1879           10 
  102000   0.99815854   -6.2535883    4158.3804            8 
  103000    1.0096091   -6.2822397    4162.2421            5 
  104000   0.99629066   -6.2512262    4150.3787            6 
  105000    1.0061214   -6.2903223     4142.415           14 
  106000   0.99634966   -6.2718817    4150.4569            4 
  107000   0.98570282   -6.2912592    4158.6675           11 
  108000     0.999906    -6.268467    4155.6199            5 
  109000   0.99530344   -6.2679783    4147.8252            8 
  110000    1.0206377   -6.2706133    4154.7845            6 
  111000   0.99734575   -6.2571613    4156.0191            5 
  112000   0.97554741   -6.2747289    4169.9723            7 
  113000   0.98645903   -6.2577934     4156.791           10 
  114000   0.99844455   -6.2907209    4157.8427            4 
  115000   0.99385266   -6.2647006    4152.1746            4 
  116000    0.9999835   -6.2583387    4149.5338            8 
  117000    1.0064475   -6.2633827    4149.7095            8 
  118000   0.98085282   -6.2783682    4158.1346            6 
  119000    1.0052366   -6.2554279    4156.6747            5 
  120000   0.98938347   -6.2718814    4174.6134            5 
  121000     1.010728   -6.2656098    4166.0233            5 
  122000    1.0149278   -6.2675934    4161.7978            4 
  123000   0.98936404   -6.2733721    4146.1357            6 
  124000    1.0097047   -6.2445292    4136.1225            6 
  125000     1.004079   -6.2696924    4155.4764            6 
  126000    1.0232512   -6.2981368    4158.0802            4 
  127000     1.010698   -6.2689919    4160.6428            4 
  128000   0.98960557   -6.2632463    4158.9417            7 
  129000   0.98967938   -6.2563494       4160.3            5 
  130000    1.0006345   -6.2524025    4163.1685            5 
  131000    1.0116964   -6.2452971    4164.2648            4 
  132000   0.99035023   -6.3026888    4156.2489           13 
  133000    1.0235472   -6.2616671    4151.2183           14 
  134000   0.99699838   -6.2843816    4150.0942            5 
  135000    1.0003492   -6.2815836    4146.1756            7 
  136000    1.0100245   -6.2784315    4164.6476            5 
  137000   0.98850129   -6.2433757     4159.971            5 
  138000   0.98208589   -6.2856649    4146.1405            7 
  139000   0.99860414   -6.2789421    4137.7063           12 
  140000   0.98966231   -6.2920529    4153.4621            6 
  141000     0.977307   -6.2928592    4144.6547            7 
  142000    1.0011955    -6.268957    4153.5407            7 
  143000   0.98885621   -6.2870493    4148.4326           13 
  144000    1.0020346   -6.2588473    4154.4875            7 
  145000     1.018609   -6.2637802    4140.0983            5 
  146000    1.0000916   -6.2781393     4148.691           13 
  147000   0.98815009   -6.2941222    4145.9486            4 
  148000    1.0047816   -6.2360987    4146.3513            8 
  149000     1.017325   -6.2856422    4126.9518            7 
  150000    1.0054354   -6.2424166     4143.478            8 
  151000   0.97881846   -6.2725582    4160.0469            5 
  152000   0.99897013   -6.2806491    4155.6643            5 
  153000    1.0143101   -6.2803672    4148.2687           11 
  154000    1.0188248   -6.2543405    4164.3092            5 
  155000   0.98704393   -6.2392384    4153.0448            7 
  156000    0.9957516   -6.2874642    4131.4293            5 
  157000   0.99808269    -6.265997    4156.4067            7 
  158000     1.034457   -6.2688145    4161.5314            6 
  159000     1.006912   -6.2847236    4143.6669           13 
  160000   0.98450947   -6.2800525    4157.8813            8 
  161000    0.9969472   -6.2248369    4162.3419           16 
  162000   0.99799287   -6.2251787    4165.7471            5 
  163000   0.98402118   -6.2594463    4155.3368            4 
  164000    1.0020273   -6.2463981    4160.1904            5 
  165000   0.99875963   -6.2995521    4146.1018            2 
  166000     1.007879   -6.2428637    4127.5738            3 
  167000    1.0114682   -6.2420547    4170.3477            5 
  168000    1.0020946   -6.2710343     4150.297            9 
  169000   0.99031505   -6.3129708    4157.1094           10 
  170000    1.0291176   -6.2722214    4143.7245           10 
  171000   0.99799011   -6.2716097    4166.5269           10 
  172000    1.0227992   -6.2913357    4155.2298            9 
  173000    1.0020445   -6.2772391    4156.7885            9 
  174000    1.0288028   -6.2959293    4150.5477           16 
  175000     1.012358   -6.3149584    4140.1065            3 
  176000    1.0094953   -6.2497402    4163.8712            7 
  177000    1.0057434   -6.2492866     4136.258            5 
  178000   0.99599254   -6.2735059    4142.3419           10 
  179000    1.0071091   -6.2863287    4141.4784            8 
  180000   0.98719391   -6.2638025    4145.0282            5 
  181000    0.9993867   -6.2679189     4153.632            3 
  182000    1.0210598   -6.2948213    4143.0106           12 
  183000    1.0113947   -6.2698304    4171.8743            6 
  184000    1.0009095   -6.2573819    4139.0756            5 
  185000   0.99340795   -6.2748874    4142.0548           10 
  186000     1.002691   -6.2682985    4151.5414            4 
  187000    1.0212123   -6.2486456    4137.6892            7 
  188000    0.9918298   -6.3166114      4138.63            6 
  189000   0.99420128   -6.2936155    4153.7278            7 
  190000   0.99141139   -6.2635924     4146.831            4 
  191000    1.0135068   -6.2743529    4158.3414            6 
  192000   0.98496049    -6.222926    4169.1004            8 
  193000    1.0270672   -6.2854565    4144.6088            4 
  194000    1.0162972   -6.2460679    4143.2295           10 
  195000    1.0190375    -6.286488    4167.7412            9 
  196000   0.99976474   -6.2872423    4155.3983            8 
  197000   0.99478925   -6.2732695    4159.0592            6 
  198000    1.0137049   -6.2883919    4162.6198            9 
  199000    1.0111112   -6.2597516    4155.4284           13 
  200000    1.0128971   -6.2173562     4163.984            6 
  201000   0.97238959    -6.257043     4152.459            4 
  202000    0.9860514   -6.2609743    4149.8782            9 
  203000    1.0109275   -6.2614514    4172.9196            5 
  204000   0.99542095   -6.2991425    4162.3385           12 
  205000    1.0072636   -6.2112464    4166.1507            3 
  206000    1.0099562   -6.2452309    4163.9856            4 
  207000   0.99175508   -6.2756602    4143.7766            7 
  208000   0.99242314   -6.2636383    4169.9227            8 
  209000    1.0139564    -6.243258    4160.3227            6 
  210000    1.0021854   -6.2728874    4158.2551            9 
  211000    1.0117465   -6.2555424    4148.6906            8 
  212000   0.97606095   -6.2653257    4163.8061            9 
  213000   0.98250017   -6.2838972    4132.3126           10 
  214000   0.99250234    -6.287717    4147.3844            6 
  215000     1.003968   -6.2471084    4160.5816            5 
  216000   0.98820459   -6.2339565     4153.194            4 
  217000    1.0144416   -6.2739948    4152.2836            6 
  218000   0.97176958   -6.2901687     4166.256            3 
  219000    1.0092182   -6.2247046    4168.8059            6 
  220000    1.0051165   -6.2473533    4158.8265            7 
  221000   0.99877639   -6.2373438     4162.413            5 
  222000   0.98652226   -6.2854702    4147.4609            5 
  223000    1.0291766   -6.2877534    4155.3934            3 
  224000   0.98767323   -6.3054071     4166.175            4 
  225000    1.0143473   -6.2544904    4170.6033           15 
  226000   0.98855857   -6.2623059    4160.9158            9 
  227000    1.0200889   -6.2739437    4158.2706            5 
  228000   0.99993406   -6.2628602    4163.1513           13 
  229000    0.9836814   -6.2637152    4151.0763            5 
  230000    1.0089094   -6.2799658    4154.1716            4 
  231000    1.0072428   -6.2681935    4151.1433            4 
  232000    1.0130161   -6.2883648    4157.0782            6 
  233000    1.0034159   -6.2548416    4158.4909            8 
  234000   0.96782976   -6.2613324    4165.4287            5 
  235000   0.97810359   -6.2769604    4139.2823            5 
  236000    1.0153389   -6.2566154    4144.6645           11 
  237000   0.99675469   -6.2391413    4160.7904            3 
  238000    1.0228713   -6.2931325    4160.1565           13 
  239000     1.004438   -6.2576784    4154.5076            9 
  240000   0.99063727   -6.2903713    4161.9049            6 
  241000   0.99327557   -6.2723909    4141.0565            6 
  242000    1.0023401   -6.2892471    4161.6785            6 
  243000     1.007312   -6.2771821    4141.8252            6 
  244000    1.0112181   -6.2494941    4152.8309            9 
  245000   0.97544379   -6.2503476    4159.4703            6 
  246000     1.005451   -6.2732058    4147.5802            6 
  247000    1.0161174   -6.2461086    4168.0617            8 
  248000   0.99919424   -6.2566752    4158.5674            8 
  249000    1.0009343   -6.2800072    4148.8687            4 
  250000    1.0005179   -6.2350709    4161.6167            7 
  251000   0.99794048   -6.2471898    4160.1759            2 
  252000    1.0076896    -6.282357      4151.36            9 
  253000   0.98259292    -6.273423    4151.2519            7 
  254000    1.0052536   -6.2821968    4151.2383           12 
  255000    1.0124756   -6.3085167    4155.8217            9 
  256000    1.0011675    -6.273111    4140.9504            9 
  257000    1.0019706   -6.2618623    4153.9288            8 
  258000    1.0056687   -6.2709415    4150.9178            4 
  259000   0.99854357   -6.2532247    4137.4434           10 
  260000    1.0076124   -6.2431663    4165.0444            5 
  261000     1.012475   -6.3203678    4139.6211            9 
  262000    1.0011004   -6.2952194    4151.7057            3 
  263000    1.0101668   -6.2342705    4154.9642            8 
  264000    1.0024988   -6.2300961    4167.2611            7 
  265000    1.0077002   -6.2697359    4145.4666            4 
  266000   0.99513618   -6.2472181    4161.1721            3 
  267000    1.0058686   -6.2790677    4126.7469            8 
  268000    1.0130923   -6.2513712    4156.4366            3 
  269000   0.99228879    -6.266548     4160.412           15 
  270000   0.99009153   -6.2518707    4152.0253            6 
  271000   0.98598169   -6.2802733    4141.9738           10 
  272000     1.021152   -6.2563296    4158.6382            3 
  273000    1.0043303   -6.2739762    4137.9912            3 
  274000    1.0015554    -6.256221      4173.05            4 
  275000    1.0049965   -6.2585205    4166.5252            3 
  276000   0.98682574    -6.245714    4150.6831            5 
  277000   0.99650626   -6.2621941    4142.3225            5 
  278000   0.98792454   -6.2601227    4155.0145           12 
  279000   0.99274859   -6.2770532    4137.8167            4 
  280000   0.98996687   -6.2625243    4166.8758            6 
  281000    0.9817536   -6.2511148    4152.3846           10 
  282000    1.0023662    -6.246802    4153.5852            5 
  283000    1.0023051   -6.2757462    4150.4811            5 
  284000    1.0082858   -6.2404942    4142.0424            5 
  285000    1.0024891   -6.3149713    4145.4682            7 
  286000    1.0128911    -6.270564    4143.3152           12 
  287000   0.98506016   -6.2573891    4151.7157            3 
  288000   0.99167524   -6.2608913    4163.2949            5 
  289000    1.0181872   -6.3055144    4136.4416           10 
  290000   0.99765699   -6.2343989    4165.0278            6 
  291000    1.0178154   -6.3017027     4140.259            6 
  292000   0.98934135   -6.2854288    4162.2668            6 
  293000   0.98154519    -6.259846    4158.3441            4 
  294000   0.99015665   -6.3024269    4142.3697            4 
  295000    1.0117572   -6.2541722    4169.3114            7 
  296000   0.99211981   -6.2639164    4149.7997            9 
  297000   0.97899895   -6.2823508    4142.5944           10 
  298000    1.0144056   -6.2862097    4147.6071           20 
  299000    1.0088899   -6.2816791    4154.4041            8 
  300000   0.99079611    -6.258143    4159.5386            6 
  301000   0.96659151   -6.2633128    4142.4231            5 
  302000    1.0130874   -6.2930288    4119.5801            8 
  303000    1.0088891   -6.2471847    4159.8727            8 
  304000    1.0040215   -6.2411795     4165.519            3 
  305000   0.99665324   -6.2779422    4174.9077            5 
  306000    1.0068192   -6.2548656    4156.6635            5 
  307000    1.0136896    -6.248147    4151.9217            3 
  308000   0.98611014   -6.2898027    4164.9581            6 
  309000    1.0324858   -6.2994072    4171.6602           10 
  310000    1.0160713   -6.2774367    4147.4426           10 
  311000    1.0109137   -6.2304434     4150.893            7 
  312000   0.99499802   -6.2457144    4160.2439            8 
  313000   0.99162946   -6.2781641     4151.599            7 
  314000    1.0076309   -6.2601329    4162.5701            3 
  315000   0.99140047   -6.2964877    4171.3044           10 
  316000    1.0279444   -6.2637088    4160.3116            5 
  317000   0.99101081   -6.2731715     4133.877            6 
  318000   0.98792502   -6.2468773    4173.2047            5 
  319000    1.0086551   -6.2504002    4159.2292            9 
  320000   0.98457647   -6.2837471    4136.5763           13 
  321000   0.97827462   -6.2623729    4169.1307            5 
  322000    1.0112034   -6.2289002    4164.3071            7 
  323000    0.9900355   -6.2566306    4146.6215            7 
  324000    1.0024093   -6.3004725    4146.2182            4 
  325000   0.99563844   -6.2778327    4156.5402            5 
  326000   0.98572481   -6.2716892     4140.028           15 
  327000    1.0119334   -6.2981582    4130.1919           10 
  328000   0.99236743   -6.2614717    4145.5649            8 
  329000   0.97796567   -6.2567942    4160.0367            5 
  330000   0.99275735    -6.272832    4159.9007            5 
  331000    1.0083437   -6.2866981    4161.8827            4 
  332000    1.0007719   -6.2373236    4149.3405            6 
  333000    1.0004018   -6.2743803    4160.6834            8 
  334000    1.0064354   -6.2719939    4164.1087            8 
  335000   0.99893367    -6.289007    4159.5442            3 
  336000    1.0021713   -6.2929683    4127.3093            7 
  337000   0.98586851   -6.2317947    4168.6616            8 
  338000   0.98792303    -6.264581    4154.7216            7 
  339000   0.99380833   -6.2591017    4139.6622            5 
  340000   0.98162014   -6.2670002    4150.9409            9 
  341000    1.0057627   -6.2674289    4132.2889           10 
  342000   0.98226943   -6.2867516    4143.4776            5 
  343000   0.98841978    -6.269081    4149.8782            6 
  344000    1.0188116   -6.2943321    4161.6494            6 
  345000    1.0042869   -6.2891706    4151.7625           19 
  346000     0.987247   -6.2749443    4182.0817            3 
  347000    0.9934063   -6.2726334    4153.4805            3 
  348000    1.0150119   -6.2441423    4159.5769            3 
  349000   0.97036089   -6.2687318      4163.19            6 
  350000    1.0156277   -6.2711497    4128.8641            9 
  351000   0.99440552   -6.2710139    4155.5291            8 
  352000    1.0127816   -6.2352412    4165.0991           11 
  353000    1.0013235   -6.3203362    4146.7034           14 
  354000    0.9776785   -6.2627539    4156.7461            7 
  355000   0.97261794   -6.3015917    4141.0865            8 
  356000   0.98236355   -6.2702907    4139.8348            4 
  357000   0.98961215   -6.2956464    4146.1605            5 
  358000   0.99614471   -6.2655898    4149.8797            6 
  359000    1.0048742   -6.2660659    4165.0579           20 
  360000   0.99881521   -6.2767799    4154.7544            9 
  361000   0.99604205   -6.2563128     4149.119           14 
  362000    1.0187139   -6.2372745    4163.9898            6 
  363000    1.0019985   -6.2797666    4156.9955            6 
  364000   0.99635683   -6.2601592    4136.5379            6 
  365000   0.99914286   -6.2639549     4150.255            8 
  366000   0.99494526   -6.2693902    4159.4032            5 
  367000    0.9950024   -6.2876303    4150.1327            6 
  368000    1.0142362   -6.3264151    4144.9954            7 
  369000   0.99133079    -6.266136    4171.0033            7 
  370000    0.9847722   -6.2835829    4149.5418            5 
  371000   0.98307689   -6.2651825    4160.8503            7 
  372000   0.98692926   -6.2777448    4153.3067            6 
  373000     1.030634    -6.282975    4150.0648           11 
  374000   0.99831234   -6.2554123    4173.8953            7 
  375000    1.0104872   -6.2609269     4169.649            3 
  376000    1.0209672   -6.2784292    4157.7903            5 
  377000    0.9869162   -6.2995002    4144.1086            7 
  378000   0.99656156   -6.2494571    4169.2984            5 
  379000   0.97943114   -6.2811968    4167.7207            6 
  380000    1.0015072   -6.2821474    4160.4704            5 
  381000   0.96045635   -6.2604206    4149.5958            4 
  382000    1.0036322   -6.2844779    4150.6334            6 
  383000   0.98667056   -6.2791758    4157.0291            3 
  384000   0.99978025   -6.2882385    4155.6152           10 
  385000    1.0137114   -6.2734338    4141.6566            6 
  386000   0.99293107   -6.2598599    4152.4766            6 
  387000   0.98821487   -6.2411212    4148.8742            7 
  388000   0.98646071   -6.2637206    4156.8783            6 
  389000   0.99710959   -6.2886334    4164.1884            4 
  390000   0.99257915   -6.3037095    4152.4729            9 
  391000    1.0049774   -6.2804204    4135.1253            7 
  392000   0.99766043   -6.2406915    4159.5873            7 
  393000   0.98856711      -6.2767    4160.8273            5 
  394000    1.0006097   -6.2445486    4159.9682            7 
  395000   0.98833039   -6.2561243    4150.8933            6 
  396000    1.0004589   -6.3095224    4147.5593           12 
  397000   0.99732313    -6.261642    4159.6627            7 
  398000    1.0106641   -6.2675815     4146.951            4 
  399000   0.98497871   -6.2806649    4156.4672            3 
  400000    1.0026715   -6.2623194    4144.7019            7 
  401000   0.98827533   -6.2544808    4150.8071            6 
  402000    1.0045282   -6.3226526    4158.5928           10 
  403000    1.0169161   -6.2795063    4147.2931            5 
  404000   0.99859337   -6.2549063    4140.5854            5 
  405000   0.99975076   -6.2630322    4157.2791            5 
  406000    1.0142659   -6.2793579    4154.5746            8 
  407000    1.0026605   -6.2674443    4160.2972            6 
  408000    1.0224779   -6.2826551    4161.2549            6 
  409000   0.98664458   -6.3045955    4132.5201            9 
  410000      1.01281   -6.2821754    4150.7292            7 
  411000   0.98900896   -6.2498659    4154.8791           10 
  412000   0.99924783   -6.2736243    4143.4493            6 
  413000   0.98311451   -6.2770036    4144.7135            4 
  414000   0.99888564   -6.2762944    4159.2074            5 
  415000     1.011033   -6.2963816    4159.9991            5 
  416000    1.0018465   -6.2689307    4174.8649            9 
  417000    0.9743873   -6.2566672    4153.0099            6 
  418000    1.0148365   -6.2543085     4158.695            4 
  419000     1.005459   -6.2894346    4137.5839            3 
  420000   0.99425671   -6.2788657    4156.8901            5 
  421000   0.98375877   -6.3060735    4168.3993           15 
  422000   0.99542053    -6.277267    4136.1409            4 
  423000   0.99339228   -6.2663899     4168.774            4 
  424000      1.01206    -6.293392     4146.536            3 
  425000    1.0007562     -6.26948    4143.9646            5 
  426000   0.99535681   -6.2778448    4155.8385            6 
  427000     1.023739   -6.2522014     4147.968            9 
  428000   0.99190183   -6.2676752    4140.0145            4 
  429000    1.0200966   -6.2479174    4152.9913            4 
  430000   0.98150227    -6.280937    4146.1434            5 
  431000   0.99273979   -6.2642082    4160.9495           10 
  432000   0.97730508   -6.2806693    4149.2817            8 
  433000    1.0192035   -6.2620905    4142.5558           10 
  434000    1.0039895   -6.2280845     4155.399            7 
  435000   0.99313369   -6.2687733    4161.8801            2 
  436000    1.0067338   -6.2749609    4143.0893            4 
  437000    1.0017468      -6.2796    4155.7337           21 
  438000    1.0164536   -6.2509698    4151.2006            5 
  439000    1.0011353   -6.2669988    4159.6315           16 
  440000      1.00688   -6.2715006    4161.2717            6 
  441000   0.99527493   -6.2584306    4171.0669            9 
  442000    1.0242862   -6.2909002    4171.9346            6 
  443000    1.0228043   -6.2920765    4155.7473            6 
  444000    1.0089907   -6.2809683    4138.3834            6 
  445000   0.98228202   -6.2821291    4145.4882            5 
  446000    1.0146049     -6.27826    4156.8148            7 
  447000    1.0038423   -6.2886421    4147.5555            5 
  448000    1.0087764   -6.2330061    4170.4251            6 
  449000    1.0195021     -6.28075    4161.0395            7 
  450000   0.98710153   -6.2588604    4161.2297            8 
  451000    1.0050487   -6.2984252    4159.5415            8 
  452000   0.99679925   -6.2713019    4146.1425            8 
  453000   0.98525227   -6.2653793    4160.5855            9 
  454000     1.004948   -6.2890391    4147.6125            8 
  455000   0.98972307   -6.2611923    4147.3898            4 
  456000   0.99172043   -6.2535739    4148.8469            6 
  457000   0.99917812   -6.2833258    4168.6142            4 
  458000     1.007579    -6.264712    4159.4823            7 
  459000    1.0159116    -6.257665    4127.1856            8 
  460000    1.0080505   -6.2964119    4138.0389            6 
  461000   0.99252928   -6.2350657    4157.3535            6 
  462000   0.99799749   -6.2666575    4167.5295            7 
  463000    1.0162731   -6.2638843    4161.1594            7 
  464000    1.0073683   -6.2749832    4159.1189            4 
  465000   0.98846545   -6.2636842    4166.2321           11 
  466000   0.99397041   -6.2638631    4148.1722            5 
  467000   0.98602243   -6.2655184    4157.0507            3 
  468000   0.98724705    -6.235464    4160.2641            5 
  469000    1.0075327   -6.2720283     4158.164            7 
  470000    1.0290377   -6.2734924    4155.3517            7 
  471000    0.9828589   -6.2570638    4157.4992            7 
  472000    1.0010627   -6.2599266    4152.9013           13 
  473000    1.0186273   -6.2841471    4142.5115           11 
  474000    1.0178521   -6.2574533     4160.393            5 
  475000   0.98628214   -6.2519716    4153.5632            6 
  476000    1.0087865   -6.2464031    4170.7975            5 
  477000    1.0000117   -6.2583733     4146.733            5 
  478000   0.99916085   -6.2646175    4160.1429           13 
  479000    1.0066548   -6.2989418    4140.1122            6 
  480000    1.0077655   -6.3003102    4136.8476            6 
  481000   0.99856646   -6.2986511    4151.3524            7 
  482000    1.0180994   -6.2942851    4161.5993            5 
  483000   0.98576031   -6.2887028    4154.7784           16 
  484000   0.99196103   -6.2903221    4150.1578            4 
  485000    1.0076688   -6.2717547    4171.8301            4 
  486000    1.0078404   -6.2475377    4145.8418            7 
  487000    1.0234967   -6.2636511    4164.4049            7 
  488000    0.9884567   -6.2541164    4156.2913           13 
  489000   0.99442878   -6.2930731    4145.8796            4 
  490000    1.0125637   -6.2924864    4146.2981           10 
  491000   0.99900264   -6.2936984    4157.2733           13 
  492000   0.98881979   -6.2565639     4160.864            5 
  493000    1.0115018   -6.2792976    4160.0859            4 
  494000   0.99169124   -6.2585848    4152.6123            5 
  495000   0.97784243   -6.2625211    4164.6702            4 
  496000   0.99316524   -6.2631447    4149.8088            6 
  497000   0.98690547   -6.2751038    4160.0703            3 
  498000   0.99913527   -6.3050123    4162.1086            5 
  499000    1.0149361   -6.2484908    4162.1107            7 
  500000    1.0193936   -6.3198854    4158.3024           21 
  501000   0.99177368   -6.2588802    4154.2365            8 
  502000    1.0147498   -6.2818382    4146.6552            8 
  503000   0.99919206   -6.2770137    4139.4223            7 
  504000    1.0048681    -6.232408    4152.0308            9 
  505000    1.0008391   -6.2445817    4162.4601            3 
  506000   0.99585353   -6.2718607    4153.6354            9 
  507000   0.98406606    -6.260658    4133.3568            7 
  508000    1.0280473   -6.2689892    4134.8703            5 
  509000   0.97212663     -6.26766    4161.1458           10 
  510000    1.0105876   -6.2667872    4153.2451           12 
  511000    1.0045353   -6.3038634    4136.9974            5 
  512000   0.99662952   -6.3117057    4129.9039           11 
  513000   0.99709811   -6.2784657    4138.5463           10 
  514000   0.99637056   -6.2875406    4155.1604            6 
  515000   0.98473072   -6.2495569    4137.4997            5 
  516000    1.0233734   -6.2703648    4162.7368           11 
  517000    1.0137071   -6.2607155     4150.488           10 
  518000    1.0402079   -6.2728134    4144.3996            5 
  519000   0.99908186   -6.2538273    4139.9034            8 
  520000    1.0177829   -6.2708932    4123.4098           12 
  521000    1.0014847   -6.2895819    4156.1026            6 
  522000     1.026337   -6.2435167     4154.062            5 
  523000    1.0039798   -6.2473109    4158.8835            2 
  524000    1.0016291   -6.2696962      4146.36           12 
  525000    1.0081314   -6.2751469     4149.673            3 
  526000   0.98653713   -6.2782268    4158.7463            4 
  527000   0.98874692   -6.2693044    4148.1826            4 
  528000    1.0256686   -6.2668606    4163.3143            3 
  529000     0.992775   -6.2579303    4139.6547            4 
  530000   0.99698933   -6.2484993    4151.9782           10 
  531000   0.99305229   -6.2611153    4142.3536            4 
  532000   0.98530055   -6.2741035    4148.0947            4 
  533000    1.0421438   -6.2856586    4147.0081            5 
  534000   0.99216021   -6.2963502    4142.8515            4 
  535000    1.0024383    -6.279472    4158.7084            3 
  536000   0.99730075   -6.2593953     4146.027            3 
  537000   0.99386821   -6.2808195    4152.3143            6 
  538000   0.98679321   -6.2691839    4139.5793            4 
  539000   0.98678473    -6.254723    4164.7738            8 
  540000    1.0033076   -6.2688973    4167.0195            8 
  541000    1.0068354   -6.2811767    4137.0114            7 
  542000   0.98911149    -6.286569    4137.5872            8 
  543000    1.0114444    -6.273661    4151.7437            3 
  544000    1.0176628   -6.2650147    4148.1417            5 
  545000    1.0205945   -6.2802095    4157.6258           10 
  546000   0.98008472   -6.2867441    4152.1691            5 
  547000   0.99605852   -6.2538689    4159.1638            4 
  548000    1.0079515   -6.2477579    4152.1813            9 
  549000    1.0013198   -6.2501072      4149.11            7 
  550000    1.0107738   -6.2692172    4152.1838            3 
  551000   0.99162505    -6.283236     4146.182            6 
  552000    1.0062234   -6.2780927    4145.6163            5 
  553000    1.0066715   -6.2814872    4143.5327            4 
  554000    0.9954522   -6.2577118    4154.8643           14 
  555000    1.0010794   -6.2623203    4145.3571           11 
  556000    1.0161813   -6.2476201    4160.8775            9 
  557000    1.0083193   -6.2695076    4155.0983            6 
  558000    1.0158667   -6.2173359    4160.1268            6 
  559000   0.99198005   -6.2899263     4150.252            6 
  560000    1.0048427   -6.2566478     4150.192            9 
  561000    1.0104346   -6.2528857    4151.1702            6 
  562000   0.98563345   -6.2625034    4163.7877            7 
  563000   0.99089707   -6.2948434    4148.5358            2 
  564000     1.004336   -6.2708902    4155.7693            5 
  565000   0.99232028   -6.2762919    4150.9519            3 
  566000    0.9965237   -6.2453708    4161.5818            3 
  567000    1.0097172    -6.253743    4152.0473            5 
  568000    1.0104532   -6.2943149    4151.3411            4 
  569000   0.98952683   -6.2630537    4165.1426           10 
  570000    1.0155019   -6.2592057    4159.5463           10 
  571000    1.0143076    -6.269629    4162.8723            4 
  572000   0.98443407   -6.2740025    4157.2673            5 
  573000    1.0154033   -6.2743851    4153.3094            6 
  574000    1.0186646   -6.2973154    4157.9496            9 
  575000   0.99537279   -6.2752546    4153.4268            4 
  576000    1.0045382   -6.2408009    4168.3165            3 
  577000    1.0198307   -6.2854382    4161.5641            5 
  578000    1.0098495   -6.2627003    4144.2172            6 
  579000    1.0096092   -6.2753708    4149.2857           10 
  580000    1.0124276   -6.3166764    4150.1245           10 
  581000   0.99934609   -6.2726465    4151.9635           11 
  582000    1.0113541   -6.2743184    4158.1637            6 
  583000    1.0054284   -6.2619718    4147.0081           13 
  584000    1.0158399   -6.2487175    4164.3716            8 
  585000   0.99466784   -6.2683341    4161.1602            8 
  586000    1.0107989   -6.2568138     4144.876            7 
  587000    1.0082763   -6.2812186    4146.6223            5 
  588000   0.99733458   -6.2812916    4144.7267            6 
  589000    1.0013326   -6.2439621    4150.6602            9 
  590000    0.9927733   -6.2813541      4167.86            3 
  591000    1.0169091   -6.2851884    4156.0529           12 
  592000    1.0124074   -6.2816445    4152.2601            8 
  593000    1.0176846   -6.2657326    4159.2791            6 
  594000   0.99718984    -6.259576    4174.9678            3 
  595000     1.011876   -6.2535728    4149.4237            3 
  596000     1.009506   -6.2442963    4166.5899            5 
  597000   0.97923146   -6.2822617    4136.9599            7 
  598000    1.0344651   -6.3027184    4140.3614            4 
  599000    1.0083072   -6.2496988    4134.1043            6 
  600000     1.008555    -6.295358    4148.9244            7 
  601000   0.98158587   -6.2881017    4149.9038            6 
  602000   0.99605695   -6.2646272    4153.4411            7 
  603000   0.98977163   -6.2675862    4157.4789           14 
  604000   0.99737828   -6.3142596     4145.515            5 
  605000    1.0020404   -6.2800289    4162.5603            8 
  606000    1.0225232   -6.2797366    4150.6616            3 
  607000    1.0106772   -6.2490848    4166.4409            8 
  608000    1.0106939   -6.2275757    4147.2647            6 
  609000    1.0111814   -6.3044076    4153.7132            5 
  610000   0.98406971   -6.2468824    4150.1493            8 
  611000   0.98084894   -6.2781988    4152.1871            4 
  612000        1.004   -6.2744667    4143.7853            5 
  613000    1.0003202   -6.2804315    4152.7027            9 
  614000   0.98227609   -6.2722582    4151.4847           11 
  615000    1.0062022   -6.2597789    4157.6288            8 
  616000   0.99583062   -6.3074358     4135.756            5 
  617000   0.98323433    -6.253122    4142.7786            7 
  618000    1.0169805   -6.2646637    4162.5875            2 
  619000    1.0204592   -6.2324461      4161.42           11 
  620000    1.0315355   -6.2596931    4155.9697            8 
  621000    0.9886679    -6.299804    4132.2231            8 
  622000    1.0213303   -6.2939212    4143.7184           14 
  623000   0.99726731   -6.2220613    4152.8977            7 
  624000    1.0065276   -6.2747042    4148.4095           11 
  625000    1.0011041   -6.2651355    4150.5413           11 
  626000   0.99583938   -6.2649089    4160.6966            2 
  627000    1.0062334   -6.2977736    4124.7356           12 
  628000   0.99298728     -6.24373     4161.091            5 
  629000   0.99741971   -6.2623182    4147.7253            7 
  630000   0.99459738   -6.2552818    4157.8832            5 
  631000   0.98561247   -6.2505392    4151.3257            4 
  632000    1.0253313   -6.2812779    4136.9767            6 
  633000    1.0012957     -6.24133    4148.7637           11 
  634000   0.99575829   -6.2686819    4158.4485            6 
  635000    1.0109738   -6.2723797    4153.4322            8 
  636000    1.0028729   -6.2970731    4125.2645           14 
  637000    1.0192032   -6.2671807    4133.1948            7 
  638000    1.0069985   -6.2759674    4163.2005           10 
  639000    1.0152481   -6.2615386    4148.4679            6 
  640000   0.99604192   -6.2534967    4151.9912            6 
  641000   0.98843416   -6.2812688    4155.9261            6 
  642000    1.0121351    -6.276002    4150.8657            6 
  643000    1.0104273    -6.290211    4161.4758            4 
  644000     1.011875   -6.2410857    4169.7406            7 
  645000    1.0086087   -6.3201593    4133.3154            4 
  646000    1.0054848   -6.2528922    4150.0726           16 
  647000    1.0176254   -6.2470244    4138.9765            9 
  648000    1.0213905   -6.2820006    4146.8412            3 
  649000   0.99386599   -6.3098934    4153.6597            6 
  650000    1.0057315   -6.2624994    4152.3608            7 
  651000    1.0051183   -6.2938456    4150.4226            8 
  652000    1.0033056    -6.278328    4137.6952           15 
  653000   0.99261938   -6.2811096    4150.7085            6 
  654000    1.0111954   -6.2644581      4139.63            6 
  655000    1.0025241   -6.2854024     4139.283            4 
  656000    1.0184731   -6.2362266    4151.0737           16 
  657000   0.99044514    -6.282746    4167.1482            6 
  658000    1.0136978   -6.2686964    4162.5008            5 
  659000    1.0032008   -6.2606196    4152.8257            9 
  660000    1.0189039   -6.3013193    4138.3255            9 
  661000    1.0032403   -6.2785616    4145.5272            4 
  662000    1.0062284   -6.2663433    4147.1909            8 
  663000    1.0137623   -6.2425681    4147.1491            2 
  664000    1.0124814   -6.2964093    4152.3032            8 
  665000    1.0057439   -6.2471665    4162.3429            6 
  666000   0.97728719   -6.2747891    4148.1739           12 
  667000   0.97924864   -6.2975327    4158.5025           13 
  668000   0.99524759   -6.2690962    4170.9729            9 
  669000   0.98503275   -6.2938453     4155.555            9 
  670000    1.0051517    -6.269662    4148.6993           10 
  671000    1.0218768   -6.2707041     4153.383            8 
  672000   0.97831821   -6.2559847    4142.8392            6 
  673000     1.000633   -6.2911456    4152.8758            4 
  674000    1.0114695    -6.261808    4147.4021            7 
  675000     1.011671   -6.2857871     4152.474           17 
  676000   0.98305196   -6.2716429    4153.0077            8 
  677000    1.0250579    -6.283588    4151.6189            5 
  678000    1.0016641   -6.2711337     4143.122            5 
  679000    1.0100731   -6.2739434    4162.7234            5 
  680000    1.0056813   -6.2986375    4145.8828            9 
  681000    0.9965712   -6.2800733    4155.7862            7 
  682000   0.99935089   -6.2537903    4165.9682            5 
  683000    1.0115799   -6.2453238    4161.1083            7 
  684000   0.99689212   -6.2587046    4154.4258            8 
  685000   0.98481299   -6.2770775    4135.7523           12 
  686000   0.99175549   -6.2955818    4143.5355            5 
  687000    1.0091828   -6.2637732    4153.8742            9 
  688000    1.0281644   -6.2738191    4168.1934            4 
  689000    1.0024933   -6.2768547    4147.4775           11 
  690000    1.0023762   -6.2808632      4154.82           12 
  691000    1.0080211   -6.2515753    4144.9315            8 
  692000   0.99064092   -6.2729858     4171.312           15 
  693000    0.9945905    -6.230583    4160.5439            4 
  694000    1.0305297   -6.2887003    4135.0914            5 
  695000   0.96629152   -6.2615366    4161.1292            6 
  696000    1.0032176   -6.2981161    4139.6099            7 
  697000    0.9981648   -6.2645144    4165.1846            7 
  698000   0.99540216   -6.2704233     4150.411           15 
  699000    1.0201819    -6.250309    4160.5896            4 
  700000   0.99666074   -6.2619736    4145.2046            6 
  701000    1.0077799   -6.2956786    4143.4905            7 
  702000    1.0097752   -6.2837618    4160.4537            5 
  703000    1.0005169   -6.2716644    4143.3839           10 
  704000    0.9960204   -6.2477915    4158.2211            5 
  705000   0.99028194   -6.2436076    4148.9122            6 
  706000   0.97856083   -6.2780615    4151.0484           13 
  707000   0.98139865   -6.2606864    4162.5213            6 
  708000    0.9922494   -6.2550827    4154.2032           17 
  709000   0.97223264   -6.2471602    4154.1775            5 
  710000    1.0010482   -6.3212855    4157.1574            4 
  711000    1.0114858   -6.2645405    4162.8648            5 
  712000      1.02793   -6.3001108    4136.9023            6 
  713000    1.0056706   -6.2805523    4142.5563            6 
  714000    1.0005384   -6.2983995     4174.621            9 
  715000    1.0033764    -6.260078    4171.8822            5 
  716000    1.0186335   -6.2574977    4151.3531            4 
  717000   0.99881523   -6.2706038     4150.893            6 
  718000    0.9736971   -6.2846837    4154.0434            4 
  719000    1.0035272   -6.2919859    4165.2109            9 
  720000   0.98226866   -6.2695043    4144.7399            5 
  721000    1.0013709   -6.2383591     4162.009            3 
  722000     1.001923   -6.2648469    4148.9273            4 
  723000   0.99482999   -6.2705674    4161.4553            6 
  724000     1.007091    -6.262497    4147.7492            9 
  725000   0.98721647   -6.2756426    4148.2655            7 
  726000   0.99033684   -6.2487169    4159.9338            5 
  727000    1.0168016   -6.2713992    4155.5271            9 
  728000    1.0121501   -6.2861493    4147.0518            8 
  729000    1.0075596   -6.2569249     4151.232            4 
  730000   0.99055244   -6.2711819    4140.7886           10 
  731000    1.0065252   -6.2974409    4145.0278            4 
  732000    0.9966453   -6.2718785    4154.9039            5 
  733000   0.99125522   -6.2503752    4152.0065            4 
  734000   0.99264179   -6.3006563    4141.4104           10 
  735000   0.98427495    -6.270046     4154.743            5 
  736000    1.0141891   -6.2514918    4151.8347            4 
  737000   0.98996502   -6.2671083     4153.201            4 
  738000    1.0128289    -6.277097    4163.5456            8 
  739000   0.99596958    -6.258135    4165.3107            4 
  740000   0.99198624   -6.2608535    4151.7141            8 
  741000   0.99485516   -6.2678797    4157.2264            4 
  742000   0.99356513   -6.2784026      4154.23            6 
  743000   0.97842836   -6.2278821    4166.0551            6 
  744000    1.0067814   -6.2819075    4151.6706            6 
  745000    1.0038681   -6.2664616     4157.771            5 
  746000    1.0087192   -6.2900244    4161.1872            5 
  747000    1.0006281   -6.2824094      4134.86            9 
  748000   0.98734294   -6.2900999    4139.6863            3 
  749000   0.99858553   -6.2370694    4167.0295            6 
  750000   0.97982209   -6.2525847    4138.7387           14 
  751000    1.0049842   -6.3221129    4135.9733            4 
  752000    1.0155053   -6.2645238    4148.3708            5 
  753000   0.99158876   -6.2793198    4148.0167            6 
  754000    1.0107573    -6.257265    4156.9054            5 
  755000   0.98736316   -6.2903653    4150.8342           12 
  756000   0.99150655   -6.2612943     4150.433            4 
  757000    1.0216438   -6.2815524    4150.5565            3 
  758000    1.0173795   -6.2779747    4133.2684            8 
  759000   0.99031686    -6.269968    4159.3446            4 
  760000   0.99335447   -6.2338702    4148.3109            8 
  761000   0.99964693   -6.2657804    4144.9784           10 
  762000   0.99983638   -6.2621892    4156.6256            6 
  763000    1.0082586   -6.2494603    4153.0595            4 
  764000    1.0021769   -6.2536236     4150.501            5 
  765000    1.0081142   -6.2586968    4140.1316            5 
  766000   0.99612102   -6.2902063    4155.7869            8 
  767000   0.98787442   -6.2750679    4151.6668            5 
  768000   0.99759617    -6.283125    4161.2847            7 
  769000     1.002682   -6.2792807    4147.3516            8 
  770000   0.99571745   -6.2530652    4145.6782            4 
  771000    1.0178303   -6.2798344    4142.3667            6 
  772000   0.98179618   -6.2813428    4149.1482           14 
  773000   0.99190625   -6.2427352    4145.9669           14 
  774000   0.98834855   -6.2691852    4165.7723            7 
  775000    1.0241082   -6.2715129    4165.2213           12 
  776000    1.0212181   -6.2524713    4153.8936            6 
  777000   0.98642122   -6.2251521    4164.0112            3 
  778000    1.0095752   -6.2586354    4160.4698            5 
  779000    1.0017139   -6.2893077    4143.4237           13 
  780000   0.99667531    -6.294786    4144.8124            5 
  781000    0.9978224   -6.2603606    4171.0466            9 
  782000     0.991557   -6.2933264    4159.5716            4 
  783000    1.0193596   -6.2605935    4160.0412            5 
  784000   0.99928524   -6.3067163    4154.4519            6 
  785000   0.99665667   -6.2932864    4172.9519            5 
  786000    1.0093938   -6.2750142    4149.4406            7 
  787000    1.0002976   -6.2430804     4166.185            4 
  788000   0.99990577   -6.2659152    4156.3061            4 
  789000    1.0015778   -6.2662868    4167.7045            6 
  790000    0.9995636   -6.3012977    4161.7677           11 
  791000    1.0048682   -6.2645259    4143.0341           13 
  792000   0.99794335   -6.2631735    4167.6637            5 
  793000     1.018932   -6.2782493    4130.6354            4 
  794000   0.99928904   -6.2320662    4157.7107            4 
  795000   0.99320376   -6.2872722    4138.0666            8 
  796000   0.98702717    -6.277318    4161.5309           10 
  797000   0.98065477   -6.2427151    4152.0296            7 
  798000   0.97290025   -6.2575485    4172.4745            9 
  799000   0.98040072   -6.2482162    4162.2489            8 
  800000   0.99514361   -6.2517633    4155.5646            7 
  801000    1.0153408   -6.2749644      4143.53           10 
  802000   0.99301376   -6.2712561     4156.658            5 
  803000    0.9917554   -6.2614412    4143.4334            5 
  804000     1.005127   -6.3115296     4147.513            5 
  805000   0.99917165   -6.2979446    4139.7743            5 
  806000    1.0292208   -6.2296027    4162.8296            6 
  807000    1.0003861   -6.2987075    4142.9999            6 
  808000   0.99955884   -6.2705632    4145.6733            7 
  809000    1.0052349   -6.3004476    4137.5528            7 
  810000   0.98640102   -6.2837491    4144.1672            6 
  811000    1.0317684   -6.2731547     4167.001            3 
  812000   0.99467043   -6.2736788    4153.2018            9 
  813000    1.0037991   -6.3009103    4146.0884            5 
  814000    1.0007206    -6.264812    4142.5083            5 
  815000    1.0219259   -6.2699139    4135.0213            4 
  816000   0.98751071     -6.27328    4160.1737            6 
  817000   0.97724929   -6.2993895    4142.1092            6 
  818000    1.0124448   -6.2797443    4142.0065            9 
  819000    1.0056551   -6.2601453    4145.8045            5 
  820000    1.0098938    -6.272783    4125.3525            5 
  821000    1.0119416   -6.2908112    4161.9203            9 
  822000    1.0078028    -6.268233     4168.578            7 
  823000    1.0030422   -6.2854225    4139.3481           10 
  824000   0.98168542    -6.287644    4141.0994            8 
  825000    1.0005398   -6.2566395    4140.6204            6 
  826000    1.0129093   -6.3027534    4140.4403           13 
  827000   0.99775434   -6.2550395    4147.1562            7 
  828000     1.000484   -6.2758914    4159.4809            4 
  829000    1.0041464   -6.2834384    4149.7263            8 
  830000   0.99443769    -6.279527     4155.638            3 
  831000   0.99619944   -6.2711431    4150.0436            7 
  832000    1.0084545   -6.2865534    4126.1263            5 
  833000    1.0064463   -6.2948886    4134.4311            5 
  834000   0.99672034   -6.2866566    4152.0206            4 
  835000    1.0079304   -6.2924606     4138.091            4 
  836000   0.97965464   -6.2876742    4163.8786           12 
  837000    1.0063167   -6.2673595    4149.1699            5 
  838000   0.99187795    -6.259941    4151.0536            6 
  839000     1.002102   -6.2702842      4151.79            8 
  840000    1.0105818   -6.2681684    4154.8543            9 
  841000   0.98504583   -6.2919761     4152.495            5 
  842000    1.0040833   -6.2651986    4153.3812            9 
  843000   0.98462006   -6.2625846    4161.7834            4 
  844000   0.97699273   -6.2896631    4152.1388            7 
  845000    1.0242222   -6.2579561      4164.66            5 
  846000   0.98812524   -6.2151226    4175.2756            7 
  847000   0.97821431   -6.2986195    4140.8013            4 
  848000    1.0280291   -6.2643106    4161.5924            5 
  849000    1.0166978   -6.2567033    4151.8615            8 
  850000    1.0158652   -6.2563415     4148.904           13 
  851000   0.99629578   -6.3056333    4168.6227            5 
  852000    1.0281344   -6.2795745     4155.172            6 
  853000    1.0090245    -6.298732    4153.8234            5 
  854000   0.97685921    -6.293819    4163.9811            3 
  855000   0.99462831   -6.2702015    4162.3688            4 
  856000    1.0004324   -6.2798592      4155.54            5 
  857000    1.0219557    -6.288155    4145.9648            6 
  858000     1.014691   -6.2502539    4169.6636            6 
  859000   0.99620553   -6.2932394    4149.8083            8 
  860000    1.0188163   -6.2742033    4154.3675            5 
  861000    1.0035707   -6.3062181    4156.0181            9 
  862000    1.0012516   -6.2604603    4160.6486            6 
  863000    1.0016592   -6.2868847    4160.7489            3 
  864000    1.0154332   -6.2737397    4134.8712            4 
  865000   0.99305521   -6.2469306    4166.2169            3 
  866000   0.99260058   -6.2792043    4149.1299           20 
  867000     1.020337   -6.2602589     4157.732            5 
  868000   0.98425444   -6.3008079    4165.5655            7 
  869000    1.0060003   -6.3137794    4153.1146            6 
  870000   0.98993547   -6.2668082    4177.4248            6 
  871000   0.99807131   -6.2707335    4149.6898            7 
  872000    1.0196805   -6.2674005    4157.2998            6 
  873000   0.99591469   -6.2618201    4161.0711            8 
  874000   0.98674363   -6.2592086    4144.0579            6 
  875000   0.99662336   -6.2700285    4154.6181            5 
  876000   0.99930843   -6.2968703    4156.4328            7 
  877000   0.98541666   -6.2584997    4164.7447            5 
  878000   0.99559334   -6.2601593    4159.2528            5 
  879000    1.0024523   -6.2604414    4148.2061           11 
  880000    1.0312409   -6.2865242    4154.1324            6 
  881000   0.99642869    -6.259398     4147.833            6 
  882000   0.98862288   -6.2756842    4156.1646            6 
  883000    1.0171261    -6.252671    4149.5073            3 
  884000    1.0147638   -6.2735201    4160.9551            5 
  885000    1.0037006   -6.2487305     4160.778            9 
  886000    1.0190519   -6.3084842    4138.0163            3 
  887000   0.99249056   -6.2934704    4154.1539            8 
  888000   0.98153746   -6.2390558    4152.2412            9 
  889000   0.97322295    -6.253698    4147.5234            5 
  890000     1.004014   -6.2818472     4171.646            5 
  891000    1.0180078   -6.2333976    4180.3655            6 
  892000   0.98494586   -6.2461871    4157.1506            4 
  893000     1.009622   -6.2593417    4142.6419            6 
  894000   0.99408448   -6.2677758    4135.3973            6 
  895000    1.0019597   -6.2856324    4143.8128            3 
  896000    1.0087444   -6.3190992    4143.8503            6 
  897000    1.0263682   -6.2784141     4138.948            4 
  898000    1.0114005   -6.2912631    4148.2201            6 
  899000   0.99329911   -6.2718838    4160.9095            5 
  900000   0.98474955   -6.2708555    4163.8242            5 
  901000    1.0160528   -6.2676547    4144.7407            6 
  902000    1.0085618   -6.2597833    4156.4411            5 
  903000    1.0373514   -6.2801653    4159.5345            7 
  904000    0.9964534   -6.2926728    4170.8899            5 
  905000   0.98042776   -6.2301948    4157.8705           11 
  906000    1.0048056   -6.2828446    4151.5641            9 
  907000    1.0001577   -6.2797745      4148.42            3 
  908000      1.00624    -6.273642    4148.9847            7 
  909000    1.0004756   -6.2787661    4133.5847            4 
  910000    1.0112613   -6.2477163    4163.3547            6 
  911000   0.96804286   -6.2468583    4169.0892            5 
  912000   0.99446989   -6.2880833    4142.0086            5 
  913000    1.0031092    -6.261467    4163.7784            5 
  914000    0.9913485    -6.275926     4150.839           15 
  915000    1.0070477   -6.2608453    4156.4561            2 
  916000   0.98891087   -6.2868738    4153.6543           12 
  917000   0.99901977   -6.2676052    4167.5223            5 
  918000    1.0064266   -6.3012311    4134.4281            6 
  919000   0.99342852    -6.291546    4158.8876           10 
  920000   0.99318711   -6.2820575    4151.8027            6 
  921000   0.99961599   -6.2223036    4155.2382            8 
  922000    1.0125973   -6.2928581    4144.8724            7 
  923000    1.0010032   -6.2810349    4164.8507            7 
  924000   0.99180319   -6.2525445    4142.5482           14 
  925000   0.99086614    -6.283311    4147.7793            6 
  926000   0.98313707   -6.2828563    4161.1383            9 
  927000    1.0148346   -6.2397706    4157.6746            6 
  928000    1.0051157   -6.2715094    4160.9529            4 
  929000    1.0043012   -6.2714315     4145.107            7 
  930000    1.0016453   -6.2550457     4148.485            3 
  931000   0.98668865   -6.2933791    4155.0257            5 
  932000     1.003393   -6.2969268    4148.9356           12 
  933000   0.98683557   -6.2886116    4140.6029            5 
  934000    1.0245832   -6.3077104    4145.2029            5 
  935000    1.0101288   -6.2633898    4163.4951           11 
  936000   0.99735185   -6.2485168     4167.166            6 
  937000   0.99741726   -6.2880289    4151.3692            6 
  938000   0.99886712   -6.2788733    4142.6081            8 
  939000    1.0092229   -6.2870139    4143.9798            3 
  940000    1.0233805   -6.2972513    4166.0452            5 
  941000   0.98393594   -6.2687453     4149.485            9 
  942000    1.0127506   -6.2384771      4164.16            8 
  943000   0.99595888   -6.2687625    4167.0796            5 
  944000    1.0007278   -6.2938725    4147.6572           14 
  945000    1.0122535     -6.29717    4157.5295            4 
  946000    1.0147523   -6.2786261    4149.8562            4 
  947000   0.99379796   -6.2857655    4156.0723           10 
  948000   0.99039768   -6.2865277    4143.8142            8 
  949000    1.0091078    -6.256066    4160.3887            6 
  950000   0.99572698   -6.2877811    4147.5753           11 
  951000   0.97775296   -6.2919833     4156.326            9 
  952000   0.98984458     -6.27669    4163.1738            8 
  953000   0.99351919   -6.2810699    4134.1899            6 
  954000   0.99868248    -6.252673    4156.0957            5 
  955000    1.0163694   -6.3076627    4155.8429           11 
  956000   0.99426895   -6.2738421    4167.3231            5 
  957000    1.0136917   -6.2486369    4143.0329            5 
  958000   0.97645091   -6.2377397    4152.9213            4 
  959000   0.97023941   -6.2728312    4146.6034            9 
  960000    1.0169684   -6.2461667    4171.6006            4 
  961000   0.99280041   -6.2824663    4143.5929            5 
  962000   0.99560254   -6.2801196    4145.5447            6 
  963000    1.0095981   -6.2999615     4143.506            8 
  964000   0.99174026   -6.2681509    4158.0576            7 
  965000   0.99115959   -6.2737766    4161.0025            4 
  966000    0.9973705   -6.2845556    4164.1588            2 
  967000    1.0118434     -6.30547    4141.0764            9 
  968000    0.9968948   -6.2853206    4140.0388            5 
  969000    0.9944064   -6.2819307    4168.6007           23 
  970000    1.0228751   -6.3145837    4143.0874            6 
  971000   0.98351408   -6.2810378    4153.3597            3 
  972000   0.99896325    -6.272696     4156.644            8 
  973000    0.9845664   -6.2934327    4146.5617            6 
  974000    1.0023246    -6.265553    4145.5518            7 
  975000   0.99444117   -6.2979661    4149.8232            5 
  976000    1.0138906   -6.3225505    4141.6859           13 
  977000   0.99568355    -6.287316    4154.7421            2 
  978000   0.98981695   -6.2899713    4142.8129            8 
  979000   0.97806768   -6.2833608    4143.0805            5 
  980000   0.97343268   -6.2925676    4150.3454            6 
  981000    1.0105392   -6.2900562    4145.7381           10 
  982000    1.0035041    -6.293897    4145.1319           11 
  983000     1.014542   -6.2665067    4171.4121            4 
  984000   0.96933555   -6.2772813    4133.6553            8 
  985000   0.99533239   -6.2907445    4153.8261            8 
  986000    1.0163005   -6.2854057    4158.2343            3 
  987000   0.98650741   -6.2783029    4143.8067            6 
  988000    1.0011912   -6.2912654    4147.4311            7 
  989000   0.99967218   -6.2491978    4162.2408            4 
  990000   0.99723039   -6.2781112    4161.9662            5 
  991000   0.99646485   -6.2335379    4182.3721            6 
  992000     1.021349   -6.2718961    4158.1292           15 
  993000     1.000254   -6.2765584    4162.8746            8 
  994000    1.0106131   -6.3152228    4138.9926           11 
  995000    1.0060119    -6.286573    4152.0611            4 
  996000    1.0169322   -6.2529293      4147.54            8 
  997000    1.0065352   -6.2785664    4141.8192            4 
  998000    1.0026772   -6.2536092    4152.4636           10 
  999000    1.0246893   -6.2616386    4145.2061            5 
 1000000    1.0119736   -6.2812348     4160.074            4 
 1001000   0.98824842   -6.2466731    4158.0276            7 
 1002000    1.0032814    -6.279034    4159.4457            5 
 1003000    0.9956312   -6.3089652    4150.4672            4 
 1004000    1.0067856   -6.2503509     4144.131            6 
Loop time of 2074.24 on 48 procs for 1000000 steps with 4000 atoms

Performance: 83307.645 tau/day, 482.104 timesteps/s
99.4% CPU use with 48 MPI tasks x no OpenMP threads

MPI task timing breakdown:
Section |  min time  |  avg time  |  max time  |%varavg| %total
---------------------------------------------------------------
Pair    | 123.42     | 133.27     | 144.5      |  47.1 |  6.43
Neigh   | 14.746     | 14.921     | 15.311     |   3.0 |  0.72
Comm    | 110.23     | 119.37     | 130.4      |  41.1 |  5.75
Output  | 1.2038     | 1.2049     | 1.2216     |   0.2 |  0.06
Modify  | 1777.4     | 1786.2     | 1796.1     |  10.8 | 86.11
Other   |            | 19.25      |            |       |  0.93

Nlocal:        83.3333 ave          90 max          75 min
Histogram: 3 0 2 1 11 6 16 2 5 2
Nghost:        1599.65 ave        1618 max        1585 min
Histogram: 5 3 7 9 4 5 6 6 2 1
Neighs:        9213.88 ave       10228 max        8098 min
Histogram: 1 1 3 3 9 18 7 4 0 2
FullNghs:      18427.8 ave       20109 max       16316 min
Histogram: 2 1 2 3 6 15 9 6 2 2

Total # of neighbors = 884534
Ave neighs/atom = 221.13350
Neighbor list builds = 59681
Dangerous builds = 0

#clear
#
#next RN
#
#jump SELF
Total wall time: 0:34:35
