
units lj                  # Use reduced LJ style units
atom_style atomic         # Uncharged point particles
atom_modify map hash      # Needed for indexing of clusters etc
                          # Used to be able to find where atoms are in relation to each other.

# Define a lattice with which to populate the simulation cell. With units
# set to 'lj' the second argument to the lattice command is the reduced
# density rho* and the spacings are multiples of that required to acheive
# that density. Also define a simulation cell called 'box' in lattice units
# and fill it with atoms. Here we're creating a box which is ten lattice
# constants in each direction.
lattice fcc 1.0 spacing 1 1 1                 # All equal sizes - gives the right reduced density.
Lattice spacing in x,y,z = 1.5874011 1.5874011 1.5874011

region box block 0 10 0 10 0 10 units lattice # Defines a region, "box", in lattice units
create_box 1 box                              # Creates a simulation box as specified above,
Created orthogonal box = (0.0000000 0.0000000 0.0000000) to (15.874011 15.874011 15.874011)
  3 by 4 by 4 MPI processor grid
                                              # with one type of atom
create_atoms 1 box                            # Creates particles on lattice points
Created 4000 atoms
  using lattice units in orthogonal box = (0.0000000 0.0000000 0.0000000) to (15.874011 15.874011 15.874011)
  create_atoms CPU = 0.002 seconds


# Set the mass of the first (and only) atom type.
mass 1 1.0

# Lennard-Jones interactions between particles, 3.5 sigma cut-off. Apply
# long range tail corrections to energy and pressure and set all coefficients
# to unity since we work in reduced units here. Note that this doesn't shift
# the potential such that it goes to zero at the cutoff. That would require
# pair_modify('shift', 'yes').
pair_style lj/cut  3.5      # non-GPU version
pair_modify tail  yes
pair_coeff 1  1  1.0  1.0   # Intearaction between 1 and 1 set with epsilon = 1 and sigma = 1

write_data data.*
System init for write_data ...
Neighbor list info ...
  update every 1 steps, delay 10 steps, check yes
  max neighbors/atom: 2000, page size: 100000
  master list distance cutoff = 3.8
  ghost atom cutoff = 3.8
  binsize = 1.9, bins = 9 9 9
  1 neighbor lists, perpetual/occasional/extra = 1 0 0
  (1) pair lj/cut, perpetual
      attributes: half, newton on
      pair build: half/bin/atomonly/newton
      stencil: half/bin/3d
      bin: standard

#############################
#   M E L T   S Y S T E M   #
#############################

velocity all create 2.4 2750902 mom yes dist gaussian # Assign velocities
                                                    # Temperature 2.4, random number seed, zero linear momentum
						                                                        # Gaussian distribution

timestep 0.002   # simulation timestep
thermo 1000       # output thermodynamic data every 1000 steps

# Define a fix  in this case with index 1 applied to all
# particles in the simulation. This fix is for simulations
# in the anisotropic NPT ensemble. Note that we use the MTK
# correction.
fix 1 all npt temp 2.4 2.4 0.1 iso 5.68 5.68 0.5 mtk yes tchain 5 pchain 5 # Use NPT ensemble
                                                                         # Set temperature and pressure and damping
                                                                         # Numbers of thermostats in chain and in barostat
run 1000         # run for 10000 steps
Per MPI rank memory allocation (min/avg/max) = 3.642 | 3.644 | 3.648 Mbytes
Step Temp E_pair E_mol TotEng Press Volume 
       0          2.4   -8.3859253            0   -4.7868253   -2.2405722         4000 
    1000    2.3434012   -4.4238704            0  -0.90964738    5.8682558    5151.8188 
Loop time of 0.217826 on 48 procs for 1000 steps with 4000 atoms

Performance: 793292.135 tau/day, 4590.811 timesteps/s
99.3% CPU use with 48 MPI tasks x no OpenMP threads

MPI task timing breakdown:
Section |  min time  |  avg time  |  max time  |%varavg| %total
---------------------------------------------------------------
Pair    | 0.09118    | 0.10065    | 0.10962    |   1.2 | 46.21
Neigh   | 0.017333   | 0.018809   | 0.020636   |   0.5 |  8.63
Comm    | 0.063298   | 0.074352   | 0.086071   |   1.8 | 34.13
Output  | 2.4314e-05 | 2.557e-05  | 3.2215e-05 |   0.0 |  0.01
Modify  | 0.020063   | 0.022445   | 0.025581   |   0.9 | 10.30
Other   |            | 0.00154    |            |       |  0.71

Nlocal:        83.3333 ave          95 max          78 min
Histogram: 8 10 8 7 5 5 2 1 1 1
Nghost:        1391.50 ave        1422 max        1362 min
Histogram: 4 2 3 6 11 8 4 3 2 5
Neighs:        7406.25 ave        8468 max        6555 min
Histogram: 2 6 8 5 10 4 6 2 1 4

Total # of neighbors = 355500
Ave neighs/atom = 88.875000
Neighbor list builds = 87
Dangerous builds = 20

# Equilibrate just above the melting temperature to avoid step fn in T

fix 1 all npt temp 1.25 1.25 0.1 iso 5.68 5.68 0.5 mtk yes tchain 5 pchain 5
run 1000
Per MPI rank memory allocation (min/avg/max) = 3.642 | 3.644 | 3.648 Mbytes
Step Temp E_pair E_mol TotEng Press Volume 
    1000    2.3434012   -4.4238704            0  -0.90964738    5.8682558    5151.8188 
    2000    1.2429145   -5.8542389            0   -3.9903333    5.7194736    4334.1532 
Loop time of 0.218304 on 48 procs for 1000 steps with 4000 atoms

Performance: 791557.300 tau/day, 4580.771 timesteps/s
99.6% CPU use with 48 MPI tasks x no OpenMP threads

MPI task timing breakdown:
Section |  min time  |  avg time  |  max time  |%varavg| %total
---------------------------------------------------------------
Pair    | 0.094944   | 0.10067    | 0.11327    |   1.2 | 46.12
Neigh   | 0.015559   | 0.016369   | 0.018662   |   0.4 |  7.50
Comm    | 0.063961   | 0.076153   | 0.085383   |   1.7 | 34.88
Output  | 2.2592e-05 | 2.341e-05  | 3.0242e-05 |   0.0 |  0.01
Modify  | 0.020351   | 0.023151   | 0.027459   |   1.4 | 10.60
Other   |            | 0.001936   |            |       |  0.89

Nlocal:        83.3333 ave          91 max          76 min
Histogram: 2 0 6 7 12 2 13 2 2 2
Nghost:        1559.08 ave        1579 max        1541 min
Histogram: 2 2 8 11 4 8 3 5 3 2
Neighs:        8794.40 ave        9967 max        8047 min
Histogram: 4 3 11 7 11 7 2 2 0 1

Total # of neighbors = 422131
Ave neighs/atom = 105.53275
Neighbor list builds = 75
Dangerous builds = 8


# Small amount of linear quench

fix 1 all npt temp 1.25 ${temp} 0.1 iso 5.68 5.68 0.5 mtk yes tchain 5 pchain 5
fix 1 all npt temp 1.25 0.19 0.1 iso 5.68 5.68 0.5 mtk yes tchain 5 pchain 5
run 2000
Per MPI rank memory allocation (min/avg/max) = 3.643 | 3.645 | 3.648 Mbytes
Step Temp E_pair E_mol TotEng Press Volume 
    2000    1.2429145   -5.8542389            0   -3.9903333    5.7194736    4334.1532 
    3000   0.82213405   -6.4962242            0   -5.2633314    5.5493618    4069.6021 
    4000    0.3112352    -7.262647            0   -6.7959109    5.6067407     3786.151 
Loop time of 0.452858 on 48 procs for 2000 steps with 4000 atoms

Performance: 763152.959 tau/day, 4416.394 timesteps/s
99.7% CPU use with 48 MPI tasks x no OpenMP threads

MPI task timing breakdown:
Section |  min time  |  avg time  |  max time  |%varavg| %total
---------------------------------------------------------------
Pair    | 0.21329    | 0.22504    | 0.24529    |   1.3 | 49.69
Neigh   | 0.023278   | 0.024129   | 0.025787   |   0.3 |  5.33
Comm    | 0.13538    | 0.15352    | 0.1685     |   1.7 | 33.90
Output  | 4.9129e-05 | 5.0017e-05 | 6.1698e-05 |   0.0 |  0.01
Modify  | 0.038537   | 0.04466    | 0.050894   |   1.4 |  9.86
Other   |            | 0.005454   |            |       |  1.20

Nlocal:        83.3333 ave          90 max          79 min
Histogram: 5 4 7 11 9 6 1 3 1 1
Nghost:        1702.10 ave        1713 max        1686 min
Histogram: 1 1 3 4 8 10 2 9 4 6
Neighs:        10152.8 ave       10807 max        9426 min
Histogram: 1 3 5 4 7 9 13 1 2 3

Total # of neighbors = 487335
Ave neighs/atom = 121.83375
Neighbor list builds = 105
Dangerous builds = 0

#############################
# F R E E Z E  S Y S T E M  #
#############################

# Define solid atoms. This closely follows ten Wolde  Ruiz-Montero and Frenkel  Faraday Discuss  1996  104  93-110
# Compute components of the per-atom q6 vector
compute q6 all orientorder/atom degrees 1 6 components 6 nnn NULL cutoff 1.3 # compute the Q6 parameter.
                                                                             # Use all neighbours within 1.3 unit cell.

# get number of connections
compute coord_number all coord/atom orientorder q6 0.5

# An atom is solid if it has 8 or more connections (of a possible 14)
variable is_solid atom c_coord_number>=8
group solid dynamic all var is_solid    # Must be dynamic to update
dynamic group solid defined

# do clustering
compute cluster solid cluster/atom 1.3 # Create a cluster where all atoms within are solid and max 1.3 units from another member

# define chunks one chunk per cluster
compute clus_chunks solid chunk/atom c_cluster nchunk every compress yes  # Says which atoms are in which chunk

# count the size of each chunk
compute size_chunks solid property/chunk clus_chunks count


# Find the maximum entry in the vector of chunk sizes
variable max_n equal max(c_size_chunks)


# Thermo style which includes this variable
thermo_style custom step temp pe vol v_max_n

thermo ${N}  # Print the thermo information every 100 steps
thermo 1000  

# Reset the npt fix at a lower temperature (below freezing)
fix 1  all npt temp  ${temp} ${temp}  0.1  iso  5.68  5.68  0.5  mtk yes tchain  5  pchain  5
fix 1  all npt temp  0.19 ${temp}  0.1  iso  5.68  5.68  0.5  mtk yes tchain  5  pchain  5
fix 1  all npt temp  0.19 0.19  0.1  iso  5.68  5.68  0.5  mtk yes tchain  5  pchain  5

dump dmp2 all dcd ${N} traj_${rand}.dcd
dump dmp2 all dcd 1000 traj_${rand}.dcd
dump dmp2 all dcd 1000 traj_462431.dcd


# fix rnuntil all halt ${N} v_max_n >= 3980 error soft message no   # Stop when solidified


run 1000000 # 5000000  # Run for this many steps
Neighbor list info ...
  update every 1 steps, delay 10 steps, check yes
  max neighbors/atom: 2000, page size: 100000
  master list distance cutoff = 3.8
  ghost atom cutoff = 3.8
  binsize = 1.9, bins = 9 9 9
  4 neighbor lists, perpetual/occasional/extra = 1 3 0
  (1) pair lj/cut, perpetual
      attributes: half, newton on
      pair build: half/bin/atomonly/newton
      stencil: half/bin/3d
      bin: standard
  (2) compute orientorder/atom, occasional
      attributes: full, newton on
      pair build: full/bin/atomonly
      stencil: full/bin/3d
      bin: standard
  (3) compute coord/atom, occasional
      attributes: full, newton on
      pair build: full/bin/atomonly
      stencil: full/bin/3d
      bin: standard
  (4) compute cluster/atom, occasional
      attributes: full, newton on
      pair build: full/bin/atomonly
      stencil: full/bin/3d
      bin: standard
Per MPI rank memory allocation (min/avg/max) = 9.390 | 9.394 | 9.397 Mbytes
Step Temp PotEng Volume v_max_n 
    4000    0.3112352    -7.262647     3786.151           11 
    5000   0.18933973   -7.4659428    3717.4041           81 
    6000   0.18813762   -7.4830983    3704.1609          151 
    7000   0.19441671   -7.5039616    3704.1962          229 
    8000   0.18712802   -7.5206353    3707.0757          238 
    9000   0.19188624   -7.5173946    3697.1997          342 
   10000   0.18617957   -7.5210963    3694.7472          458 
   11000   0.19393881   -7.5320658    3693.2813          588 
   12000   0.19261284    -7.540297    3699.2948          645 
   13000   0.18965139   -7.5455884     3694.089          690 
   14000   0.19043919   -7.5370401    3691.5603          735 
   15000   0.18986858   -7.5481398    3692.3553          711 
   16000   0.19119848   -7.5469366    3694.5078          733 
   17000   0.19171145   -7.5462416    3690.3473          695 
   18000   0.18658932   -7.5492364    3689.2403          706 
   19000   0.18615986   -7.5413573    3692.4122          771 
   20000    0.1886923   -7.5510313    3689.7604          779 
   21000   0.18923062   -7.5404812     3686.346          759 
   22000   0.18838042   -7.5476484    3687.3722          800 
   23000   0.19291669   -7.5559531    3693.2882          738 
   24000   0.19109651   -7.5571352    3688.0759          812 
   25000   0.19020219   -7.5510738    3691.1488          778 
   26000   0.18729544   -7.5540816    3688.1149          786 
   27000   0.18766296   -7.5565843    3687.8797          754 
   28000    0.1868933     -7.55014    3684.6466          757 
   29000   0.18822363   -7.5592705    3695.3313          807 
   30000   0.19139765   -7.5558822    3691.7318          827 
   31000   0.19221641   -7.5626639    3690.2435          785 
   32000    0.1907116   -7.5600767    3690.0393          847 
   33000    0.1883425   -7.5560355    3688.9219          772 
   34000   0.18813064    -7.565911    3690.3479          850 
   35000   0.18571424   -7.5579333    3686.9717          847 
   36000   0.18756658   -7.5624298    3688.3375          827 
   37000   0.18812453    -7.564616    3690.3494          786 
   38000   0.19121246   -7.5708735    3689.8586          838 
   39000   0.18911132   -7.5665622    3688.0232          866 
   40000   0.19121808   -7.5620573    3689.3861          918 
   41000   0.18791473   -7.5673668    3685.2547          867 
   42000    0.1883648    -7.573201    3694.9135          888 
   43000   0.19004388   -7.5667414    3687.6962          905 
   44000   0.19141495   -7.5657828    3684.7832          837 
   45000    0.1873626   -7.5653543    3687.1963          954 
   46000   0.19317225   -7.5653397    3685.4162          931 
   47000   0.18708638   -7.5650539    3686.6313          953 
   48000   0.18759557   -7.5683073    3684.0084          930 
   49000   0.18479749   -7.5596698    3680.9959          933 
   50000   0.19549204   -7.5658493    3684.9285          867 
   51000   0.18850818   -7.5601442    3687.1721          962 
   52000   0.18686186   -7.5667512    3688.4176          929 
   53000   0.18942637    -7.579473    3689.5079          966 
   54000   0.18859263   -7.5733792    3684.3175          935 
   55000   0.18903717   -7.5695852    3691.1868          981 
   56000    0.1903202   -7.5696747    3684.9027          971 
   57000   0.19292322   -7.5637367    3680.3889          952 
   58000   0.19026582   -7.5675154    3686.9922          981 
   59000   0.19026276   -7.5764719    3684.8434         1008 
   60000   0.19147335   -7.5695504    3682.3101         1039 
   61000   0.19026541   -7.5738106    3682.4085         1026 
   62000   0.19022743   -7.5692066    3681.5632         1072 
   63000   0.19199151   -7.5697958    3684.2014         1025 
   64000   0.18896773   -7.5734163    3684.5938          976 
   65000   0.19265592   -7.5767495    3682.1687         1054 
   66000   0.19006434   -7.5754533    3686.6976         1061 
   67000    0.1903296   -7.5795155    3684.6844         1033 
   68000   0.18515453   -7.5861662    3688.1422         1011 
   69000   0.18814797   -7.5811153     3688.617         1065 
   70000   0.18726297   -7.5770337    3686.7991         1032 
   71000   0.19413629   -7.5709489    3680.8758         1012 
   72000   0.19063377   -7.5808386    3685.8687         1001 
   73000   0.18800456   -7.5674038    3676.7493         1033 
   74000   0.19242334   -7.5792934    3685.6221          977 
   75000   0.18819663   -7.5725783    3683.8317          972 
   76000   0.19301969   -7.5715042    3682.5338         1043 
   77000   0.19152607   -7.5777793    3681.6872         1024 
   78000   0.18663658   -7.5770485    3687.9272         1030 
   79000   0.18982685   -7.5796995     3686.398         1028 
   80000   0.18978053   -7.5779125    3685.1667         1036 
   81000   0.18826393     -7.58545    3687.3852         1024 
   82000   0.18519539   -7.5750352    3683.1433         1013 
   83000   0.19376906   -7.5815912    3682.5872         1062 
   84000    0.1903157   -7.5827093    3686.4909         1032 
   85000   0.19190398   -7.5905767    3691.2653         1069 
   86000   0.19466739   -7.5747866    3686.5072         1022 
   87000   0.19001744    -7.585486    3687.8026         1027 
   88000   0.19175877   -7.5814216    3686.8083         1019 
   89000   0.19023408   -7.5846004    3684.7762         1022 
   90000    0.1879303   -7.5826236      3683.39         1047 
   91000   0.19325032   -7.5822182    3684.7626         1045 
   92000   0.18949889   -7.5793231    3681.2124         1035 
   93000    0.1903986   -7.5744038    3682.7939         1027 
   94000   0.18637632   -7.5797595    3686.1002         1048 
   95000   0.18922083   -7.5746466    3685.6465         1013 
   96000   0.18971895   -7.5744473    3684.8478         1033 
   97000   0.19091389    -7.578618    3684.8037         1035 
   98000   0.18955701   -7.5769862    3684.7734         1040 
   99000   0.19045588   -7.5780302    3685.6692         1043 
  100000   0.19220362   -7.5822992    3684.9165          993 
  101000   0.19181541   -7.5868107    3683.9437         1059 
  102000   0.18859022   -7.5839852     3687.016         1037 
  103000   0.19093778   -7.5794184    3683.3658         1071 
  104000   0.19116599   -7.5767715    3685.1809         1045 
  105000   0.19177642   -7.5802821    3684.7273         1100 
  106000   0.19086829   -7.5821157    3685.3674         1028 
  107000   0.18642987    -7.583339    3684.9506         1058 
  108000   0.19353573   -7.5786008    3686.1466         1044 
  109000   0.18930653     -7.57859    3684.2437         1026 
  110000   0.18851099   -7.5755117    3682.6978         1059 
  111000   0.18898077   -7.5723421    3681.2828         1100 
  112000   0.19044382   -7.5801367    3681.0191         1031 
  113000   0.19388154   -7.5820675     3683.648          993 
  114000   0.18729062   -7.5790916    3683.9036         1048 
  115000   0.19081142   -7.5766195    3681.3164          998 
  116000   0.19439508   -7.5764735    3681.5773         1057 
  117000   0.19065679   -7.5861954    3684.8254         1013 
  118000   0.18811721   -7.5823461     3682.742         1053 
  119000   0.19253377   -7.5786864    3681.1145         1025 
  120000   0.19629214   -7.5737267    3682.4978         1081 
  121000   0.18969101   -7.5863849    3684.9292         1040 
  122000   0.19374675   -7.5744757    3684.4921         1077 
  123000   0.18921468   -7.5765824    3680.4561          996 
  124000   0.19067011   -7.5777344    3686.8045         1061 
  125000   0.18834888   -7.5769752    3686.9377         1066 
  126000   0.19147507    -7.585865    3687.5451         1052 
  127000    0.1898839   -7.5890413    3688.9206         1084 
  128000   0.18598171     -7.58582    3683.5617          992 
  129000   0.18848778   -7.5738911    3680.6892         1038 
  130000   0.18998418   -7.5756723    3685.5635         1032 
  131000   0.18565526   -7.5779996    3683.9836         1065 
  132000    0.1923764   -7.5825783    3686.2677         1119 
  133000   0.19081621   -7.5738089    3684.3208         1045 
  134000   0.19363036   -7.5812152    3685.1867         1046 
  135000    0.1914179   -7.5799626    3683.7548         1043 
  136000    0.1885397    -7.580551    3683.8661         1026 
  137000   0.18920376   -7.5752842    3683.9352          990 
  138000   0.19037798   -7.5741081    3682.1745         1042 
  139000   0.19027974   -7.5733686    3683.7615         1028 
  140000   0.18836235   -7.5819465    3680.0743         1080 
  141000   0.19099926   -7.5788664    3683.7037         1065 
  142000   0.18889195   -7.5793309    3683.9725         1053 
  143000   0.18587472   -7.5765813    3684.5305         1084 
  144000   0.19055244   -7.5853682    3688.9128         1051 
  145000   0.18991875   -7.5837607     3688.823         1069 
  146000   0.18774181    -7.576076    3680.0731         1079 
  147000   0.19409205   -7.5763947    3681.2492         1107 
  148000   0.18815783   -7.5767502    3684.3285         1087 
  149000   0.18886981    -7.580548    3679.0037         1078 
  150000    0.1913121   -7.5787231    3678.9995         1101 
  151000   0.19188536   -7.5811185    3681.3867         1051 
  152000   0.19231199   -7.5812095    3681.7159         1058 
  153000   0.18756194   -7.5778929    3679.5198         1090 
  154000   0.19150724   -7.5838695    3685.8948         1123 
  155000   0.18912818    -7.587838    3684.9246         1082 
  156000   0.18997721   -7.5856282    3687.7921         1029 
  157000   0.19145437   -7.5808149     3679.898         1151 
  158000   0.18952209   -7.5790353    3683.8021         1152 
  159000   0.18723161   -7.5800174     3679.183         1078 
  160000   0.18865387    -7.581876    3682.2434         1048 
  161000   0.18767637   -7.5858144    3684.1176         1127 
  162000   0.18853252   -7.5739428    3683.2846         1089 
  163000   0.18574743   -7.5852382    3684.8807         1142 
  164000   0.18685133   -7.5805609    3685.1892         1096 
  165000   0.18991675   -7.5817646     3684.265         1155 
  166000   0.19028029   -7.5878145    3683.6075         1127 
  167000   0.18609625   -7.5799111    3682.4745         1115 
  168000   0.19039293   -7.5878978     3683.654         1140 
  169000   0.19171966   -7.5804715    3685.1198         1094 
  170000   0.18657893   -7.5819957    3681.8702         1124 
  171000   0.19286831   -7.5835321    3684.5952         1101 
  172000    0.1884148   -7.5749633    3681.1928         1066 
  173000   0.19219742   -7.5764923    3680.4626         1074 
  174000   0.19161287   -7.5871967    3682.3162         1089 
  175000   0.18487302   -7.5850411    3684.9452         1091 
  176000   0.19145259   -7.5817013    3681.9885         1083 
  177000   0.19040211   -7.5953212    3685.8814         1136 
  178000   0.19230619   -7.5776809    3680.2243         1112 
  179000   0.18637599   -7.5809233    3682.0672         1171 
  180000   0.18697048   -7.5801107    3685.9438         1084 
  181000   0.18736437   -7.5867083    3683.8328         1097 
  182000   0.19195523   -7.5843047     3684.445         1068 
  183000   0.19046526   -7.5884899    3684.6042         1160 
  184000    0.1892431   -7.5849625    3684.9443         1127 
  185000   0.18743214   -7.5812221    3680.8954         1157 
  186000   0.18833563   -7.5826844    3685.1768         1086 
  187000   0.19309033   -7.5804912    3681.7751         1079 
  188000   0.19198097   -7.5877147    3681.4274         1082 
  189000   0.18642774     -7.57618    3683.7165         1066 
  190000   0.19202783   -7.5806881    3680.1417         1119 
  191000   0.18851228   -7.5908489    3679.2844         1126 
  192000   0.19056889    -7.579774     3677.225         1088 
  193000   0.19143917   -7.5758899    3678.0832         1129 
  194000   0.19217953   -7.5817414    3679.0532         1082 
  195000   0.18836515   -7.5794173    3678.3262         1106 
  196000   0.19319093   -7.5866913    3683.7104         1048 
  197000   0.19031404   -7.5840034    3686.7815         1156 
  198000   0.19177168   -7.5805532    3679.8858         1124 
  199000    0.1915758   -7.5800528    3680.1793         1024 
  200000   0.18681429   -7.5809599     3681.332         1079 
  201000   0.19328131   -7.5827579    3681.9749         1108 
  202000   0.19207267   -7.5836649    3681.2546         1065 
  203000   0.19529785   -7.5852246    3681.1228         1061 
  204000    0.1920514    -7.588914    3688.8954         1083 
  205000   0.18912965   -7.5849561    3682.0131         1085 
  206000   0.18531556   -7.5812043     3681.464         1127 
  207000   0.19034639   -7.5823587    3681.1986         1077 
  208000   0.18881823   -7.5713148     3674.693         1089 
  209000   0.18950963   -7.5881858    3687.8298         1059 
  210000   0.19184642   -7.5874438    3683.9309         1104 
  211000   0.19121706   -7.5811997    3684.8412         1092 
  212000   0.19120009   -7.5721344    3676.4599         1128 
  213000   0.18517267   -7.5925999    3682.9823         1094 
  214000   0.18797329   -7.5902251    3684.9156         1114 
  215000   0.19018959   -7.5816051    3680.6962         1106 
  216000   0.18857661       -7.579    3679.3333         1057 
  217000   0.19183816   -7.5841541    3681.9484         1093 
  218000   0.19299183   -7.5784531    3679.3303         1053 
  219000   0.18604778   -7.5931146    3686.2726         1038 
  220000   0.19067534   -7.5844912    3683.4837         1102 
  221000   0.19362474   -7.5802023    3680.9713         1086 
  222000   0.18968728   -7.5746344    3678.7222         1080 
  223000   0.19393955    -7.581482    3681.3248         1072 
  224000   0.19446055   -7.5841429     3682.892         1072 
  225000   0.19488789   -7.5713125    3680.5672         1110 
  226000   0.19310444    -7.598095    3688.6189         1136 
  227000   0.19003388   -7.5822554    3681.8511         1079 
  228000   0.18815841   -7.5894511     3686.325         1052 
  229000   0.18938508   -7.5926945    3681.8048         1116 
  230000   0.19053135   -7.5861446    3682.4512         1125 
  231000   0.18905405   -7.5807191     3684.754         1111 
  232000   0.18730471    -7.580333    3681.7469         1086 
  233000   0.19106196   -7.5820609    3682.6256         1089 
  234000    0.1886396   -7.5788889    3678.0472         1116 
  235000   0.19107642   -7.5886358     3681.921         1174 
  236000   0.19036302   -7.5739249    3681.3635         1109 
  237000   0.19014604    -7.588551    3680.2309         1091 
  238000   0.18767928   -7.5797626     3680.305         1076 
  239000   0.19190542   -7.5823155    3679.1716         1052 
  240000   0.19660553   -7.5886767    3682.6779         1078 
  241000   0.18731331   -7.5851344    3681.6416         1033 
  242000   0.19103208   -7.5871033    3683.6911         1092 
  243000   0.19197297   -7.5884314    3683.2417         1055 
  244000   0.18908711   -7.5808932    3679.5056          988 
  245000   0.18936209   -7.5857292    3683.4406         1069 
  246000   0.18947602   -7.5899165    3684.0247         1062 
  247000   0.18810803   -7.5833084    3685.2942         1112 
  248000   0.18545316   -7.5826566    3684.1006         1129 
  249000   0.18953254   -7.5812452    3681.2723         1070 
  250000   0.18907131   -7.5787858    3678.6513         1082 
  251000   0.18940782   -7.5808361    3678.6817         1029 
  252000   0.19164555   -7.5898765    3682.3254         1116 
  253000   0.19084012   -7.5812456    3681.5175         1068 
  254000   0.18657898   -7.5784345    3681.2321         1085 
  255000    0.1911466   -7.5886374     3682.064         1098 
  256000   0.18930865   -7.5858343    3684.8923         1070 
  257000   0.19212527   -7.5822516    3681.3887         1026 
  258000   0.18488998   -7.5849729    3684.0745         1074 
  259000   0.19220435   -7.5844583    3678.5014         1044 
  260000   0.18887752   -7.5815903    3683.9452         1079 
  261000   0.18820539   -7.5839199    3684.7271         1078 
  262000   0.19145499   -7.5788723    3681.3395         1073 
  263000   0.19346639   -7.5847044    3682.7276         1085 
  264000   0.19271283   -7.5764543    3678.2596         1095 
  265000   0.18490425   -7.5876337    3682.0989         1094 
  266000   0.18641383    -7.592037    3688.0823         1046 
  267000   0.18936454   -7.5858308    3683.0798         1085 
  268000   0.18863439   -7.5867437    3685.2398         1125 
  269000   0.19306516   -7.5872723    3683.9233         1093 
  270000   0.19117641   -7.5920718    3685.5231         1077 
  271000   0.18988213   -7.5882078    3685.1583         1053 
  272000   0.19136123   -7.5792307    3682.5626         1063 
  273000   0.19269557   -7.5873066    3682.9037         1056 
  274000   0.18704091   -7.5859372    3683.4823         1095 
  275000   0.18553398   -7.5768867    3677.8144         1121 
  276000    0.1881236   -7.5826313    3681.5238         1104 
  277000    0.1905706   -7.5831024     3681.662         1084 
  278000   0.19122096   -7.5876009    3683.4364         1056 
  279000   0.18910492   -7.5855325    3686.5603         1085 
  280000   0.18635459   -7.5854072    3688.1691         1079 
  281000   0.19210442   -7.5814596    3685.0484         1071 
  282000   0.19042081   -7.5784655    3677.8835         1042 
  283000   0.19340767   -7.5819238     3684.222         1030 
  284000   0.19047282   -7.5880716    3683.7858         1053 
  285000   0.19276214   -7.5754498    3676.2478         1066 
  286000   0.19065953   -7.5822261    3683.9039         1054 
  287000   0.18932131    -7.584773     3684.522         1073 
  288000   0.19030373   -7.5910718    3681.3293         1056 
  289000   0.19056758   -7.5924171    3684.5885         1093 
  290000    0.1905425   -7.5831046    3682.4324         1074 
  291000   0.18639537   -7.5799074    3683.3104         1060 
  292000   0.18941841   -7.5792449    3682.5365         1061 
  293000   0.18988365   -7.5830778    3680.6572         1058 
  294000   0.19228599   -7.5838773    3681.8131         1073 
  295000   0.18910192   -7.5848818    3681.6528         1089 
  296000   0.19171836   -7.5836314     3680.645         1073 
  297000   0.18464618   -7.5885571    3680.7805         1046 
  298000   0.19038112   -7.5800078    3680.7434         1080 
  299000   0.19263549   -7.5857347    3686.1586         1078 
  300000   0.19087837   -7.5777651    3682.7604         1050 
  301000   0.18970095   -7.5793418    3682.6897         1116 
  302000   0.18902169   -7.5777413     3680.948         1042 
  303000   0.18632171   -7.5814839    3684.4466         1071 
  304000   0.18411715   -7.5823804    3681.9404         1082 
  305000   0.18662014   -7.5865737    3682.5346         1075 
  306000   0.18830014   -7.5769506    3682.4786         1097 
  307000   0.18614394   -7.5909562    3686.3062         1126 
  308000   0.18889138   -7.5867201    3681.8158         1127 
  309000   0.18738755   -7.5885838    3684.5453         1068 
  310000   0.18536044   -7.5843369     3684.471         1141 
  311000   0.18611028   -7.5814294    3683.1489         1115 
  312000    0.1953691   -7.5829556    3680.0937         1135 
  313000    0.1930391   -7.5853715    3679.4602         1105 
  314000   0.19084011   -7.5856101    3683.5384         1156 
  315000    0.1877844   -7.5881743    3687.2323         1082 
  316000   0.18950319   -7.5810146    3685.2503         1121 
  317000   0.18891198   -7.5797152    3678.9245         1119 
  318000   0.18684138   -7.5844378    3684.0259         1139 
  319000   0.19134204   -7.5846579    3679.6394         1140 
  320000   0.18722965   -7.5847589    3682.2556         1174 
  321000    0.1903846   -7.5899312     3683.172         1118 
  322000   0.19118532   -7.5867358    3682.1488         1145 
  323000   0.19276039   -7.5849564    3681.3319         1158 
  324000   0.19016107   -7.5862434    3680.7443         1184 
  325000    0.1891753   -7.5785254    3681.2143         1148 
  326000   0.19242181   -7.5838171    3679.5767         1178 
  327000   0.19004191   -7.5881557    3682.0838         1138 
  328000   0.18588971   -7.5973456    3679.8896         1149 
  329000   0.19268318    -7.598088    3684.9098         1155 
  330000   0.19159621   -7.5984961    3686.6936         1117 
  331000   0.19047142   -7.5868968    3682.0474         1132 
  332000   0.19157142   -7.5831699    3682.0684         1150 
  333000   0.19267356   -7.5785775    3677.1495         1167 
  334000    0.1922964    -7.587291    3680.3913         1165 
  335000   0.19125346   -7.5870521    3681.3178         1121 
  336000   0.18732023   -7.5751237    3679.6298         1111 
  337000   0.18380649   -7.5846424     3680.681         1151 
  338000   0.19045546   -7.5832072    3679.5494         1184 
  339000   0.18727379   -7.5898377    3682.2891         1124 
  340000   0.19021742   -7.5924516    3682.0787         1163 
  341000   0.19437594   -7.5919988    3686.2062         1132 
  342000   0.19112868   -7.5898604     3685.704         1116 
  343000   0.18721921   -7.5879258    3683.4478         1160 
  344000   0.18686191   -7.5912719    3684.7286         1171 
  345000   0.18791017   -7.5872088    3680.4641         1212 
  346000   0.18830386   -7.5902589    3684.6769         1206 
  347000   0.18675552   -7.5899856    3682.1065         1193 
  348000   0.19198887   -7.5815742    3680.8445         1167 
  349000   0.19149777   -7.5849951    3678.7315         1162 
  350000   0.18889982   -7.5844852    3682.2752         1138 
  351000   0.18830174   -7.5869191    3681.4578         1161 
  352000   0.19088362   -7.5849482    3681.6522         1158 
  353000   0.18947284   -7.5848591    3684.0147         1148 
  354000   0.19295156   -7.5875094    3681.4939         1138 
  355000   0.19337297   -7.5863396    3684.4605         1145 
  356000   0.19143019    -7.583638    3684.3549         1134 
  357000   0.19007955    -7.585946    3680.9321         1161 
  358000   0.19085403   -7.5834262    3682.4177         1109 
  359000    0.1882931    -7.582091    3678.9787         1098 
  360000   0.19051386   -7.5875906    3682.2539         1107 
  361000   0.19269163   -7.5912109    3684.9496         1158 
  362000   0.19207407   -7.5854694    3681.3711         1174 
  363000   0.18798182   -7.5873552    3682.1278         1146 
  364000   0.18582796    -7.585985    3683.3387         1210 
  365000     0.193472   -7.5887055    3680.7452         1149 
  366000   0.19549769   -7.5863706    3683.6644         1140 
  367000   0.19176636   -7.5886827    3683.1937         1156 
  368000    0.1908015   -7.5939675    3687.7042         1170 
  369000   0.19436208   -7.5809291    3679.3687         1194 
  370000   0.18765678   -7.5830414    3681.5601         1162 
  371000   0.18629332   -7.5744378    3676.5935         1141 
  372000   0.19260022   -7.5922897    3687.6561         1179 
  373000   0.18839346     -7.58659    3685.0607         1149 
  374000   0.19188397    -7.582153    3680.0519         1150 
  375000   0.19130994   -7.5850875    3680.8991         1132 
  376000    0.1804901   -7.5910989     3683.325         1186 
  377000    0.1899352   -7.5895309    3681.0702         1147 
  378000   0.19006169   -7.5803349    3675.2989         1112 
  379000    0.1910685    -7.582863    3680.0595         1163 
  380000   0.18761426   -7.5821732    3683.6375         1155 
  381000   0.18710589   -7.5875215      3682.22         1107 
  382000   0.18469669   -7.5785871    3679.4663         1142 
  383000    0.1879725   -7.5917427    3683.5613         1096 
  384000   0.18391237   -7.5854954    3683.7823         1167 
  385000   0.18907093   -7.5846084    3682.2713         1158 
  386000   0.18926618   -7.5887437    3686.2835         1130 
  387000   0.18862184   -7.5916674    3684.2931         1137 
  388000   0.18891641    -7.587725    3682.9484         1143 
  389000    0.1874057   -7.5873325    3680.1459         1134 
  390000   0.19205768   -7.5814257    3677.8231         1173 
  391000   0.18988429    -7.578985    3677.0861         1170 
  392000   0.18717794    -7.589515     3681.969         1190 
  393000   0.18840648   -7.5910591     3680.723         1150 
  394000   0.18901202   -7.5812577    3679.7891         1163 
  395000   0.18643965   -7.5875832     3681.336         1160 
  396000   0.18787472   -7.5893469    3684.0031         1145 
  397000   0.18768895   -7.5939113    3686.2859         1155 
  398000   0.19332508   -7.5860076    3683.8894         1174 
  399000   0.18526455   -7.5865312    3680.9807         1140 
  400000   0.18858379   -7.5820958    3680.7962         1138 
  401000   0.18935806   -7.5862181    3681.1022         1135 
  402000   0.18740965   -7.5866508    3681.1464         1163 
  403000   0.18774712   -7.5892359    3682.5058         1125 
  404000   0.18629391    -7.585523     3683.686         1140 
  405000   0.18837317   -7.5834812    3680.8276         1132 
  406000    0.1884981   -7.5842439    3682.7192         1133 
  407000   0.18660495   -7.5849077    3685.8077         1226 
  408000   0.19222924   -7.5911017    3683.4994         1169 
  409000   0.18790902   -7.5876592    3681.5028         1146 
  410000   0.18733622   -7.5909988    3684.2933         1163 
  411000   0.18622611   -7.5815718    3680.1565         1161 
  412000   0.19460542   -7.5891959    3684.3107         1190 
  413000   0.19204676    -7.584514    3679.5935         1127 
  414000   0.18714075   -7.5897524     3684.118         1140 
  415000   0.19142401   -7.5887881    3679.8091         1167 
  416000   0.18890778   -7.5845935    3681.7315         1186 
  417000   0.19281363   -7.5858115    3684.7188         1148 
  418000   0.18839842   -7.5900141    3686.2616         1188 
  419000   0.19039358    -7.576782     3678.934         1123 
  420000   0.18605701   -7.5881045    3686.2743         1152 
  421000   0.18692207   -7.5966439     3684.012         1153 
  422000   0.18817161   -7.5853926    3679.8536         1149 
  423000   0.19204021   -7.5766405    3682.1724         1187 
  424000   0.18880307   -7.5781877    3678.0976         1148 
  425000   0.19063279    -7.591748    3683.4119         1134 
  426000   0.19295491   -7.5915161     3686.526         1159 
  427000   0.18744131   -7.5884176      3684.46         1178 
  428000   0.18880297   -7.5817584     3683.855         1143 
  429000   0.18591479   -7.5884759    3680.3544         1152 
  430000   0.18948908   -7.5883653    3682.8544         1145 
  431000   0.18915475   -7.5851768    3683.3262         1171 
  432000   0.19359764   -7.5895707    3680.0564         1196 
  433000   0.19195073   -7.5727359     3673.662         1182 
  434000   0.19536985   -7.5887568    3679.8076         1153 
  435000   0.18782564    -7.570827    3680.5615         1147 
  436000   0.19101099   -7.5863376    3679.3962         1144 
  437000   0.18739557   -7.5880086    3682.4597         1168 
  438000   0.18955536   -7.5925796    3683.9535         1190 
  439000   0.18823984   -7.5883828    3686.7145         1174 
  440000   0.19086409   -7.5955309     3684.029         1156 
  441000   0.19161315   -7.5883079    3683.1102         1126 
  442000   0.19344759   -7.5865719    3681.1413         1159 
  443000   0.18668046   -7.5816963    3674.9963         1159 
  444000   0.18617862   -7.5842438     3680.742         1166 
  445000   0.18875949     -7.59034     3683.357         1169 
  446000   0.18820169   -7.5899592    3685.3628         1128 
  447000   0.19110856   -7.5902487    3680.3739         1175 
  448000   0.19056933   -7.5934269    3685.9244         1161 
  449000   0.18712273   -7.5905423     3683.498         1134 
  450000   0.19054494   -7.5916306    3683.6802         1190 
  451000   0.19058666    -7.590456    3683.8075         1189 
  452000   0.18636214    -7.584882     3679.434         1175 
  453000   0.19273501   -7.5841916    3681.6425         1161 
  454000   0.18840944   -7.5855573      3681.08         1169 
  455000    0.1918963    -7.591616    3679.3335         1167 
  456000   0.19032689   -7.5864161    3676.9101         1165 
  457000   0.18965696   -7.5879838    3679.2909         1188 
  458000    0.1896375   -7.5789441    3677.5381         1157 
  459000   0.19022053   -7.5848669    3679.1889         1160 
  460000   0.19301157   -7.5854148    3680.4382         1156 
  461000   0.19088173   -7.5831992    3679.8073         1170 
  462000   0.18998162   -7.5864068     3680.424         1192 
  463000   0.19402713   -7.5856651    3681.2126         1179 
  464000   0.18723925   -7.5813324    3674.2232         1149 
  465000   0.19169328    -7.579693     3681.287         1181 
  466000   0.18692846   -7.5877919    3679.6761         1146 
  467000    0.1879316   -7.5850546    3680.9457         1174 
  468000     0.191907   -7.5846194    3681.2283         1184 
  469000   0.19338236   -7.5909267    3683.3636         1145 
  470000   0.18577345   -7.5815607    3681.2166         1195 
  471000   0.18977198   -7.5876286     3683.354         1192 
  472000   0.19326702   -7.5809383    3678.5682         1195 
  473000   0.18939596   -7.5822915    3681.6214         1126 
  474000   0.18690939   -7.5841763    3682.3239         1162 
  475000    0.1880825   -7.5872926     3679.783         1176 
  476000   0.19057396    -7.587461    3681.0462         1182 
  477000   0.18642001   -7.5881296    3684.1267         1153 
  478000   0.18988583    -7.586302    3683.1649         1226 
  479000   0.19207227   -7.5860524    3683.8075         1186 
  480000   0.19093021   -7.5877833    3681.6315         1208 
  481000    0.1911328   -7.5966328    3686.9929         1205 
  482000   0.19010327   -7.5892696    3680.4499         1200 
  483000   0.18629061   -7.5846725    3678.3895         1211 
  484000   0.19002958   -7.5880155    3683.0849         1229 
  485000   0.19209139   -7.5858027     3681.747         1184 
  486000   0.19358622   -7.5918753    3682.1309         1219 
  487000   0.19348163   -7.5923836    3683.2682         1247 
  488000   0.18650165   -7.5868306    3677.3345         1198 
  489000   0.18996171   -7.5916518    3684.4915         1219 
  490000   0.19478116   -7.5853619    3679.8078         1232 
  491000   0.18703465   -7.5925804    3683.1032         1209 
  492000   0.19156498    -7.586467    3678.7577         1194 
  493000   0.18797666   -7.5775246    3680.3397         1252 
  494000    0.1864393   -7.5872837    3680.8594         1208 
  495000    0.1883851   -7.5967879    3688.3643         1232 
  496000   0.18700728   -7.5828854    3680.5584         1206 
  497000    0.1893814   -7.5866495    3684.0699         1219 
  498000   0.19285407   -7.5940151    3684.4956         1250 
  499000   0.18957536   -7.5861365    3682.1046         1217 
  500000   0.19248733   -7.5863875    3686.6168         1222 
  501000   0.18996638   -7.5917205    3683.2601         1198 
  502000   0.18648906   -7.5842893    3683.2545         1214 
  503000   0.19005647   -7.5901922    3681.4023         1235 
  504000   0.19079419   -7.5854022     3684.581         1200 
  505000   0.18843326   -7.5833815     3681.971         1217 
  506000   0.19329642   -7.5896199    3681.2877         1235 
  507000   0.18591856   -7.5866556    3677.1938         1228 
  508000    0.1896771   -7.5899588    3682.2882         1226 
  509000   0.19198004   -7.5887101    3677.7591         1220 
  510000   0.18718098   -7.5874982    3683.8409         1254 
  511000   0.18725263   -7.5888866    3681.1896         1196 
  512000   0.18721211   -7.5933087    3684.4195         1203 
  513000   0.18999522   -7.5877572    3679.4301         1199 
  514000   0.18833288   -7.5781715    3679.4503         1195 
  515000   0.18689375   -7.5876931    3681.2432         1250 
  516000   0.19301501   -7.5921299    3686.4471         1235 
  517000   0.18784416   -7.5824623    3677.7318         1214 
  518000     0.191065   -7.5882449    3681.5987         1201 
  519000   0.18992635   -7.5865041     3679.834         1217 
  520000    0.1918654   -7.5940457    3683.0981         1223 
  521000    0.1907695   -7.5924943    3679.9606         1193 
  522000   0.18540801   -7.5836637     3683.132         1231 
  523000   0.18571704   -7.5840327    3677.5783         1182 
  524000   0.18937654   -7.5901965    3682.8655         1177 
  525000    0.1882717   -7.5889117    3680.3739         1214 
  526000   0.18730621    -7.593108    3683.2016         1212 
  527000   0.19377404   -7.5900573    3682.8851         1230 
  528000   0.18681502   -7.5872748    3684.2633         1220 
  529000   0.19099467    -7.592371    3680.8402         1206 
  530000   0.18924679   -7.5920517    3681.7388         1232 
  531000   0.19092669   -7.5842537    3685.8452         1203 
  532000   0.19089158   -7.5817367    3674.8501         1190 
  533000   0.19151137   -7.5892271    3678.1801         1242 
  534000   0.18844368   -7.5888248    3680.2593         1248 
  535000   0.18946573    -7.589397    3683.2553         1206 
  536000   0.18531906   -7.5930616    3680.9091         1205 
  537000   0.19340049   -7.5893434    3681.1655         1167 
  538000   0.18925514   -7.5882631    3679.2854         1220 
  539000    0.1877386   -7.5854589    3679.5621         1170 
  540000   0.18755007   -7.5810235    3680.7152         1252 
  541000   0.19046703   -7.5900182     3680.842         1269 
  542000   0.18933556   -7.5809603    3677.1371         1186 
  543000   0.18564863   -7.5816288    3678.6842         1215 
  544000   0.18748983   -7.5889769    3678.3386         1226 
  545000    0.1882929   -7.5941387    3683.2412         1159 
  546000   0.18708558   -7.5975286    3689.4534         1236 
  547000   0.18921409   -7.5853025    3682.2639         1228 
  548000    0.1895117   -7.5818432    3678.7369         1203 
  549000   0.18693803   -7.5885847    3679.1212         1219 
  550000    0.1881859   -7.5906853    3677.0234         1232 
  551000   0.19033537   -7.5984375    3687.1871         1212 
  552000   0.19177792   -7.5948608    3686.8361         1257 
  553000   0.19365429   -7.5957312    3679.4484         1230 
  554000   0.18830573   -7.5877071    3676.7553         1191 
  555000   0.18901163   -7.5833534     3680.579         1188 
  556000   0.18846218   -7.5778409    3674.7495         1220 
  557000   0.18894006   -7.5859364    3679.3457         1193 
  558000   0.18285038   -7.5893209    3682.3534         1192 
  559000   0.19033698   -7.5851575    3678.0097         1218 
  560000    0.1880358   -7.5843889    3678.8674         1186 
  561000   0.18868058   -7.5889866    3679.5079         1198 
  562000   0.19106889   -7.5959702    3688.1086         1206 
  563000   0.18970878   -7.5894929    3682.0092         1204 
  564000   0.18843971   -7.5921045    3683.9326         1135 
  565000   0.18911745    -7.591227    3681.8031         1223 
  566000   0.18831979   -7.5933771    3685.3207         1162 
  567000   0.18928615   -7.5880087    3680.0415         1226 
  568000   0.18974632    -7.590566      3682.39         1221 
  569000    0.1881414   -7.5950628    3684.4199         1200 
  570000   0.18827779   -7.5856555    3680.6828         1234 
  571000   0.19034296   -7.5835298    3680.2494         1232 
  572000   0.19432219   -7.5796926    3677.4213         1193 
  573000   0.18738905   -7.5866756    3679.9611         1212 
  574000   0.19317242   -7.5830764    3678.6317         1225 
  575000   0.18853355   -7.5851769    3681.8073         1199 
  576000   0.19236335   -7.5934378    3684.0838         1197 
  577000   0.18870692   -7.5872126    3681.6633         1215 
  578000   0.19067429   -7.5768904    3673.8715         1244 
  579000   0.18692068   -7.5899884     3680.372         1206 
  580000    0.1912354   -7.5861026    3681.2661         1243 
  581000   0.19230361   -7.5859751    3679.0912         1236 
  582000    0.1907288   -7.6016511    3682.3331         1222 
  583000    0.1864546   -7.5912147    3682.2295         1270 
  584000   0.18799053   -7.5873389    3678.2441         1258 
  585000   0.18910098   -7.5914918    3677.3834         1242 
  586000     0.186284   -7.5883804    3678.4271         1223 
  587000   0.18916071   -7.5919662    3679.2017         1240 
  588000    0.1930833   -7.5922965    3684.5634         1184 
  589000   0.18900268   -7.5970676    3680.5818         1293 
  590000   0.18844419   -7.5967716    3682.9702         1281 
  591000   0.19041267   -7.5908732    3682.0697         1280 
  592000   0.19172999   -7.5906999    3679.9695         1248 
  593000   0.18843254   -7.5936408    3679.8644         1273 
  594000   0.18932681   -7.5957632     3681.093         1276 
  595000   0.18826556    -7.587127    3681.5014         1252 
  596000   0.19099917   -7.5906546    3676.2856         1278 
  597000   0.19053157   -7.5934423    3679.0779         1258 
  598000    0.1906317   -7.5912923    3678.4642         1249 
  599000    0.1915025   -7.5861254    3677.0814         1286 
  600000   0.19163926   -7.5907172    3683.3601         1254 
  601000   0.18701074   -7.5953541    3682.4889         1276 
  602000   0.18849426   -7.5978087     3679.947         1265 
  603000   0.19025612   -7.5892559    3680.4209         1266 
  604000   0.18961526   -7.5868936    3677.3566         1280 
  605000   0.19156441   -7.5918216    3679.3678         1226 
  606000   0.18923977   -7.5926416    3676.8776         1206 
  607000   0.19131421   -7.5895738    3676.8746         1254 
  608000   0.18974661   -7.5957678    3684.7551         1227 
  609000   0.18850698   -7.6011328    3684.0129         1217 
  610000   0.19087326   -7.5981494    3686.4651         1251 
  611000   0.18943156   -7.5956929    3684.0081         1204 
  612000   0.19126749   -7.6006691    3681.5571         1220 
  613000   0.18798819   -7.5915663    3676.8255         1275 
  614000   0.19126115   -7.5923516    3677.2666         1267 
  615000   0.19272084   -7.5963224    3678.2881         1268 
  616000   0.19087142   -7.5987396    3679.5346         1278 
  617000   0.18529195   -7.5911189    3679.7515         1236 
  618000   0.18800737   -7.6000082    3679.1907         1286 
  619000   0.19074625   -7.5894186     3677.268         1279 
  620000   0.19407056   -7.5964774    3675.7127         1347 
  621000   0.18573114     -7.60649    3682.1262         1353 
  622000   0.18735365   -7.5986338    3680.9817         1355 
  623000   0.19006777   -7.5954029     3680.909         1375 
  624000   0.18990746   -7.5930198    3675.8117         1381 
  625000   0.19233424    -7.592484    3677.8749         1332 
  626000   0.19202234   -7.5934358    3678.1027         1361 
  627000   0.19045079   -7.5971896    3680.4599         1354 
  628000   0.19420318    -7.592146    3677.0872         1297 
  629000   0.19020515   -7.6035484    3679.8373         1309 
  630000   0.19565046   -7.5972615    3679.0174         1308 
  631000   0.18742393   -7.6042267     3678.148         1304 
  632000   0.18967676    -7.592169    3677.6546         1341 
  633000   0.18642314    -7.590803    3674.0368         1286 
  634000   0.19260591   -7.5942364    3674.8063         1389 
  635000   0.19228724   -7.5919452    3676.5161         1367 
  636000   0.19168576   -7.5919633    3673.9556         1426 
  637000   0.18621446   -7.5892112    3677.6624         1405 
  638000   0.19107326   -7.5935576    3679.0951         1386 
  639000    0.1956666   -7.5940354    3680.0027         1378 
  640000   0.18544908   -7.5927078    3678.2285         1373 
  641000   0.18603804   -7.5922239    3677.2209         1314 
  642000    0.1891735   -7.5923179    3678.3852         1384 
  643000   0.19132697   -7.5987222    3681.1606         1334 
  644000   0.18912245   -7.5991866    3678.1234         1352 
  645000   0.19029988   -7.6020028    3680.7016         1367 
  646000    0.1867789   -7.6004464    3678.3306         1401 
  647000   0.19046101   -7.5925872    3677.1888         1370 
  648000   0.18914834    -7.596526    3676.6648         1439 
  649000   0.19265776   -7.5966567    3672.6904         1396 
  650000   0.19059621   -7.6045498     3681.234         1389 
  651000   0.18919088   -7.6025479    3681.7619         1399 
  652000   0.18782437   -7.5986915     3681.407         1434 
  653000   0.19273293   -7.5944442    3679.8732         1439 
  654000   0.19068311   -7.5978589    3679.0565         1414 
  655000   0.19049176   -7.5890468    3676.1355         1443 
  656000   0.18756221   -7.5990159    3676.7653         1425 
  657000   0.19092499   -7.5963183    3678.4726         1455 
  658000   0.19237764   -7.5956299    3674.4859         1494 
  659000   0.19093387   -7.5933852     3674.931         1424 
  660000   0.18721844   -7.5921827    3675.4433         1405 
  661000    0.1886382   -7.6003354    3675.2683         1431 
  662000   0.19005918   -7.6029277    3681.8348         1438 
  663000   0.19146656   -7.6047886    3679.6603         1453 
  664000    0.1910118   -7.5921887    3681.5573         1424 
  665000   0.19136964   -7.6030123    3680.8646         1425 
  666000   0.19124691   -7.6055445    3680.1906         1493 
  667000   0.18937182   -7.6000002    3678.1623         1446 
  668000   0.18572471   -7.6021833    3676.3541         1461 
  669000   0.18740678   -7.6030249    3677.6291         1455 
  670000   0.19259847   -7.5952352    3675.3991         1455 
  671000   0.18778516   -7.6027652    3682.4689         1465 
  672000   0.18606927   -7.6006356    3682.9083         1488 
  673000   0.19448597    -7.611269    3683.9078         1452 
  674000   0.19270493   -7.5947017    3674.9603         1497 
  675000   0.18718414   -7.6024329    3676.7174         1472 
  676000   0.19163352   -7.5960549    3678.4308         1475 
  677000     0.193669   -7.6063302    3684.3984         1483 
  678000   0.18563975   -7.5975737    3676.4536         1508 
  679000   0.18980922     -7.60718    3678.7023         1493 
  680000   0.18833477   -7.5982046    3675.8348         1487 
  681000   0.19084082   -7.6054423    3681.7479         1541 
  682000   0.18945793   -7.6048278    3679.5324         1549 
  683000   0.18424449    -7.594435    3677.6325         1519 
  684000   0.19227677   -7.5998766    3673.5889         1529 
  685000   0.18762316   -7.6006568    3676.9982         1493 
  686000   0.19255131   -7.5914339     3673.243         1522 
  687000   0.19161482   -7.5987997    3676.0885         1516 
  688000   0.19106753    -7.605735    3679.9446         1496 
  689000   0.19453555   -7.5995234    3673.5761         1540 
  690000   0.18698326   -7.5988412    3677.4377         1512 
  691000   0.18770509   -7.6000469    3676.0181         1513 
  692000   0.18983972   -7.5969841    3675.9296         1535 
  693000   0.19517127   -7.6039615    3680.6991         1550 
  694000   0.18858707    -7.600194    3679.9381         1526 
  695000   0.18726831   -7.6032568    3680.0289         1500 
  696000    0.1877704   -7.5971825    3677.1505         1488 
  697000   0.19365519   -7.6047474    3682.7471         1501 
  698000    0.1952846   -7.6076749    3676.7356         1537 
  699000   0.18986864   -7.6032674    3678.3025         1541 
  700000   0.19066464    -7.603989    3681.9746         1552 
  701000   0.19329426   -7.6061635     3679.766         1518 
  702000   0.18939949     -7.60354    3680.3587         1525 
  703000   0.18790262   -7.6042516    3679.2343         1489 
  704000   0.19017644   -7.5962663    3671.4217         1557 
  705000   0.19103813   -7.6020515    3687.9588         1558 
  706000   0.19324833   -7.5942333    3675.8624         1535 
  707000   0.19127183   -7.6023313     3674.097         1525 
  708000   0.19386907   -7.6001565    3676.1668         1525 
  709000   0.18771267   -7.6010339    3676.3415         1518 
  710000   0.19200153   -7.6078978    3680.9775         1562 
  711000   0.19019668   -7.6067183      3678.38         1554 
  712000   0.18785612   -7.6031123    3679.7488         1591 
  713000   0.19122594   -7.6011787    3676.2762         1588 
  714000   0.19234141   -7.5927233     3675.696         1577 
  715000   0.18938604   -7.6014012    3677.1513         1585 
  716000   0.18886271   -7.5953818    3675.6037         1593 
  717000   0.19063101   -7.6045905    3677.7584         1512 
  718000   0.19308308   -7.6078465    3681.0605         1553 
  719000   0.19375541   -7.6032531    3677.0461         1559 
  720000   0.19247981   -7.6015806    3677.6426         1580 
  721000   0.18840212   -7.6086296    3680.3387         1579 
  722000   0.19243171   -7.6082411    3677.7582         1637 
  723000   0.19121581   -7.6085695    3677.4288         1652 
  724000   0.18631694   -7.6086202    3678.6906         1627 
  725000   0.19049697    -7.615806    3682.4466         1638 
  726000   0.18807303   -7.6097884    3679.5801         1661 
  727000   0.18695505   -7.6054763    3675.7916         1572 
  728000   0.19150138   -7.6036333    3679.4357         1634 
  729000    0.1877873   -7.5982145    3677.8897         1641 
  730000    0.1899262   -7.5947924    3673.3942         1613 
  731000   0.18916358   -7.5933163    3670.2546         1623 
  732000   0.18755274   -7.6019637    3678.9869         1564 
  733000    0.1875611   -7.6006448    3677.8587         1616 
  734000   0.19121801   -7.6042778     3676.428         1671 
  735000   0.18924165   -7.6097745    3680.0038         1671 
  736000   0.18878733   -7.6013543    3675.3026         1670 
  737000   0.18522529   -7.6078047    3675.2474         1605 
  738000   0.19190051   -7.5966984    3673.1473         1610 
  739000   0.18753248   -7.6086934    3676.9499         1603 
  740000   0.18525525   -7.6086008    3683.2315         1665 
  741000   0.18526826   -7.6047647    3678.5742         1589 
  742000    0.1930187   -7.6101292    3677.0463         1651 
  743000   0.18868816   -7.6023761    3678.0471         1673 
  744000    0.1894452   -7.6061754    3680.1072         1630 
  745000   0.19120131   -7.6019793    3675.1509         1701 
  746000   0.18811033   -7.6047652     3675.268         1654 
  747000   0.19119651   -7.6088882    3678.2973         1654 
  748000   0.19101964   -7.6111141     3680.081         1662 
  749000    0.1910101   -7.6101719     3677.666         1653 
  750000   0.18808634   -7.6139067    3676.3804         1637 
  751000    0.1923883   -7.6016499    3678.2562         1657 
  752000   0.18730344   -7.6057003    3679.7062         1662 
  753000   0.18876919    -7.608452    3674.3259         1632 
  754000   0.18536497   -7.5913299    3670.6355         1596 
  755000   0.19125311   -7.6053089    3680.7437         1624 
  756000   0.19186318   -7.6081355     3680.842         1596 
  757000   0.18523604   -7.6137396    3680.4034         1618 
  758000     0.194331   -7.6025075    3678.4317         1629 
  759000   0.19251912   -7.6111472    3675.8336         1605 
  760000   0.18719697   -7.6075706    3679.0135         1639 
  761000   0.19112352   -7.6067353    3671.1915         1651 
  762000   0.19048309   -7.6017446    3676.7781         1590 
  763000   0.19221026   -7.6085922    3682.0249         1635 
  764000   0.18812824   -7.6021691    3675.8607         1675 
  765000    0.1903162   -7.6018294    3675.5823         1597 
  766000   0.19130508    -7.603123    3676.9635         1666 
  767000   0.19079687   -7.6053218    3678.7975         1686 
  768000   0.19067223   -7.5978717    3670.9799         1658 
  769000   0.19007417   -7.6081737    3673.6816         1705 
  770000   0.18756012   -7.6153727     3676.526         1651 
  771000   0.19091146   -7.6123322    3680.1164         1664 
  772000   0.18775231   -7.6079913    3677.6544         1652 
  773000   0.18889502   -7.6122918    3682.2398         1661 
  774000   0.19426041   -7.6067579    3681.4582         1699 
  775000    0.1935425   -7.6066495    3675.5033         1640 
  776000   0.18949462   -7.6092665    3677.3469         1657 
  777000   0.18659728   -7.6013146    3671.1952         1704 
  778000    0.1893667   -7.6091225    3676.7797         1730 
  779000    0.1898793   -7.6043782    3670.3069         1726 
  780000   0.18882697   -7.6063741    3678.1145         1745 
  781000    0.1886806   -7.6151271    3684.1917         1746 
  782000   0.19096683   -7.6036956    3679.1237         1717 
  783000   0.18964733   -7.6149163     3682.019         1717 
  784000    0.1909494   -7.6046451     3677.093         1692 
  785000   0.18899813   -7.5993974    3671.4828         1772 
  786000   0.19171054   -7.6043361    3671.1135         1706 
  787000    0.1919697   -7.6115572    3675.2918         1728 
  788000   0.18771445   -7.6056159    3674.6332         1732 
  789000   0.19033271   -7.6120767    3679.7889         1681 
  790000   0.19181262   -7.6038014    3676.6949         1686 
  791000    0.1870203   -7.6051586     3676.214         1701 
  792000    0.1951763   -7.6057789    3677.2982         1732 
  793000   0.18879368   -7.6106584    3675.2028         1698 
  794000   0.18834654   -7.6153761    3676.5203         1708 
  795000   0.18797263   -7.6116993    3674.3333         1707 
  796000   0.19337221    -7.612421    3677.2995         1754 
  797000   0.18919181   -7.6119151    3679.1819         1757 
  798000   0.19351356   -7.6135998    3677.3494         1699 
  799000   0.18403845   -7.6110341    3676.7259         1732 
  800000   0.19137794   -7.6047638    3672.3213         1672 
  801000    0.1890012   -7.6005905    3670.8098         1726 
  802000   0.18885625   -7.6129497    3679.0611         1731 
  803000   0.18921193   -7.6107679    3672.0317         1643 
  804000   0.18592344   -7.6076334    3673.7827         1685 
  805000   0.19294286   -7.6080251    3672.4589         1706 
  806000   0.18851471   -7.6106635    3674.8641         1694 
  807000   0.18860194   -7.6131881    3676.9888         1683 
  808000   0.18960193   -7.6069962    3678.1899         1746 
  809000   0.18989985   -7.6157342    3677.7879         1749 
  810000   0.18890771   -7.6136805    3676.0533         1750 
  811000    0.1891669   -7.6163173    3677.7487         1793 
  812000   0.18906011   -7.6005944    3672.5885         1722 
  813000   0.18945462    -7.608217     3671.342         1729 
  814000   0.18898384   -7.6053345    3672.7636         1752 
  815000   0.19477819   -7.6136068    3675.0569         1760 
  816000   0.19202854   -7.6144068    3676.0087         1754 
  817000   0.18854264   -7.6076471    3671.5975         1744 
  818000   0.19087369   -7.6123267    3673.5992         1727 
  819000   0.19170834   -7.6090881    3680.0632         1727 
  820000   0.19036139   -7.6097819    3670.3114         1716 
  821000    0.1886683   -7.6067987     3673.728         1720 
  822000   0.19365853   -7.6135879    3675.7174         1760 
  823000   0.18682134   -7.6185028    3677.7035         1739 
  824000   0.19206983   -7.6095931    3674.9057         1804 
  825000   0.19353334   -7.6065171    3673.1192         1848 
  826000   0.19094681   -7.6101965    3671.3032         1789 
  827000   0.19020601   -7.6067931    3671.9555         1774 
  828000    0.1915894   -7.6087245    3671.1345         1751 
  829000   0.19026535   -7.6127662    3674.2506         1753 
  830000   0.19442232   -7.6135978    3677.9169         1741 
  831000   0.19010883   -7.6132505      3676.43         1772 
  832000   0.18884703   -7.6071084    3671.4856         1765 
  833000   0.18658383    -7.615275    3674.8038         1756 
  834000   0.19332121   -7.6157255    3677.9857         1760 
  835000   0.19138826    -7.611624    3677.9031         1782 
  836000   0.18860573   -7.6160734    3680.5672         1814 
  837000   0.19160248    -7.619681    3678.5444         1762 
  838000    0.1901044   -7.6126483    3675.5799         1797 
  839000   0.18732929   -7.6130659    3674.2681         1783 
  840000    0.1898383   -7.6078663    3673.1708         1764 
  841000   0.19308088   -7.6006509    3673.8837         1780 
  842000   0.19115546   -7.6073194    3670.9947         1834 
  843000   0.18792319   -7.6124186    3675.1344         1784 
  844000   0.18712362   -7.6089454    3672.6079         1872 
  845000   0.18897751   -7.6107583    3674.5893         1819 
  846000   0.18906128    -7.611249    3670.5704         1775 
  847000   0.18860447   -7.6065505    3673.0391         1792 
  848000   0.18933575   -7.6113547    3675.2363         1779 
  849000    0.1916106   -7.6148245    3679.9659         1771 
  850000    0.1911046   -7.6108701     3678.075         1830 
  851000   0.18508028   -7.6084358     3675.918         1842 
  852000    0.1948378   -7.6137273    3673.8814         1844 
  853000   0.18944178   -7.6150662    3672.2807         1861 
  854000   0.19152305   -7.6150939    3671.5507         1841 
  855000   0.18747613    -7.611456    3673.3981         1846 
  856000   0.19088364   -7.6072946    3669.0483         1920 
  857000    0.1889425   -7.6216441    3673.1773         1949 
  858000   0.19010979   -7.6135259    3673.9388         1945 
  859000   0.19561694   -7.6173493    3672.8671         1941 
  860000     0.193377   -7.6165424     3674.626         1960 
  861000   0.18995281    -7.612842    3668.6814         2034 
  862000   0.18912323   -7.6167165    3673.1636         2013 
  863000   0.18939664   -7.6175572    3673.1156         2037 
  864000   0.19060813    -7.624531    3677.4175         2020 
  865000   0.18785481   -7.6120845    3668.2755         2017 
  866000   0.19100981   -7.6237902    3673.5997         1997 
  867000   0.18927058   -7.6212399    3670.3655         1992 
  868000   0.19072116    -7.621242    3675.7656         2007 
  869000   0.18845995   -7.6198379    3675.7162         2035 
  870000   0.18674178   -7.6139928    3671.3398         1983 
  871000   0.19298717   -7.6172278    3673.5156         2098 
  872000   0.19393152   -7.6206242    3673.8304         2038 
  873000   0.19416896   -7.6298372    3670.3725         2097 
  874000   0.19322369   -7.6262269    3667.2058         2080 
  875000   0.19172163   -7.6273948    3669.7302         2164 
  876000   0.19218248   -7.6281267    3667.9341         2174 
  877000   0.19118377   -7.6227266    3672.0721         2184 
  878000   0.19516475   -7.6232905    3669.8454         2188 
  879000   0.19023608   -7.6288805    3669.1099         2142 
  880000   0.19475469   -7.6229538    3671.7663         2156 
  881000   0.19144358   -7.6253121    3673.7173         2115 
  882000   0.19240386    -7.627918    3674.7508         2146 
  883000   0.18861119   -7.6207591    3665.0924         2155 
  884000    0.1915851   -7.6281794    3671.5092         2158 
  885000   0.19204264   -7.6224595    3668.6118         2177 
  886000   0.18662169   -7.6220812    3670.3672         2097 
  887000   0.18784723   -7.6324305    3676.1504         2150 
  888000   0.19051989   -7.6278633    3675.6001         2123 
  889000   0.18780328   -7.6287929    3671.1918         2165 
  890000   0.18881373   -7.6296967    3671.1583         2162 
  891000   0.19336625   -7.6265081    3668.9221         2118 
  892000    0.1874751   -7.6281228    3667.6303         2196 
  893000   0.19293516    -7.623388    3667.8232         2214 
  894000   0.18800001   -7.6296294    3668.8463         2202 
  895000   0.18869352   -7.6336004    3669.2961         2150 
  896000   0.19228935   -7.6170911    3665.2568         2221 
  897000   0.19112175   -7.6151009    3664.3519         2222 
  898000   0.18777776    -7.637009    3675.6023         2215 
  899000   0.19282459   -7.6253529    3663.5144         2189 
  900000   0.18594522   -7.6269801    3668.5804         2223 
  901000   0.18812422   -7.6353871    3670.7411         2189 
  902000   0.19335442   -7.6321703    3668.4606         2167 
  903000   0.18855258   -7.6226524    3669.0405         2203 
  904000   0.19575665   -7.6253691    3666.4733         2197 
  905000   0.19437833   -7.6393469    3671.1227         2165 
  906000   0.19094955    -7.631825     3671.417         2228 
  907000   0.19205402   -7.6317423    3670.3758         2214 
  908000   0.18869516   -7.6372625    3669.9522         2187 
  909000   0.19776351   -7.6332111    3665.3821         2198 
  910000   0.18928928   -7.6176924    3665.8979         2250 
  911000   0.18407579   -7.6316856    3668.3323         2221 
  912000   0.19203318   -7.6339684    3668.8973         2182 
  913000   0.18831908   -7.6246421    3664.6249         2197 
  914000   0.18909224   -7.6299138    3665.5361         2230 
  915000   0.18932028   -7.6333243    3670.8557         2222 
  916000   0.18679575    -7.636528    3672.0908         2257 
  917000   0.18650564   -7.6337694    3672.1051         2209 
  918000   0.19058727   -7.6427033    3675.2537         2251 
  919000   0.18749309   -7.6383728    3674.6003         2267 
  920000   0.19028167   -7.6382448    3665.3588         2254 
  921000   0.19359721   -7.6371401    3670.7179         2325 
  922000   0.18988007   -7.6358822    3667.5266         2277 
  923000   0.18775374   -7.6393519    3668.7909         2332 
  924000    0.1903805    -7.632151      3672.32         2263 
  925000   0.18972202   -7.6346511    3668.9808         2306 
  926000   0.19545931   -7.6366471    3665.5086         2336 
  927000   0.19306863    -7.641779    3667.7927         2322 
  928000   0.18668562   -7.6388292    3667.4972         2329 
  929000   0.19054763   -7.6380473    3667.9433         2331 
  930000   0.19194724   -7.6337827    3670.6572         2285 
  931000   0.18878429   -7.6320793     3666.584         2346 
  932000   0.18584816   -7.6362235    3666.4401         2337 
  933000   0.18718087   -7.6378987    3663.1688         2331 
  934000   0.19088023   -7.6363259    3669.0593         2319 
  935000   0.18907351   -7.6361116    3671.6296         2309 
  936000   0.18756216   -7.6370924     3667.754         2374 
  937000   0.19103088   -7.6379807    3666.9744         2332 
  938000   0.19080018   -7.6400069    3667.9823         2301 
  939000   0.19045341   -7.6431273    3668.4147         2329 
  940000    0.1903648   -7.6429607    3664.8429         2317 
  941000   0.18986197   -7.6453982    3667.9632         2296 
  942000   0.18796212   -7.6452772    3667.2595         2340 
  943000   0.18996797   -7.6430044    3666.6273         2367 
  944000   0.19115969   -7.6487381     3670.607         2347 
  945000   0.18737131   -7.6396523     3668.612         2357 
  946000   0.18950519   -7.6390344    3668.5291         2345 
  947000   0.18992877   -7.6506922    3671.9802         2354 
  948000   0.18555967   -7.6406315     3667.637         2324 
  949000   0.19063993   -7.6344354    3667.7826         2331 
  950000   0.19145663   -7.6414208    3671.3478         2307 
  951000   0.19216415   -7.6401101    3668.8252         2322 
  952000   0.18714277   -7.6448897    3665.2304         2332 
  953000   0.18525595   -7.6464993      3669.12         2371 
  954000   0.18399139   -7.6454652     3664.726         2341 
  955000   0.19306222   -7.6356552    3663.7156         2353 
  956000   0.19374947   -7.6459058    3673.8166         2335 
  957000   0.18826842   -7.6397166    3665.3615         2337 
  958000   0.18951164   -7.6471367    3670.1326         2355 
  959000   0.19385443   -7.6461565    3665.1892         2369 
  960000   0.18770233   -7.6412684    3666.2568         2322 
  961000   0.19078715   -7.6338194    3660.2063         2342 
  962000    0.1897786   -7.6392318    3669.2029         2335 
  963000   0.18725968   -7.6423749    3668.5359         2375 
  964000   0.19138122   -7.6473684    3672.7854         2336 
  965000   0.19331478   -7.6443984    3668.7669         2352 
  966000   0.18731843   -7.6436737    3665.4827         2367 
  967000   0.19033643    -7.644927    3666.7476         2355 
  968000   0.19188677   -7.6603697    3667.8986         2427 
  969000   0.19239291   -7.6487971    3665.7861         2463 
  970000   0.19287378   -7.6468621    3663.8463         2457 
  971000    0.1858391   -7.6529575    3667.6004         2447 
  972000   0.18974447   -7.6457488    3664.6416         2460 
  973000   0.18992319   -7.6515943    3667.0824         2437 
  974000    0.1929895   -7.6475437    3664.4727         2491 
  975000   0.19214572   -7.6380945    3661.1291         2484 
  976000   0.18832162   -7.6432471    3663.4912         2404 
  977000   0.19259084   -7.6471892    3665.4212         2440 
  978000    0.1908447   -7.6437529    3664.7208         2487 
  979000   0.18694619   -7.6470193    3663.8078         2425 
  980000   0.19445802   -7.6423068    3663.0955         2454 
  981000   0.18624023   -7.6517205    3667.4934         2433 
  982000   0.18926672   -7.6489929    3666.3049         2440 
  983000   0.19017238    -7.643709    3661.4276         2391 
  984000   0.19092004   -7.6477681    3664.1747         2447 
  985000   0.19062407   -7.6475471    3659.8246         2492 
  986000   0.18712854   -7.6480902    3666.3916         2445 
  987000   0.19199395   -7.6483337    3663.2217         2484 
  988000   0.19173941   -7.6526198    3664.5225         2445 
  989000   0.19559148   -7.6454044    3660.4001         2437 
  990000   0.19162341   -7.6467102    3661.2713         2464 
  991000   0.19156361   -7.6576228    3667.9276         2495 
  992000   0.18885397   -7.6531561    3664.0181         2532 
  993000   0.19029557   -7.6489176    3663.3918         2552 
  994000    0.1900188   -7.6528638    3667.2204         2517 
  995000   0.19042471   -7.6500577     3665.492         2513 
  996000   0.18724762   -7.6522357    3661.8369         2515 
  997000   0.18528871   -7.6541643     3665.989         2533 
  998000   0.19115768   -7.6528552    3667.3103         2570 
  999000   0.18620655   -7.6525621    3665.5273         2579 
 1000000   0.19260335    -7.656163    3666.4399         2561 
 1001000   0.19292664   -7.6594456    3665.4922         2554 
 1002000    0.1896093   -7.6524897    3662.9719         2549 
 1003000   0.18631451   -7.6550673    3662.9837         2572 
 1004000   0.18542799    -7.653068    3662.2908         2566 
Loop time of 2148.08 on 48 procs for 1000000 steps with 4000 atoms

Performance: 80443.752 tau/day, 465.531 timesteps/s
99.4% CPU use with 48 MPI tasks x no OpenMP threads

MPI task timing breakdown:
Section |  min time  |  avg time  |  max time  |%varavg| %total
---------------------------------------------------------------
Pair    | 137.85     | 152.5      | 176.19     |  77.2 |  7.10
Neigh   | 5.4785     | 5.6925     | 6.0812     |   5.3 |  0.27
Comm    | 92.524     | 114.99     | 129.43     |  84.3 |  5.35
Output  | 4.9569     | 4.9579     | 4.9743     |   0.1 |  0.23
Modify  | 1823.4     | 1833.6     | 1845.6     |  12.6 | 85.36
Other   |            | 36.37      |            |       |  1.69

Nlocal:        83.3333 ave          92 max          79 min
Histogram: 11 3 5 13 5 4 4 1 1 1
Nghost:        1741.83 ave        1755 max        1723 min
Histogram: 3 1 4 4 3 10 5 4 9 5
Neighs:        10550.0 ave       11753 max        9627 min
Histogram: 2 5 5 8 12 5 6 3 1 1
FullNghs:      21099.4 ave       23342 max       19850 min
Histogram: 8 5 7 9 7 5 4 1 1 1

Total # of neighbors = 1012769
Ave neighs/atom = 253.19225
Neighbor list builds = 22634
Dangerous builds = 0

#clear
#
#next RN
#
#jump SELF
Total wall time: 0:35:49
