
units lj                  # Use reduced LJ style units
atom_style atomic         # Uncharged point particles
atom_modify map hash      # Needed for indexing of clusters etc
                          # Used to be able to find where atoms are in relation to each other.

lattice fcc 1.0 spacing 1 1 1
Lattice spacing in x,y,z = 1.5874011 1.5874011 1.5874011
region box block 0 10 0 10 0 10 units lattice
create_box 2 box
Created orthogonal box = (0.0000000 0.0000000 0.0000000) to (15.874011 15.874011 15.874011)
  3 by 4 by 4 MPI processor grid
create_atoms 1 box
Created 4000 atoms
  using lattice units in orthogonal box = (0.0000000 0.0000000 0.0000000) to (15.874011 15.874011 15.874011)
  create_atoms CPU = 0.002 seconds
set type 1 type/fraction 2 0.86 78393
Setting atom values ...
  3427 settings made for type/fraction
mass 1 1.0
mass 2 1.0
pair_style lj/cut  3.5
pair_modify tail  yes
pair_coeff 1  1  1.0  1.0   # Intearaction between 1 and 1 set with epsilon = 1 and sigma = 1
pair_coeff 1  2  1.5  0.8
pair_coeff 2  2  0.5  0.88

write_data data.0
System init for write_data ...
Neighbor list info ...
  update every 1 steps, delay 10 steps, check yes
  max neighbors/atom: 2000, page size: 100000
  master list distance cutoff = 3.8
  ghost atom cutoff = 3.8
  binsize = 1.9, bins = 9 9 9
  1 neighbor lists, perpetual/occasional/extra = 1 0 0
  (1) pair lj/cut, perpetual
      attributes: half, newton on
      pair build: half/bin/atomonly/newton
      stencil: half/bin/3d
      bin: standard
WARNING: Not all mixed pair coeffs generated from mixing. Use write_data with 'pair ij' option to store all pair coeffs. (../write_data.cpp:312)


#############################
#   M E L T   S Y S T E M   #
#############################

velocity all create 2.4 8172548 mom yes dist gaussian # Assign velocities
                                                    # Temperature 2.4, random number seed, zero linear momentum
                                                                                # Gaussian distribution

timestep 0.002   # simulation timestep
thermo 1000       # output thermodynamic data every 1000 steps bf 100

# Define a fix  in this case with index 1 applied to all
# particles in the simulation. This fix is for simulations
# in the anisotropic NPT ensemble. Note that we use the MTK
# correction.
fix 1 all npt temp 2.4 2.4 0.1 iso 5.68 5.68 0.5 mtk yes tchain 5 pchain 5 # Use NPT ensemble
                                                                         # Set temperature and pressure and damping
                                                                         # Numbers of thermostats in chain and in barostat
run 10000          # run for 10000 steps
Per MPI rank memory allocation (min/avg/max) = 3.642 | 3.644 | 3.648 Mbytes
Step Temp E_pair E_mol TotEng Press Volume 
       0          2.4   -3.3969599            0   0.20214005   -2.8933285         4000 
    1000    2.3936165   -2.5468395            0    1.0426878    5.4447165     3953.958 
    2000    2.3247789   -2.5422647            0   0.94403186    5.6417284    3923.5475 
    3000    2.3899516   -2.5282383            0    1.0557929    6.0674287    3888.4403 
    4000     2.411781   -2.5949003            0    1.0218667    5.9193903    3868.8727 
    5000    2.3986228   -2.5352512            0    1.0617835    5.5728463    3957.7656 
    6000    2.4050118   -2.6182159            0   0.98839999    5.7186374    3882.5828 
    7000     2.369039   -2.5542207            0    0.9984494    5.5750949    3931.1473 
    8000     2.370017   -2.5925219            0   0.96161485    5.4577984    3935.5536 
    9000    2.4008112   -2.5546124            0    1.0457041    5.7941445    3915.6385 
   10000    2.4371665   -2.6037245            0    1.0511113    5.6820833    3896.4268 
Loop time of 2.55413 on 48 procs for 10000 steps with 4000 atoms

Performance: 676552.464 tau/day, 3915.234 timesteps/s
99.6% CPU use with 48 MPI tasks x no OpenMP threads

MPI task timing breakdown:
Section |  min time  |  avg time  |  max time  |%varavg| %total
---------------------------------------------------------------
Pair    | 1.0824     | 1.178      | 1.3124     |   3.9 | 46.12
Neigh   | 0.20822    | 0.21814    | 0.23799    |   1.2 |  8.54
Comm    | 0.75822    | 0.87932    | 1.0034     |   5.5 | 34.43
Output  | 0.00024427 | 0.00025092 | 0.00031782 |   0.0 |  0.01
Modify  | 0.21192    | 0.26332    | 0.31887    |   6.2 | 10.31
Other   |            | 0.0151     |            |       |  0.59

Nlocal:        83.3333 ave          94 max          72 min
Histogram: 1 1 5 5 8 11 10 5 1 1
Nghost:        1672.77 ave        1691 max        1653 min
Histogram: 2 3 7 5 5 8 3 6 7 2
Neighs:        9798.69 ave       11403 max        8000 min
Histogram: 1 0 3 5 11 10 12 5 0 1

Total # of neighbors = 470337
Ave neighs/atom = 117.58425
Neighbor list builds = 910
Dangerous builds = 238

# Equilibrate just above the melting temperature to avoid step fn in T

fix 1 all npt temp 1.25 1.25 0.1 iso 5.68 5.68 0.5 mtk yes tchain 5 pchain 5
run 2000
Per MPI rank memory allocation (min/avg/max) = 3.643 | 3.645 | 3.649 Mbytes
Step Temp E_pair E_mol TotEng Press Volume 
   10000    2.4371665   -2.6037245            0    1.0511113    5.6820833    3896.4268 
   11000    1.2713278   -3.8172099            0    -1.910695    5.6115824     3024.058 
   12000    1.2601041    -3.838788            0   -1.9491045    5.5548341    3011.4455 
Loop time of 0.620789 on 48 procs for 2000 steps with 4000 atoms

Performance: 556710.888 tau/day, 3221.707 timesteps/s
99.7% CPU use with 48 MPI tasks x no OpenMP threads

MPI task timing breakdown:
Section |  min time  |  avg time  |  max time  |%varavg| %total
---------------------------------------------------------------
Pair    | 0.27547    | 0.29955    | 0.33866    |   2.2 | 48.25
Neigh   | 0.040025   | 0.042366   | 0.04763    |   0.6 |  6.82
Comm    | 0.1883     | 0.22868    | 0.25475    |   2.8 | 36.84
Output  | 5.1945e-05 | 5.3564e-05 | 6.801e-05  |   0.0 |  0.01
Modify  | 0.040781   | 0.045303   | 0.048619   |   1.0 |  7.30
Other   |            | 0.004843   |            |       |  0.78

Nlocal:        83.3333 ave          89 max          75 min
Histogram: 2 0 5 2 6 9 4 11 4 5
Nghost:        1982.02 ave        2015 max        1963 min
Histogram: 2 16 3 8 5 7 3 2 1 1
Neighs:        12672.6 ave       14381 max       10564 min
Histogram: 1 0 6 2 7 12 10 6 2 2

Total # of neighbors = 608287
Ave neighs/atom = 152.07175
Neighbor list builds = 144
Dangerous builds = 11

#############################
# L I N E A R  Q U E N C H  #
#############################

# Define solid atoms. This closely follows ten Wolde  Ruiz-Montero and Frenkel  Faraday Discuss  1996  104  93-110
# Compute components of the per-atom q6 vector
compute q6 all orientorder/atom degrees 1 6 components 6 nnn NULL cutoff 1.3 # compute the Q6 parameter.
                                                                             # Use all neighbours within 1.3 unit cell.

# get number of connections
compute coord_number all coord/atom orientorder q6 0.5

# An atom is solid if it has 8 or more connections (of a possible 14)
variable is_solid atom c_coord_number>=8
group solid dynamic all var is_solid    # Must be dynamic to update
dynamic group solid defined

# do clustering
compute cluster solid cluster/atom 1.3 # Create a cluster where all atoms within are solid and max 1.3 units from another member

# define chunks one chunk per cluster
compute clus_chunks solid chunk/atom c_cluster nchunk every compress yes  # Says which atoms are in which chunk

# count the size of each chunk
compute size_chunks solid property/chunk clus_chunks count


# Find the maximum entry in the vector of chunk sizes
variable max_n equal max(c_size_chunks)


# Thermo style which includes this variable
# thermo_style custom step temp pe vol v_max_n

thermo ${N}  # Print the thermo information every 100 steps
thermo 1000  

# Reset the npt fix at a lower temperature (below freezing)
fix 1  all npt temp  ${temp} ${temp}  0.1  iso  5.68  5.68  0.5  mtk yes tchain  5  pchain  5
fix 1  all npt temp  0.45 ${temp}  0.1  iso  5.68  5.68  0.5  mtk yes tchain  5  pchain  5
fix 1  all npt temp  0.45 0.45  0.1  iso  5.68  5.68  0.5  mtk yes tchain  5  pchain  5

dump dmp2 all dcd ${N} traj.dcd
dump dmp2 all dcd 1000 traj.dcd


compute msd all msd com yes
variable twopoint equal c_msd[4]/6/(step*dt+1.0e-6)
fix 9 all vector 10 c_msd[4]
variable fit equal slope(f_9)/6/(10*dt)
thermo_style custom step temp pe c_msd[4] v_twopoint v_fit v_max_n

fix 1 all npt temp 1.25 ${temp} 0.1 iso 5.68 5.68 0.5 mtk yes tchain 5 pchain 5
fix 1 all npt temp 1.25 0.45 0.1 iso 5.68 5.68 0.5 mtk yes tchain 5 pchain 5
run 2000000 # 5000000  # Run for this many steps
Neighbor list info ...
  update every 1 steps, delay 10 steps, check yes
  max neighbors/atom: 2000, page size: 100000
  master list distance cutoff = 3.8
  ghost atom cutoff = 3.8
  binsize = 1.9, bins = 8 8 8
  4 neighbor lists, perpetual/occasional/extra = 1 3 0
  (1) pair lj/cut, perpetual
      attributes: half, newton on
      pair build: half/bin/atomonly/newton
      stencil: half/bin/3d
      bin: standard
  (2) compute orientorder/atom, occasional
      attributes: full, newton on
      pair build: full/bin/atomonly
      stencil: full/bin/3d
      bin: standard
  (3) compute coord/atom, occasional
      attributes: full, newton on
      pair build: full/bin/atomonly
      stencil: full/bin/3d
      bin: standard
  (4) compute cluster/atom, occasional
      attributes: full, newton on
      pair build: full/bin/atomonly
      stencil: full/bin/3d
      bin: standard
Per MPI rank memory allocation (min/avg/max) = 9.828 | 9.832 | 9.837 Mbytes
Step Temp PotEng c_msd[4] v_twopoint v_fit v_max_n 
   12000    1.2601041    -3.838788 2.2308986e-30 1.5492351e-32 8.3333333e+20            1 
   13000    1.2628646   -3.8209756   0.88989025 0.0057044245  0.074783852            1 
   14000    1.2415658   -3.8580089    1.8710221  0.011137036  0.079356915            1 
   15000    1.2377493   -3.8124421    2.8422319  0.015790177  0.079540889            4 
   16000    1.2323362   -3.8392949    3.7589342  0.019577782   0.07905942            2 
   17000    1.2612311   -3.8296396    4.7534797   0.02330137  0.079662538            3 
   18000    1.2545978    -3.817383    5.7677252  0.026702431  0.080299099            1 
   19000     1.272049   -3.8431839    6.6230283  0.029048369  0.080102986            1 
   20000    1.2550753   -3.8396321    7.6283207  0.031784669  0.079870561            3 
   21000    1.2318151   -3.8259821    8.5187154  0.033804425  0.079978162            1 
   22000    1.2202101    -3.792372    9.6190387  0.036435752  0.079892978            2 
   23000    1.2665655   -3.8108024    10.563303  0.038272836  0.080117142            2 
   24000    1.2408695   -3.8666381    11.518652  0.039995318   0.08031325            1 
   25000     1.254361   -3.8376935     12.55481  0.041849367  0.080691338            1 
   26000    1.2598551   -3.8412973     13.52246  0.043341216  0.080887018            4 
   27000    1.2307432   -3.8065882    14.494599  0.044736417  0.081007107            1 
   28000    1.2235764   -3.8294452     15.49893  0.046127766  0.081052945            1 
   29000    1.2627594   -3.8441203    16.332745  0.046933175  0.081022492            1 
   30000    1.2524787   -3.8084119    17.288448  0.048023466  0.080908098            2 
   31000     1.234037   -3.8261375    18.183937   0.04888155  0.080716037            4 
   32000    1.2415919   -3.8238319     19.02784  0.049551667  0.080556882            4 
   33000    1.2218227   -3.8644371      19.9437  0.050362877  0.080321485            6 
   34000    1.2355678   -3.8379956    20.803727  0.050989527  0.080054871            3 
   35000    1.2714391   -3.8623565    21.769717  0.051832659  0.079786627            2 
   36000    1.2638979   -3.8151741    22.931827  0.053082932  0.079682475            1 
   37000    1.2496146   -3.8256143    23.990055  0.054031654  0.079720052            1 
   38000    1.2366643   -3.8624654    24.979674  0.054779985   0.07980716            1 
   39000    1.2230848   -3.8240733    25.916175  0.055376442  0.079837376            1 
   40000    1.2492765    -3.847471    26.857641  0.055953418  0.079773656            2 
   41000    1.2594015   -3.8411299    27.633717   0.05616609  0.079723928            4 
   42000    1.2268957   -3.8322987    28.509151  0.056565776  0.079604456            2 
   43000    1.2708819   -3.8230353    29.354013  0.056887621  0.079477552            3 
   44000    1.2264593   -3.8193811    30.352404  0.057485612  0.079375941            3 
   45000    1.2686977   -3.8607156    31.448737  0.058238402  0.079308305            2 
   46000    1.2108778    -3.838939     32.51379  0.058901793  0.079352678            1 
   47000    1.2314202   -3.8258472    33.730299  0.059805493  0.079375123            2 
   48000    1.2516121   -3.8055081    34.325448  0.059592792  0.079395495            2 
   49000    1.2144058    -3.846921    35.508017  0.060387784  0.079403909            1 
   50000    1.2448205    -3.817376    36.358048  0.060596745  0.079426208            1 
   51000    1.2490556   -3.8617817    37.400772  0.061112372  0.079483518            1 
   52000    1.2512301    -3.865724     38.37955  0.061505689   0.07956164            1 
   53000    1.2555134   -3.8519747    39.750933  0.062501467  0.079733178            1 
   54000    1.2307002   -3.8342391     40.89181  0.063104645  0.079909203            2 
   55000    1.2279039   -3.8425464    41.463374  0.062823293  0.080028331            2 
   56000    1.2438971    -3.817914    42.820459  0.063720921  0.080136249            2 
   57000    1.2260314   -3.8348252    43.828545  0.064076819  0.080275216            2 
   58000    1.2487156   -3.8230416    44.762418  0.064313818  0.080411428            2 
   59000    1.2169663   -3.8444146    45.624331  0.064441146  0.080497445            3 
   60000    1.2118032   -3.8630948     46.19364  0.064157833  0.080507866            6 
   61000    1.2591435   -3.7992368    47.203237  0.064485296  0.080502331            4 
   62000     1.221058   -3.8815209    48.178767  0.064756406  0.080500622            3 
   63000    1.2129915   -3.8480796    49.180409   0.06505345  0.080504434            2 
   64000    1.2103125   -3.8307119    49.788149  0.064828319  0.080496171            1 
   65000     1.223584   -3.8251281    50.904474  0.065262145  0.080458312            3 
   66000    1.2101664   -3.8220388    51.742155  0.065331003  0.080397462            2 
   67000    1.2425348   -3.8573517     52.53605  0.065343345  0.080330554            1 
   68000    1.2173899   -3.8455431    53.234116  0.065237886  0.080250917            1 
   69000    1.2249868   -3.8576246    54.555868  0.065888729  0.080200094            2 
   70000       1.2134   -3.8622371    55.369936   0.06591659  0.080132901            2 
   71000    1.2249315   -3.8428202    56.052727  0.065789585  0.080070159            2 
   72000    1.2280477   -3.8823114     57.07029  0.066053576   0.08000823            2 
   73000    1.2305541    -3.861412    58.358662  0.066619477  0.079964833            2 
   74000    1.2395937   -3.8278274    59.531305  0.067039757  0.079933622            1 
   75000    1.2100896   -3.8661474    60.102602  0.066780669  0.079913849            1 
   76000     1.218949   -3.8609032    60.843649  0.066714527  0.079862399            2 
   77000     1.226963   -3.8666731    62.110617  0.067219282  0.079840789            1 
   78000    1.1885554   -3.8334115    63.737507  0.068095627  0.079840629            1 
   79000     1.220668   -3.8584727    64.155618  0.067674702  0.079865866            1 
   80000    1.2469834   -3.8665582    65.130146  0.067843902  0.079867356            1 
   81000    1.2270236   -3.8074225    66.192604  0.068099387  0.079855267            4 
   82000    1.2148226   -3.8676841    66.670256  0.067754325  0.079819442            5 
   83000    1.2207882   -3.8655949    67.424185  0.067694964  0.079767606            2 
   84000    1.2252219   -3.8727124    67.985176  0.067445611  0.079720378            2 
   85000    1.2381125   -3.8530576    69.108433  0.067753366  0.079659184            2 
   86000    1.2414332   -3.8802679    70.102827  0.067929096  0.079595212            2 
   87000    1.2226976   -3.8750559    71.009053  0.068016334  0.079529434            1 
   88000     1.227186    -3.901353    71.534188  0.067740708  0.079451203            1 
   89000    1.2283201   -3.8669482    72.453588  0.067840438  0.079380527            4 
   90000    1.2247636   -3.8190546    73.458892  0.068017492  0.079305292            2 
   91000     1.194561    -3.851371    74.221546  0.067968448  0.079231655            3 
   92000    1.2338262   -3.8422588      75.4613  0.068352626  0.079175686            1 
   93000    1.1875617   -3.8727383     76.46442  0.068516505  0.079112211            3 
   94000    1.2213451    -3.885231    77.395026  0.068612611  0.079056301            1 
   95000    1.2304516    -3.846329     78.08439  0.068495078  0.079006422            3 
   96000    1.2148018   -3.8649606    79.236616  0.068781784  0.078958471            2 
   97000    1.2208864   -3.8861377    80.111745  0.068824523  0.078916966            2 
   98000    1.2201681   -3.8855624    81.016695  0.068891747  0.078867348            1 
   99000    1.2005408     -3.86664    82.190309  0.069183762  0.078818963            3 
  100000    1.2163367   -3.8402488    83.084103  0.069236752  0.078785249            1 
  101000    1.2126481   -3.8687708    83.887054  0.069213741  0.078755692            1 
  102000    1.2187991   -3.8947339     84.13937  0.068741315  0.078708613            3 
  103000    1.2309848   -3.9105217    84.878553  0.068671968  0.078644668            1 
  104000    1.2095068   -3.8838784    85.988032  0.068900666  0.078573349            2 
  105000    1.2153378   -3.8707968    86.783721  0.068875969  0.078502334            4 
  106000    1.2253293   -3.8896833    87.838898  0.069055737  0.078440046            3 
  107000    1.1645785   -3.8467464    89.253574  0.069512129  0.078394488            3 
  108000    1.1841695   -3.8758923    89.979195  0.069428391  0.078344871            1 
  109000    1.2019738   -3.8660293     91.12165   0.06966487  0.078300227            2 
  110000    1.2201562   -3.8808491    91.345074  0.069200814  0.078254557            1 
  111000    1.2266357   -3.8494237    91.985672  0.069058312  0.078199624            4 
  112000    1.2099889   -3.8728239    93.303663  0.069422368  0.078142474            1 
  113000    1.2186255   -3.8985432    94.019373  0.069335821  0.078093709            1 
  114000    1.2133524   -3.8923724     94.94529  0.069404451  0.078048825            1 
  115000    1.2105225   -3.8659385    96.103944  0.069640539  0.077996331            1 
  116000     1.188281   -3.8867368    96.657682   0.06943799  0.077936651            2 
  117000    1.1931026   -3.8578991     97.62327  0.069532243  0.077878509            2 
  118000    1.2106937   -3.9021713    98.478651   0.06954707   0.07782625            2 
  119000    1.2205518   -3.8686294    100.34087  0.070266714  0.077790442            3 
  120000    1.1933906    -3.918375    100.76615  0.069976493   0.07775705            3 
  121000    1.2091703   -3.8835074    102.09842  0.070315719  0.077725937            2 
  122000    1.1938214   -3.8872015    102.21787  0.069820951  0.077695768            1 
  123000    1.2124976   -3.8402787    103.73183  0.070279019   0.07766603            2 
  124000    1.2179917    -3.873049    104.24986  0.070060388  0.077626021            2 
  125000    1.1999754   -3.8907974    105.26319  0.070175458   0.07758601            2 
  126000    1.1752119   -3.8851756    106.09005  0.070165376  0.077546338            5 
  127000    1.2174007   -3.8600375    106.33703  0.069774952  0.077501897            2 
  128000    1.2166572    -3.866883    107.87209  0.070229222  0.077454112            1 
  129000    1.1900381   -3.8811215    108.34612   0.06999103  0.077402157            1 
  130000    1.1829457   -3.8680183    109.16349  0.069976597  0.077356305            2 
  131000    1.1814147   -3.8886612    110.64799  0.070386759  0.077314869            3 
  132000    1.2081229   -3.8672921    111.35674  0.070300971   0.07727476            3 
  133000    1.1991691   -3.8627378    111.96765  0.070155172  0.077234942            2 
  134000    1.2074842   -3.9071932    112.68189    0.0700758  0.077187957            1 
  135000    1.2070601   -3.8792176    113.48837  0.070054547  0.077132472            2 
  136000    1.1867608   -3.9091404    114.00875  0.069858302  0.077071529            3 
  137000     1.184429    -3.902622    114.38436  0.069576864  0.077016345            2 
  138000    1.2051614   -3.9324551    114.82463  0.069338544  0.076956286            1 
  139000    1.1902382   -3.9025638    116.04163  0.069569319  0.076895545            3 
  140000    1.2203003   -3.9148678    117.19493  0.069758888  0.076837504            2 
  141000     1.188162   -3.9034218    118.41896  0.069987563  0.076786508            1 
  142000    1.2133043   -3.9151579     119.5085  0.070134095  0.076736327            2 
  143000    1.2100911   -3.9024598    120.29483  0.070101882  0.076680143            2 
  144000    1.2036015   -3.9314643    120.84457  0.069933198  0.076628424            1 
  145000    1.2161767   -3.8893055     121.8681  0.070039137  0.076573758            2 
  146000    1.2223805   -3.9237267    122.63285  0.069995919  0.076528812            4 
  147000    1.1891444   -3.8572258    123.64035  0.070090898  0.076481554            3 
  148000    1.1881663   -3.9113712    124.61667  0.070167045  0.076442076            3 
  149000    1.1974508   -3.9227389    125.10388  0.069968615  0.076409745            3 
  150000    1.1848899   -3.9191459    127.11836  0.070621308   0.07638382            2 
  151000    1.2188123   -3.8969422    128.28527  0.070797609  0.076365939            2 
  152000    1.1667121   -3.9174227     128.8114  0.070620285  0.076344388            3 
  153000    1.2087203   -3.9485917    129.02931    0.0702774  0.076317024            1 
  154000    1.1966437    -3.906952    130.57278  0.070656265  0.076296761            1 
  155000    1.1877789   -3.8893411    131.68853  0.070800285  0.076270244            2 
  156000    1.1838549   -3.9062392    131.72883  0.070367967  0.076236764            1 
  157000    1.1954606   -3.8895226    132.98326  0.070585593   0.07620154            2 
  158000    1.2135578   -3.9386157    132.85286  0.070070071  0.076155288            3 
  159000    1.1815981   -3.9355325    134.33444  0.070405889  0.076111599       -1e+20 
  160000    1.1926112   -3.9117849    134.48176  0.070042583  0.076066217            1 
  161000    1.2063042   -3.8557301    136.51881   0.07066191  0.076027923            1 
  162000    1.1990429   -3.8930249     136.2854  0.070105658  0.075989349            4 
  163000    1.1903379   -3.9290817    136.39827  0.069733265  0.075943534            2 
  164000    1.1873683   -3.9003966    137.23061  0.069731003  0.075888757            1 
  165000    1.1994079   -3.9169389    138.52144  0.069960325  0.075835672            2 
  166000    1.1927743   -3.9069584    139.29634  0.069927883  0.075789062            2 
  167000    1.1668816   -3.8999844    139.82006  0.069770488  0.075734835            1 
  168000    1.1809887   -3.9554849    141.02853  0.069954627  0.075683218            1 
  169000     1.184564   -3.9142045    141.89005  0.069965508  0.075637178            3 
  170000    1.1793414   -3.8950457    142.90235  0.070050169  0.075590274            3 
  171000    1.1650201   -3.8867262    143.95178   0.07015194  0.075541213            2 
  172000    1.1787824   -3.9360439    144.16327  0.069846543  0.075488535            3 
  173000    1.1803473   -3.9074224    145.05372  0.069871732  0.075438733            2 
  174000    1.2131225   -3.9158022    145.89411  0.069872659  0.075391088            3 
  175000    1.1785013   -3.9252946    147.27933  0.070133012  0.075345368            3 
  176000    1.1814035   -3.9234699    147.21191  0.069702608  0.075304114            1 
  177000    1.1692438   -3.9470471    147.70437  0.069540664  0.075255563            3 
  178000    1.1847071   -3.9102258    150.03453  0.070240884  0.075209543            1 
  179000    1.1874964   -3.9345828    150.35793  0.069999035  0.075168579            4 
  180000     1.166133   -3.9371382    151.18281  0.069992044  0.075127914            4 
  181000    1.1811951   -3.8802335    153.54853  0.070694537  0.075095451            2 
  182000    1.1962771   -3.9100878     153.6109   0.07033466  0.075068086            2 
  183000    1.1647581   -3.9386769    154.80264  0.070493006  0.075038915            1 
  184000    1.1878775   -3.8935702    156.51067  0.070883456  0.075018564            3 
  185000    1.1733962   -3.9196938    157.04249   0.07073986  0.074997847            2 
  186000    1.2026403    -3.916568    157.90191  0.070744583  0.074981161            2 
  187000    1.1880576   -3.9168755    158.33228  0.070558056  0.074971187            5 
  188000    1.2061141    -3.932245    159.67951  0.070779926  0.074958707            3 
  189000    1.1768784   -3.9053256     160.8286   0.07091208  0.074943878            2 
  190000    1.1706793   -3.8858105    161.23279  0.070716134  0.074927818            3 
  191000    1.1921102   -3.9254234    162.22788  0.070780053  0.074909966            3 
  192000    1.1818608   -3.9085258    162.48298  0.070522126  0.074893645            2 
  193000    1.1585719   -3.9210196    163.25245   0.07048897  0.074870108            1 
  194000    1.1766997   -3.9678244    164.29156  0.070571975   0.07484417            3 
  195000     1.171472    -3.930849    165.28237  0.070633489  0.074819095            2 
  196000     1.174898    -3.928672    165.92401  0.070545922  0.074799622            3 
  197000    1.2033945   -3.9302888     167.3952  0.070810151  0.074783409            2 
  198000    1.1535916   -3.9383152    167.81942  0.070631069  0.074762639            2 
  199000    1.1889249   -3.9319258    169.73092  0.071076598  0.074749117            2 
  200000    1.1824586   -3.9265461    170.72852  0.071136884   0.07474051            4 
  201000    1.2011624   -3.9357717    170.75209  0.070792738  0.074729048            2 
  202000    1.1822245   -3.9316397    171.54328  0.070768678  0.074714367            2 
  203000    1.1719696   -3.9379688    172.37611  0.070761951  0.074698171            3 
  204000    1.1687641    -3.923482    173.90085   0.07103793  0.074682546            1 
  205000    1.1647261   -3.9313536    174.56564  0.070961642  0.074663816            1 
  206000     1.182405   -3.9678167    174.86615  0.070738732  0.074645743            2 
  207000    1.1881167   -3.9342379    175.81843  0.070780367   0.07462748            1 
  208000    1.1798276   -3.9155854    177.50684  0.071116521  0.074612194            2 
  209000    1.1421152   -3.8987976    177.47883  0.070765083  0.074592051            3 
  210000    1.1359124   -3.9559367    177.41609  0.070403209  0.074569266            6 
  211000    1.1925108   -3.8985825    179.06178  0.070719504  0.074545224            2 
  212000    1.1562938   -3.9338538    180.57677  0.070981433  0.074524553            3 
  213000    1.1522287   -3.9282606    181.35725   0.07095354  0.074506041            1 
  214000    1.1942017   -3.9621064    180.77462  0.070395103  0.074483112            3 
  215000    1.1862953   -3.9358361    182.32253  0.070667648  0.074457763            2 
  216000    1.1810222   -3.9543775    182.60428  0.070449182  0.074428953            1 
  217000     1.157263   -3.9526604    182.67748  0.070152644  0.074402623            4 
  218000    1.1726616   -3.9320924     184.3855  0.070483752  0.074374542            1 
  219000    1.1857632   -3.9457018    184.33855  0.070144046  0.074341931            2 
  220000    1.1812671   -3.9165091    185.57857  0.070294914  0.074309107            4 
  221000    1.1569644   -3.9394824    185.13372  0.069809094  0.074272371            3 
  222000    1.1763155   -3.9135385    186.22104  0.069902792  0.074236245            1 
  223000    1.1730469   -3.9551399     187.3641  0.070016481  0.074195227            2 
  224000    1.1535286   -3.9641727    187.79596  0.069864567  0.074157301            4 
  225000    1.1812807    -3.916113    188.54271  0.069830634  0.074117788            2 
  226000    1.1803074   -3.9712742    188.47761  0.069497645  0.074073093            4 
  227000    1.1801066   -3.9532071    190.06388  0.069773818  0.074028847            2 
  228000    1.1819827     -3.96712    190.80652  0.069739227  0.073982939            2 
  229000    1.1527626   -3.9340208    190.50532  0.069325081  0.073931879            2 
  230000    1.1658307   -3.9394079    191.52339  0.069392534  0.073878968            1 
  231000     1.181779   -3.9659769    192.47245  0.069434505  0.073829428            2 
  232000    1.1670255   -3.8969443    194.22347  0.069764178  0.073780149            2 
  233000    1.1557675   -3.9294058    194.72135  0.069642829  0.073740724            3 
  234000    1.1541801   -3.9578246    196.00744   0.06980322  0.073695938            1 
  235000    1.1553197   -3.9484597    195.87452   0.06945905  0.073653735            2 
  236000     1.144397   -3.9520253    197.45625   0.06972325   0.07361127            1 
  237000     1.141288   -3.9885703    198.11091  0.069659251  0.073571414            3 
  238000    1.1833682   -3.9859409     197.7576  0.069242858   0.07353194            5 
  239000    1.1715397   -3.9366604    199.91313  0.069704718  0.073493685            2 
  240000    1.1755535   -3.9548207    200.05608  0.069463915  0.073455577            2 
  241000    1.1653446   -3.9450841    201.46954  0.069664431  0.073416608            1 
  242000    1.1392448   -3.9412458    200.70357  0.069112801  0.073372084            1 
  243000    1.1485161   -3.9563529    202.54021  0.069458234  0.073326824            2 
  244000    1.1573937   -3.9704969     203.4575  0.069486851  0.073282218            3 
  245000    1.1596815   -3.9569369    203.52012   0.06922453  0.073240235            2 
  246000     1.170538   -3.9407181    204.78681  0.069372226  0.073196761            2 
  247000    1.1724914   -3.9812459    206.11845  0.069540637  0.073157813            2 
  248000    1.1395185   -3.9938408    207.29895  0.069656907  0.073120337            1 
  249000    1.1860406   -3.9510154     208.1271  0.069654317  0.073085085            2 
  250000    1.1537468   -3.9525729     208.6496  0.069549868   0.07304765            1 
  251000    1.1769809   -3.9924809      208.911  0.069359561  0.073010737            1 
  252000    1.1401022   -3.9432371    209.91504  0.069416349  0.072973753            2 
  253000    1.1530338   -4.0045703    209.78988   0.06910075   0.07293523            2 
  254000    1.1676787   -3.9607747    210.84779  0.069175783   0.07289476            1 
  255000     1.152732   -3.9581696    212.42899   0.06942124  0.072855477            2 
  256000    1.1823031   -3.9620074     212.2863  0.069103614  0.072814625            4 
  257000    1.1693116   -3.9858273    213.53658  0.069240136  0.072773456            2 
  258000    1.1388659   -3.9427317    215.05625  0.069462612  0.072731464            2 
  259000     1.143561   -3.9620928    214.83667  0.069123768  0.072692316            5 
  260000    1.1304378   -3.9179702    216.46586  0.069380082  0.072655836            1 
  261000    1.1550231   -3.9689948    216.39831  0.069092693  0.072619769            3 
  262000    1.1730346   -3.9575135    217.37745  0.069140409  0.072581988            1 
  263000    1.1388476   -3.9713684    217.94283  0.069056664  0.072545257            2 
  264000    1.1440901   -3.9953485     218.1317  0.068854704  0.072509077            2 
  265000    1.1396771    -4.003082    219.58624  0.069052277  0.072471739            3 
  266000    1.1239444   -4.0058576    219.80451  0.068861063  0.072432167            1 
  267000    1.1385818   -3.9830905    221.33707  0.069081482  0.072391353            3 
  268000    1.1428611   -3.9302498     222.6302  0.069225809  0.072349964            2 
  269000    1.1540398   -3.9521342    222.38281  0.068891825  0.072309069            2 
  270000    1.1563195   -3.9991644    222.45075   0.06865764  0.072265863            1 
  271000    1.1528617   -3.9815754    222.63156  0.068459891  0.072221529            3 
  272000    1.1277466   -3.9806724    224.65783  0.068828991  0.072176298            5 
  273000    1.1477466   -3.9941206    225.37725  0.068796473  0.072132259            2 
  274000    1.1619516    -3.942979     227.2281  0.069108302  0.072091705            3 
  275000    1.1489503   -3.9639645    225.77534  0.068416768  0.072049215            3 
  276000    1.1279445   -4.0058726    227.34711  0.068643452   0.07200724            2 
  277000    1.1563441   -4.0041863    228.26676  0.068672311  0.071966645            3 
  278000     1.149153   -4.0159409    229.04052   0.06865723  0.071925639            5 
  279000    1.1552593   -3.9850864    229.89435  0.068666173  0.071883887            2 
  280000    1.1272241   -3.9950576    229.59018   0.06833041  0.071842118            3 
  281000     1.112426   -4.0007517    230.40731  0.068329571  0.071798391            2 
  282000    1.1659466   -3.9820796    230.99414  0.068260678   0.07175631            2 
  283000    1.1476408   -3.9574693    232.75142  0.068536932  0.071712536            2 
  284000    1.1258559    -4.002545    232.75306  0.068296085  0.071666922            2 
  285000     1.140788   -3.9863156    234.43464   0.06854814  0.071630407            3 
  286000    1.1507491   -3.9994035    233.98329  0.068176948  0.071590345            2 
  287000    1.1531779   -3.9986125    235.46057  0.068368342  0.071548837            3 
  288000     1.141576   -3.9966395    236.01513  0.068291415  0.071509602            3 
  289000    1.1184236   -3.9648879    237.06986  0.068359244  0.071468301            4 
  290000    1.1626605   -3.9545858    238.84807  0.068634501  0.071427371            2 
  291000    1.1442566   -3.9925625    237.30754  0.067957487  0.071385919            3 
  292000    1.1584426   -3.9619685    240.25827  0.068566857  0.071346019            2 
  293000     1.146982   -3.9582481    239.93353  0.068240481  0.071306767            2 
  294000    1.1546859   -4.0049057    239.33481  0.067838664  0.071266485            4 
  295000    1.1339774   -3.9685214    241.06628  0.068097819  0.071226827            4 
  296000    1.1313404   -4.0207432    241.74521  0.068058899   0.07118471            2 
  297000    1.1374699   -3.9691723    242.64813  0.068083089  0.071144379            2 
  298000    1.1513243   -3.9843743    242.82067  0.067902873   0.07110326            2 
  299000    1.1408714   -4.0034194    244.34714  0.068101211  0.071062864            1 
  300000    1.1046033   -3.9803184    246.24261  0.068400724  0.071026728            4 
  301000    1.1412787   -3.9561713    246.21917   0.06816699  0.070990835            2 
  302000    1.1439136   -3.9747627    246.84969  0.068115257  0.070953013            3 
  303000    1.1379194   -3.9741712    247.79331  0.068149974  0.070917918            2 
  304000    1.1144139   -3.9821107    248.90423  0.068230325  0.070881951            3 
  305000    1.1342927   -3.9935861    248.29199   0.06783934  0.070842856            2 
  306000    1.1468229   -4.0152763    248.83991  0.067766859  0.070802144            4 
  307000    1.1255736   -3.9879226    249.51738  0.067730016  0.070761934            1 
  308000    1.1219917   -4.0192366    251.05741  0.067926788  0.070720864            2 
  309000    1.1302816   -3.9421347    251.13964  0.067729137  0.070681506            1 
  310000    1.1463117   -4.0150207    251.82182  0.067694038  0.070640561            2 
  311000    1.1034802   -4.0011648    252.75957  0.067727644  0.070599852            3 
  312000    1.1425489   -3.9852461    253.32981  0.067662878  0.070559157            3 
  313000    1.1311131   -4.0076349    253.49235  0.067489975  0.070516722            4 
  314000    1.1119779   -4.0123257    254.12733   0.06744356  0.070475012            3 
  315000    1.1278543   -4.0337044    255.28671  0.067536166  0.070434619            3 
  316000    1.1296169   -3.9948489     255.8604  0.067473735  0.070392158            3 
  317000    1.1340913   -4.0044568    257.09456   0.06758532  0.070353234            4 
  318000    1.1332484   -3.9984947     258.0662  0.067627412  0.070314754            2 
  319000    1.1142552   -3.9844781    258.20238  0.067450987  0.070276365            2 
  320000     1.125776   -3.9904201    259.88851    0.0676793  0.070238062            2 
  321000    1.1190896   -4.0268143    260.11721  0.067527832  0.070200782            2 
  322000    1.1302543   -4.0112422    259.96054  0.067277573   0.07016321            5 
  323000    1.1348589   -4.0026001    261.19832  0.067388628  0.070124771            1 
  324000    1.1532364   -4.0164391    262.41162  0.067492702  0.070086039            4 
  325000     1.154812   -4.0030647     263.3241     0.067519   0.07004934            1 
  326000    1.1341116   -4.0129786     263.1199  0.067259688  0.070013411            2 
  327000    1.1166825   -3.9812233    263.19873  0.067074089  0.069975695            2 
  328000    1.1270261   -4.0063392    264.73669  0.067260338  0.069935401            2 
  329000    1.1045412   -3.9714668    266.44455  0.067488487  0.069895234            3 
  330000    1.1249625   -4.0058029    264.86108  0.066884112  0.069856834            3 
  331000    1.1551538   -4.0008927    266.96678  0.067212181  0.069817976            6 
  332000    1.1220493   -4.0152567    266.95929  0.067007854  0.069777816            2 
  333000    1.1222937   -4.0389504    267.49286  0.066940154  0.069736851            1 
  334000    1.1137722   -4.0410385    268.86514   0.06708212  0.069696077            2 
  335000    1.1519401   -4.0065948    269.16779  0.066957163   0.06965583            3 
  336000    1.1120052   -4.0216387    269.05328  0.066729485  0.069617505            2 
  337000    1.1452341   -3.9750021    271.47888  0.067131276  0.069581157            2 
  338000    1.1416984   -3.9814453    272.57678  0.067203348  0.069543404            1 
  339000    1.1319345   -4.0274841    273.51172  0.067234936  0.069506636            3 
  340000    1.1208416   -4.0325613    273.73267  0.067091341  0.069471223            2 
  341000    1.1114469   -3.9907464    274.84754  0.067167043  0.069434526            2 
  342000     1.125592   -3.9914811     276.0629  0.067266788  0.069398878            3 
  343000    1.1012705   -4.0183601     275.1971  0.066860326  0.069361326            2 
  344000    1.1361002   -3.9759412     276.0083  0.066862476  0.069322856            4 
  345000    1.1285783   -4.0214853    277.23325  0.066964554  0.069285295            6 
  346000    1.1151376   -4.0259637    276.74851  0.066654265  0.069248296            4 
  347000    1.1268353    -4.010481    278.86876  0.066971364  0.069211893            4 
  348000    1.0821325   -4.0496642    278.55162  0.066702973  0.069174885            2 
  349000    1.1156866   -4.0324814    279.38811  0.066711583  0.069139478            4 
  350000    1.1059564   -4.0271627    279.04173  0.066438507  0.069102324            3 
  351000    1.1112191   -4.0189471    281.58964  0.066854141  0.069066271            4 
  352000    1.0933209    -3.968608    282.74409  0.066937521  0.069030339            2 
  353000    1.1269092   -4.0062943    284.31233  0.067118114  0.068996029            2 
  354000    1.1037433   -4.0293204     283.0236  0.066625142  0.068962988            2 
  355000    1.1185199   -4.0146178    285.28084  0.066967333  0.068927783            2 
  356000    1.1137776   -3.9937018    285.29971   0.06678364  0.068893215            3 
  357000    1.1033727   -4.0485873    285.35394   0.06660923   0.06885799            4 
  358000    1.1354256   -4.0086466    286.37166  0.066660069  0.068821317            2 
  359000    1.0796764   -4.0132188    287.10892  0.066645524  0.068786216            3 
  360000    1.1029667   -3.9987918     288.1226  0.066695047  0.068748899            4 
  361000     1.103645   -4.0381474    287.88724  0.066455965  0.068712914            2 
  362000    1.1002732    -4.048075    288.45111  0.066402189  0.068678763            2 
  363000     1.103236   -4.0416215    289.48903  0.066457537  0.068647375            4 
  364000    1.0977638   -3.9981979    291.36316   0.06670402  0.068615216            3 
  365000    1.1111593   -4.0406349    292.45582  0.066770736  0.068585717            3 
  366000    1.0903811   -4.0184955     292.7172  0.066647814  0.068553519            4 
  367000    1.0888493   -4.0497898    292.47861  0.066412036  0.068523171            2 
  368000    1.0911515   -4.0369048    294.61919  0.066716303  0.068493357            3 
  369000    1.1033482   -4.0189576    295.34206  0.066698748  0.068462775            2 
  370000    1.1058366   -4.0308398    296.15526  0.066701635  0.068430585            1 
  371000    1.0853645   -4.0790579     296.7997    0.0666666  0.068399722            5 
  372000    1.0981926   -4.0006452    297.14789  0.066565389  0.068367998            3 
  373000    1.1361273   -4.0599427    296.59502  0.066263408   0.06833568            2 
  374000    1.1148651   -4.0259732    297.90571  0.066378278  0.068302261            1 
  375000    1.1092903   -4.0530889    298.44877  0.066321949  0.068268733            2 
  376000    1.0889791   -4.0737426    300.10203  0.066511975  0.068235486            6 
  377000    1.0853167   -4.0263436    299.57201  0.066218392  0.068204481            2 
  378000    1.0889527   -4.0406153    300.82991  0.066320526  0.068173628            1 
  379000    1.1007327   -4.0068186     300.0828  0.065981266  0.068138682            2 
  380000    1.0956908   -4.0399546     300.3957  0.065876251  0.068102292            2 
  381000     1.112675   -4.0149956    302.10613  0.066077456  0.068065938            2 
  382000    1.1194078   -4.0383208    302.29377  0.065945413   0.06803042            4 
  383000    1.0984534   -4.0411581    301.52392  0.065605727  0.067995546            3 
  384000    1.0973818   -4.0374024    303.27568  0.065815035  0.067958846            3 
  385000     1.090968   -4.0140763    304.65888   0.06594348  0.067924416            3 
  386000    1.0941952   -4.0498058    304.98929  0.065843975  0.067890866            2 
  387000      1.09738   -4.0221453    306.31001  0.065958227  0.067856472            3 
  388000     1.076617    -4.040637     306.5292  0.065835309  0.067820923            3 
  389000    1.1071521   -4.0658589    305.62238  0.065471804  0.067782486            3 
  390000    1.0884481   -4.0345467    308.48682  0.065915986  0.067746852            2 
  391000    1.1045055   -4.0489769    308.48197   0.06574637  0.067709834            2 
  392000    1.1153114   -4.0328285    308.99032  0.065686718  0.067675622            2 
  393000    1.1086996   -4.0328791    309.49998  0.065627645  0.067642499            4 
  394000    1.0739266   -4.0842061    309.79388  0.065523239  0.067608997            2 
  395000    1.0924571   -4.0519318    310.00594  0.065402097  0.067575371            5 
  396000    1.0879892   -4.0421054    311.97101  0.065650465  0.067542038            3 
  397000    1.0949329   -4.0515415    313.47473  0.065800741  0.067508306            1 
  398000    1.0896773   -4.0524728    312.24095  0.065377083  0.067474066            2 
  399000    1.0669068   -4.0376092    314.55302   0.06569612  0.067441368            3 
  400000    1.0830257   -4.0333737     313.8014  0.065375291  0.067406983            2 
  401000    1.1023957   -4.0646038    316.53547  0.065780439  0.067371652            4 
  402000    1.1122713   -4.0457857    316.18245  0.065543626  0.067338424            3 
  403000    1.0902756    -4.010949    317.47403  0.065648062  0.067304319            3 
  404000    1.0817685   -4.0811338    317.46297  0.065483286  0.067271236            2 
  405000     1.113528   -4.0439462    317.86649  0.065404628  0.067237601            4 
  406000    1.0797229   -4.0794123    318.82798  0.065440883  0.067205099            2 
  407000    1.0882082   -4.0404937    320.32083  0.065585755  0.067172608            2 
  408000    1.0926503    -4.073342    319.82659  0.065324058  0.067139797            1 
  409000    1.0787293   -4.0254529    320.78684  0.065359992  0.067107539            3 
  410000    1.0880447   -4.0571515    321.59902  0.065365654  0.067075486            2 
  411000    1.0920098   -4.0683112    322.30167  0.065349081  0.067042936            2 
  412000    1.0859606   -4.0400209     323.2665   0.06538562  0.067009798            4 
  413000    1.0665806   -4.0540406    323.54698  0.065283894  0.066976744            3 
  414000    1.0854024   -4.0602862    323.77809  0.065172722  0.066943391            2 
  415000    1.0741328   -4.0498432    324.95005  0.065251014  0.066909909            3 
  416000    1.0862505   -4.0688138    325.37556  0.065179398  0.066877008            3 
  417000    1.0744446   -4.1111095    323.60339  0.064668943  0.066844234            3 
  418000     1.088651   -4.0592896    326.83592  0.065158675   0.06681031            2 
  419000    1.0661437   -4.0472609     328.1738  0.065269252  0.066777272            2 
  420000    1.0776737   -4.0834312    327.67356  0.065014594  0.066743904            4 
  421000    1.0926669   -4.0613417    328.01856  0.064928456  0.066709284            2 
  422000    1.0714627   -4.0748045        328.5  0.064869667  0.066675555            5 
  423000    1.0844345   -4.0713073    329.93063  0.064998154  0.066642176            2 
  424000    1.1000689   -4.0498464    330.18995  0.064895824  0.066609724            3 
  425000    1.1029904   -4.1150226    330.42884  0.064789969   0.06657749            3 
  426000    1.0744528   -4.0551196    333.03278  0.065147257  0.066547626            2 
  427000    1.0820485   -4.0791188    332.18379  0.064828998  0.066517796            2 
  428000    1.0672005   -4.0913903     332.0663  0.064654653  0.066486157            1 
  429000    1.0920785   -4.0489383    334.56704  0.064989712  0.066455787            2 
  430000    1.0694966   -4.0761966    334.93523  0.064909928  0.066425869            2 
  431000    1.0449892   -4.0557438     335.8124  0.064928925  0.066395513            2 
  432000    1.0879505   -4.0973428    336.97588  0.065003062   0.06636722            3 
  433000    1.0843304    -4.084944    337.37442  0.064929641  0.066338457            3 
  434000    1.1047831   -4.0859263    338.00016  0.064900185   0.06630951            2 
  435000    1.0711422   -4.0610734    339.10746  0.064963115  0.066279713            1 
  436000    1.0458609    -4.103259    338.85376  0.064765627  0.066250341            3 
  437000    1.0704252   -4.0398122    340.40043  0.064912363  0.066220543            3 
  438000     1.072645   -4.0738166    341.05206  0.064888139  0.066192023            2 
  439000    1.0709798   -4.1087141     339.8381   0.06450989  0.066162859            3 
  440000    1.1063712   -4.0824483    341.33184  0.064646183  0.066132352            4 
  441000    1.0650102    -4.077925    342.64882  0.064748453  0.066102651            3 
  442000    1.0688326   -4.0726782    342.03341  0.064485936  0.066073059            3 
  443000    1.0928872   -4.0882635    345.06503  0.064910653  0.066043019            4 
  444000     1.070825   -4.0429056    345.54199  0.064853977  0.066014246            2 
  445000    1.0937148    -4.091547    345.23106   0.06465001  0.065985706            3 
  446000    1.0867188    -4.082081     346.5669  0.064754652  0.065958317            2 
  447000    1.0660252   -4.0907451    346.08061  0.064519129  0.065930811            2 
  448000    1.0592671    -4.039693    349.55939  0.065022207  0.065902942            1 
  449000    1.0818687   -4.1018422    348.50659  0.064681996  0.065875234            1 
  450000    1.0811083   -4.1553454    348.56583  0.064549227  0.065847201            9 
  451000    1.0691171   -4.0635554    351.18628  0.064890296  0.065820585            1 
  452000    1.0685929   -4.0805017    351.60632  0.064824175  0.065793939            3 
  453000    1.0748059   -4.0527701    352.42509  0.064831695   0.06576958            4 
  454000    1.0497577     -4.08541    352.81077  0.064759686  0.065745232            2 
  455000     1.057232   -4.0703126    353.90951  0.064818591  0.065719522            2 
  456000    1.0604809   -4.0942595    352.84173   0.06448131   0.06569402            3 
  457000    1.0727463   -4.0836483    353.81632  0.064517929  0.065668931            4 
  458000    1.0668819   -4.0717415    354.10151  0.064428949  0.065643514            3 
  459000    1.0591747   -4.1049746    354.73529  0.064403647  0.065617753            2 
  460000    1.0815527   -4.1057873    354.44016  0.064210174  0.065591539            4 
  461000    1.0809619   -4.0722243    357.58289   0.06463899  0.065564252            5 
  462000    1.0879075   -4.1089266    358.33231  0.064634254  0.065538687            3 
  463000    1.0562673    -4.089231    359.28735   0.06466655  0.065514863            3 
  464000    1.0459618   -4.0940461    360.89116  0.064815223  0.065491832            2 
  465000    1.0757136    -4.104493    359.55502  0.064436383  0.065469285            3 
  466000    1.0484202   -4.0688986     361.2787  0.064606348  0.065446803            3 
  467000    1.0844674   -4.0901389     361.9733  0.064591952   0.06542274            1 
  468000    1.0633111   -4.0976238    362.46005  0.064540607  0.065397312            2 
  469000    1.0857148   -4.0928716    362.09987  0.064338997  0.065372379            2 
  470000    1.0558513   -4.0790552    363.74256  0.064493362  0.065347969            3 
  471000    1.0658796   -4.1186852    362.97954  0.064221433  0.065322699            2 
  472000    1.0762372   -4.1100013    363.12959  0.064111863  0.065297202            3 
  473000    1.0562399   -4.0886767    365.46385  0.064387571  0.065272284            2 
  474000    1.0641937   -4.1098439    365.88116  0.064325098  0.065248691            2 
  475000    1.0592299   -4.1081513    366.55928  0.064308645  0.065225699            2 
  476000    1.0705099   -4.1037557      368.252  0.064469887  0.065203459            6 
  477000    1.0463325   -4.0894918    369.78365  0.064602315  0.065181094            4 
  478000    1.0712274   -4.0920514    370.78728  0.064642133  0.065159678            1 
  479000    1.0877455   -4.0898173    370.36662  0.064433998  0.065137002            4 
  480000    1.0720594   -4.0973427    370.72609  0.064362169  0.065113936            2 
  481000     1.067306   -4.1064561    370.17391  0.064132694  0.065090563            1 
  482000    1.0628866   -4.1143096    371.67898  0.064259852  0.065064954            2 
  483000    1.0666121   -4.1035042    371.84143  0.064154836  0.065040242            4 
  484000    1.0310798   -4.1137312    371.69348  0.063996811  0.065015209            2 
  485000    1.0385748   -4.0929305    372.12525  0.063939047  0.064989588            4 
  486000    1.0494904   -4.1051948    371.13479  0.063637652  0.064963851            4 
  487000    1.0502355   -4.0991737    373.59848  0.063928556  0.064937536            5 
  488000    1.0652801    -4.092614    373.19875  0.063729295  0.064911181            4 
  489000    1.0649533    -4.074203    374.42927  0.063808669   0.06488511            1 
  490000    1.0529337   -4.1193764     374.0522  0.063614319  0.064859836            2 
  491000    1.0647352   -4.1433442    376.10115   0.06383251  0.064834593            4 
  492000    1.0787267   -4.1011031    377.29086  0.063904278  0.064808972            6 
  493000    1.0616918   -4.1211599    377.88031  0.063874291  0.064783048            3 
  494000    1.0832985   -4.0866821    378.27849  0.063812161  0.064758401            2 
  495000    1.0683929   -4.1170682     379.2171  0.063841263  0.064733707            3 
  496000     1.030624   -4.1128588     380.0771   0.06385704  0.064707708            1 
  497000      1.07172   -4.1100546     379.3669  0.063609474  0.064681155            3 
  498000    1.0646479   -4.1213219     381.0987  0.063771536   0.06465408            4 
  499000    1.0560015   -4.1219045    381.52186  0.063714405  0.064627533            3 
  500000     1.061921   -4.1183084    382.07186  0.063678643  0.064601504            3 
  501000    1.0473379   -4.1038524     382.7229  0.063659831  0.064575948            3 
  502000     1.053214   -4.1338702    381.49599  0.063329348  0.064548857            2 
  503000    1.0579166   -4.1309233    382.45066  0.063361606  0.064522308            2 
  504000    1.0594101   -4.1158796    383.68229  0.063439532  0.064495481            6 
  505000     1.049998   -4.1127265    384.76859  0.063493166  0.064469516            2 
  506000    1.0330489    -4.146036    386.34727  0.063627679  0.064443975            1 
  507000    1.0617106   -4.1402374    385.41027  0.063348171  0.064417871            3 
  508000    1.0785512   -4.1152768    384.89253  0.063138538  0.064392525            2 
  509000    1.0685295   -4.1712691    387.10288  0.063376371  0.064365878            3 
  510000    1.0499291   -4.0894139    387.97865  0.063395204  0.064340609            3 
  511000     1.059125   -4.1547227    387.81985  0.063245246  0.064313834            2 
  512000    1.0517689   -4.1181826    391.32232  0.063691785  0.064287559            2 
  513000    1.0247021    -4.104294    389.66132   0.06329781  0.064261595            2 
  514000    1.0589534   -4.1280679    390.71198  0.063345002  0.064236722            3 
  515000    1.0664141   -4.1336239    392.10166  0.063446871   0.06421216            5 
  516000    1.0290914   -4.1048729     392.3844  0.063369573  0.064187169            2 
  517000    1.0758907   -4.1267555    390.42273  0.062930807  0.064160372            4 
  518000    1.0437959   -4.0842252    392.80839  0.063193113  0.064133325            4 
  519000    1.0613042   -4.1749005     393.2816  0.063147335  0.064105894            2 
  520000    1.0394596   -4.1503324    394.38247  0.063202319  0.064079173            3 
  521000    1.0516156   -4.1222008    394.82206  0.063151321   0.06405247            3 
  522000    1.0625041   -4.1431743       395.69  0.063168901  0.064027611            3 
  523000    1.0429273   -4.1403995    394.57068   0.06286977  0.064002058            4 
  524000    1.0544747   -4.1480843    395.87724  0.062957576  0.063975345            2 
  525000    1.0647921    -4.170788    396.79607  0.062983503   0.06394885            2 
  526000    1.0219294   -4.1403358    397.11407  0.062914143  0.063923171            1 
  527000    1.0361629   -4.1405744    398.48365  0.063011329  0.063897348            3 
  528000    1.0514683   -4.1486463    399.36765   0.06303151  0.063871849            4 
  529000     1.061813   -4.1556485    399.33552  0.062907296  0.063845684            5 
  530000    1.0397303   -4.1272549    399.70306  0.062846393  0.063819474            3 
  531000    1.0669884   -4.1270371    399.89086  0.062757512  0.063793874            2 
  532000    1.0505855   -4.1698021     400.2244  0.062691792  0.063768395            1 
  533000    1.0441689    -4.156833    400.96833  0.062690484  0.063743586            5 
  534000    1.0398794   -4.1352212    401.65145   0.06267969  0.063716744            2 
  535000    1.0599209   -4.1535214    403.14959  0.062795886  0.063690838            2 
  536000    1.0271549   -4.1350211    403.36306  0.062711919  0.063664466            3 
  537000     1.047551   -4.1151992    405.81234  0.062975223  0.063639947            4 
  538000    1.0254499   -4.1520491    404.40097  0.062639556   0.06361527            2 
  539000    1.0429047   -4.1292076    406.26141  0.062810978  0.063590266            1 
  540000    1.0435999   -4.1631185    405.99156  0.062653019  0.063565825            2 
  541000    1.0647506   -4.1591378    408.26029  0.062886674  0.063540745            2 
  542000    1.0572421   -4.1591442    408.62359  0.062826505  0.063515331            3 
  543000    1.0179731   -4.1147764    408.82096  0.062741093  0.063489982            4 
  544000     1.040804   -4.1416775    408.19841  0.062530394  0.063464182            2 
  545000    1.0334053   -4.1345988    408.15647  0.062409246  0.063438697            2 
  546000    1.0521036   -4.1308972    409.17176  0.062449903  0.063411769            7 
  547000    1.0226524   -4.1538898    409.87685  0.062443151  0.063385464            5 
  548000    1.0076598   -4.1496445    410.27748  0.062390127   0.06335813            3 
  549000    1.0346739   -4.1613743     411.4872  0.062460109  0.063330795            4 
  550000    1.0288712   -4.1300325     411.2852  0.062315939  0.063303959            1 
  551000    1.0309148   -4.1441873    411.62393  0.062254073   0.06327692            2 
  552000    1.0580194   -4.1917461    411.90622   0.06218391  0.063249742            3 
  553000    1.0436749   -4.1355704    413.43999  0.062302591  0.063223088            2 
  554000    1.0391212   -4.1307662    413.54972  0.062206637  0.063195773            4 
  555000    1.0313523   -4.1524844     412.9284  0.062001261    0.0631683            4 
  556000    1.0629417   -4.1355383    416.26494  0.062389829  0.063141191           11 
  557000    1.0043449   -4.1595732    416.10758  0.062254276  0.063113412            4 
  558000    1.0377626   -4.1599987    414.76107  0.061941617  0.063085119            3 
  559000    1.0325012   -4.2111176    415.95556  0.062008879  0.063057055            3 
  560000    1.0366809   -4.1356957    417.24581  0.062090151  0.063027929            3 
  561000    1.0229299   -4.1414998    417.19464  0.061971871  0.063000071            2 
  562000      1.04734   -4.1764023     417.4331   0.06189696  0.062971995            5 
  563000    1.0177426   -4.1566207    419.82821  0.062141536  0.062943668            3 
  564000    1.0292894     -4.15511    418.54524  0.061841791  0.062916292            2 
  565000    1.0373226    -4.150938    419.26632  0.061838691  0.062889471            2 
  566000     1.004267   -4.1440559    422.21781  0.062163988  0.062862564            4 
  567000    1.0179319   -4.1712281    421.11457  0.061892207   0.06283508            5 
  568000    1.0479666   -4.1854753    421.72388  0.061872635  0.062807836            2 
  569000    1.0134364   -4.1782606    422.83398  0.061926477  0.062780503            4 
  570000    1.0202443   -4.1512673    424.37142  0.062042606  0.062754308            4 
  571000     1.028103   -4.1611697    423.39397  0.061791297  0.062728682            3 
  572000    1.0305676   -4.1550013    425.20301  0.061946825  0.062703132            3 
  573000    1.0339814   -4.1283904    425.10452  0.061824392   0.06267676            3 
  574000    1.0207447   -4.1719562    427.54636  0.062071191  0.062650928            1 
  575000    1.0054981   -4.1737191    427.59976   0.06197098   0.06262547            5 
  576000    1.0249753   -4.1679047    425.57425  0.061570349  0.062599414            4 
  577000    1.0219162    -4.138438    427.27706   0.06170957  0.062572579            2 
  578000   0.99869468   -4.1672586    428.66714  0.061803221  0.062545198            4 
  579000    1.0263617   -4.1535166    427.28834  0.061498034  0.062517491            2 
  580000    1.0164393   -4.1418361    428.87463  0.061619918  0.062489555            4 
  581000      1.02824   -4.1938882    429.17134  0.061556417  0.062461017           11 
  582000    1.0308902   -4.1578494    428.56076  0.061363225  0.062433786            2 
  583000    1.0219249   -4.1706556    429.96499   0.06145869  0.062406199            1 
  584000   0.99827905   -4.1456956    430.37521  0.061411988  0.062377651            2 
  585000    1.0021688   -4.1779001    430.57039  0.061334813  0.062349473            2 
  586000   0.99920486   -4.1528319    432.35045  0.061483283   0.06232059            2 
  587000    1.0264728   -4.1638921    432.80165  0.061442597  0.062292384            5 
  588000    1.0049636   -4.1660022    432.47196  0.061291377  0.062264759            3 
  589000     1.016284   -4.1737259    432.86995  0.061243627  0.062237105            5 
  590000     1.008747   -4.1785272    432.72924  0.061119949  0.062208488            3 
  591000    1.0120853    -4.181676    434.31161  0.061239652  0.062180213            2 
  592000    1.0098235   -4.1592305    435.38251  0.061286953  0.062152265            3 
  593000    1.0085557   -4.1786832    437.21514  0.061441138   0.06212434            2 
  594000    1.0058315   -4.1348866    437.22253  0.061338738   0.06209642            2 
  595000    1.0082863    -4.162878    437.26313  0.061241335  0.062068886            2 
  596000    1.0032305   -4.1727878    438.10073  0.061255695  0.062041266            3 
  597000    1.0094168   -4.1975474    435.96225  0.060854586  0.062013131            3 
  598000    1.0149605   -4.1900592     437.6794  0.060992113  0.061984477            6 
  599000    1.0113768   -4.1541703    439.82002  0.061188094  0.061956035            2 
  600000    1.0174035   -4.2057931    438.08914  0.060845714  0.061927136            4 
  601000    1.0120181   -4.1987662    438.03985  0.060737639  0.061898615            4 
  602000   0.99267853   -4.1594095    440.43754  0.060968652  0.061869844            2 
  603000    1.0136833   -4.1732225    441.75643   0.06104981  0.061840794            3 
  604000    1.0249919   -4.1857579    441.15512  0.060865772  0.061812585            3 
  605000    1.0168998   -4.1788393    441.97704  0.060878381  0.061783078            1 
  606000    1.0220359   -4.2062294    441.76798  0.060749172  0.061753692            3 
  607000   0.99949777   -4.1957311    443.46459  0.060882013  0.061724346            2 
  608000   0.99134676     -4.18296    442.45119  0.060642982  0.061694924            1 
  609000    1.0138074   -4.1852472    442.49627  0.060549572  0.061665146            5 
  610000    1.0147544   -4.1577239    444.94993  0.060785509  0.061635554            4 
  611000    1.0102676   -4.1696837    443.90604   0.06054365  0.061606125            4 
  612000    1.0282345   -4.1767335    443.87472  0.060440458   0.06157685            3 
  613000   0.99486546   -4.1929103    444.74995  0.060460842  0.061546711            6 
  614000   0.98357677    -4.195399    448.40464  0.060858392  0.061518039            3 
  615000    1.0135484   -4.1654311     447.9643   0.06069977  0.061488772            3 
  616000    1.0117656   -4.2053363    447.53803  0.060543564  0.061459359            1 
  617000    1.0127773   -4.2051106     448.1698  0.060530768  0.061430515            2 
  618000    1.0200246    -4.202014    447.31473   0.06031752  0.061401109            7 
  619000   0.99333695   -4.2093953    448.30895  0.060353924  0.061372474            4 
  620000    1.0125345    -4.187544    448.80474  0.060323218  0.061343448            7 
  621000    1.0245938    -4.181059    448.78066  0.060222847  0.061314968            3 
  622000    1.0077172   -4.1816765    450.56496   0.06036508  0.061285872            3 
  623000    1.0031885    -4.213009    450.77188  0.060295864  0.061257367            4 
  624000   0.98681407   -4.1811932    452.42592  0.060420128  0.061228421            1 
  625000    1.0012703   -4.2193659     452.7908  0.060372106  0.061199152            3 
  626000   0.99698815   -4.1831617    452.65306   0.06025733  0.061171289            4 
  627000   0.99932431   -4.1765509    453.66034    0.0602951   0.06114279            2 
  628000   0.96733779   -4.1623003    455.04073  0.060382262  0.061113494            5 
  629000    1.0056605   -4.1926847    454.94563  0.060273666  0.061085007            3 
  630000    1.0013641     -4.18521    455.12364  0.060201539  0.061056085            2 
  631000   0.99930603   -4.1815853    455.72252  0.060185224  0.061027337            4 
  632000   0.99817727   -4.2241915    455.19267   0.06002013  0.060999003            6 
  633000   0.97532641   -4.1984218    455.11825  0.059915515  0.060970376            2 
  634000    1.0045979   -4.2392333    456.78722  0.060040381  0.060942074            4 
  635000   0.97771559   -4.1891845    458.10902  0.060119294  0.060914238            2 
  636000    1.0028675   -4.1820754    459.06009  0.060149383  0.060886348            6 
  637000   0.99693737   -4.2136418     460.3276  0.060220774  0.060858537            2 
  638000   0.99739066   -4.1832207    460.06866  0.060092563  0.060830212            4 
  639000   0.99426344   -4.2300433    459.11271  0.059873854  0.060800901            2 
  640000   0.99026757   -4.2220656    460.26608  0.059930478  0.060772502            6 
  641000    0.9859145   -4.1893305    459.57731  0.059747441  0.060744167            2 
  642000   0.97249418   -4.2228625    460.49441  0.059773418  0.060714828            2 
  643000    1.0136735   -4.1939597    461.53055  0.059814742  0.060685582            3 
  644000    1.0077419   -4.2242788    460.99638  0.059652741  0.060656634            7 
  645000    1.0043942    -4.242396    460.89435  0.059547074  0.060627102            3 
  646000    1.0060112   -4.2193697    461.89181  0.059583567  0.060598568            2 
  647000   0.99135686     -4.18721    464.78549   0.05986418  0.060569703            4 
  648000   0.98178321   -4.1811517    464.75887  0.059768373  0.060541348            3 
  649000    1.0010118   -4.2012145    464.55008  0.059649471  0.060512876            3 
  650000    0.9920076   -4.2062782     464.1673  0.059508628  0.060484747            1 
  651000   0.98182938    -4.226288    464.56869  0.059468598  0.060456054            2 
  652000   0.97165571   -4.1893392    467.05258   0.05969486  0.060427034            3 
  653000    1.0018521   -4.2295828     465.7517   0.05943743  0.060397851            5 
  654000   0.99398741   -4.2097286    467.74242  0.059600206  0.060369364            2 
  655000   0.97803755   -4.2440463    470.07067  0.059805429  0.060341262            9 
  656000    0.9877938   -4.2219009    466.17227  0.059219038  0.060313641            2 
  657000   0.99053958   -4.2133717     468.7474   0.05945553  0.060284241            4 
  658000   0.98618851   -4.2256385      468.707  0.059360056  0.060255421            3 
  659000   0.98281875   -4.2334805    469.24097  0.059337503  0.060226231            4 
  660000    1.0117234   -4.1876116    469.88432  0.059328828  0.060197797            2 
  661000   0.97949561   -4.2200219    471.05181   0.05938626  0.060169534            4 
  662000   0.97217407   -4.2142641    471.50637  0.059353772  0.060141058            4 
  663000   0.98600786   -4.1859153    473.24039    0.0594822  0.060113483            2 
  664000   0.99801997   -4.2491098    473.80394  0.059463346  0.060085504            5 
  665000   0.98139453   -4.2135846    474.24265  0.059428904  0.060057666            4 
  666000   0.98287116   -4.2118502    474.43035  0.059363156  0.060030079            3 
  667000    1.0071532    -4.268932     474.9133  0.059334495  0.060003032            4 
  668000   0.96725656   -4.2090099    474.04328  0.059137135  0.059976365            2 
  669000    1.0024777    -4.247306    475.97429  0.059289274  0.059949217            2 
  670000   0.98892079   -4.2221373    474.82794  0.059058201  0.059921553            4 
  671000   0.98216937   -4.2483527    475.63405    0.0590703  0.059893652            2 
  672000    1.0009401   -4.2445098    475.25341  0.058935194   0.05986561            3 
  673000   0.97451494   -4.2249911    475.83937  0.058920179  0.059837808            2 
  674000   0.98480437   -4.2490816    477.71615  0.059064806  0.059810484            6 
  675000   0.99181763   -4.2720934    477.41518  0.058940145  0.059782868            5 
  676000   0.97927355   -4.2024722    478.39263   0.05897345  0.059755915            4 
  677000   0.97404701   -4.2541278     478.5327  0.058903582   0.05972844            6 
  678000   0.98741462   -4.2558113     480.1064  0.059010128  0.059701457            6 
  679000    1.0015191   -4.2555229    480.21594  0.058936664  0.059674796            4 
  680000   0.99340856   -4.2458278    482.43968  0.059122509  0.059648949            4 
  681000   0.96379512   -4.2356444    480.10822  0.058750394  0.059622073            2 
  682000   0.97289282   -4.2311339    482.71324  0.058982557  0.059595125            3 
  683000    1.0030208   -4.2318101    483.70002  0.059016596  0.059568109            4 
  684000   0.99229185   -4.2149429    482.09238  0.058734452  0.059541628            3 
  685000   0.97933185   -4.2298963     483.9182  0.058870828  0.059513981            5 
  686000   0.95955549    -4.252063    483.22562  0.058700877  0.059486833            3 
  687000    1.0058694   -4.2480832    483.82939   0.05868867  0.059459357            2 
  688000   0.96666138    -4.232883    485.96726  0.058862314  0.059432641            4 
  689000    0.9882359   -4.2462997    485.10429  0.058672507  0.059405259            3 
  690000   0.99835464   -4.2656857    483.39814  0.058381418  0.059376667            3 
  691000   0.99411542   -4.2432307    487.07237  0.058740035  0.059349208            6 
  692000   0.98015519   -4.2216901     486.3045  0.058562681  0.059321359            4 
  693000   0.95143299    -4.253291    485.29342  0.058356592  0.059293616            6 
  694000   0.97183191   -4.2290386    488.21933  0.058623838  0.059266075            3 
  695000    0.9745466   -4.2639385    489.56922  0.058701345  0.059238575            3 
  696000   0.97171705   -4.2771576    487.36442   0.05835302   0.05921044            2 
  697000   0.98197467    -4.250738    489.42161  0.058515257  0.059182358            6 
  698000     0.979266   -4.2625688    488.58722  0.058331808  0.059154034            3 
  699000   0.97563684   -4.2439833    487.54189  0.058123735   0.05912578            4 
  700000   0.95796677   -4.2733787    489.77458  0.058306498   0.05909689            8 
  701000   0.96196393   -4.2631761    489.74265  0.058219525  0.059067977            6 
  702000   0.98439784   -4.2497263    490.35776   0.05820961   0.05903933            5 
  703000    1.0071093   -4.2250618    492.27764   0.05835439  0.059011162            8 
  704000   0.98430187   -4.2400664    494.04721  0.058480967  0.058983842            4 
  705000   0.97762221   -4.2307579    493.71664  0.058358941  0.058955912            3 
  706000   0.98416742   -4.2446568    492.97121  0.058188292   0.05892781            3 
  707000   0.96604534    -4.251241    493.54468  0.058173584  0.058899447            3 
  708000   0.95129221   -4.2358329    494.93841  0.058255463  0.058870614            5 
  709000   0.95547516   -4.2697356    492.30775  0.057864098  0.058841587            3 
  710000    0.9495047   -4.2542741    494.73406  0.058067378  0.058813108            8 
  711000    0.9784148   -4.2430184     495.7366  0.058103211    0.0587849            8 
  712000   0.95414922    -4.245453    495.14801  0.057952716  0.058755998            3 
  713000   0.97059758   -4.2507455     495.8823  0.057957258  0.058727216            3 
  714000   0.96997189   -4.2763072    492.79111  0.057515302  0.058697941            2 
  715000   0.97163954   -4.2650546    496.64831  0.057884419  0.058669683            4 
  716000   0.97726748   -4.2051809    497.33427  0.057883411  0.058641361            4 
  717000   0.96685376   -4.2473361    496.80528    0.0577412   0.05861297            2 
  718000   0.97399005   -4.2797969    498.47767  0.057854883  0.058584707            4 
  719000   0.96201043   -4.3086894    499.14295  0.057851524   0.05855614            2 
  720000   0.96294087   -4.2651151    497.43781   0.05757382  0.058527477            5 
  721000   0.98126494   -4.2451244    500.84456  0.057887721  0.058499424            3 
  722000   0.96280326    -4.241777    501.73267   0.05791005  0.058471699            2 
  723000    0.9677099   -4.2743379    501.90359  0.057849653  0.058443912            5 
  724000   0.95242305   -4.2641823    501.16633  0.057684891  0.058415533            3 
  725000   0.97941383   -4.2997978    500.21901  0.057496438  0.058386743            2 
  726000   0.96394263   -4.2682182    502.46313  0.057674831  0.058358974            4 
  727000   0.97498382   -4.2636989    503.42385  0.057705623  0.058331225            2 
  728000   0.98435619   -4.2621733    501.66791  0.057425356  0.058303255            3 
  729000    0.9491959   -4.2440179    505.97839  0.057839322  0.058275732            3 
  730000   0.96391917    -4.267074     504.0461  0.057539509  0.058248373            4 
  731000   0.96508352   -4.2559176    504.43678  0.057505333  0.058220823            2 
  732000   0.98032836   -4.2469145    507.01622  0.057720426  0.058194119            3 
  733000   0.96166006   -4.2651726    507.34447  0.057678998  0.058167253            4 
  734000    0.9528648   -4.2696627    507.31193  0.057596723  0.058139024            5 
  735000   0.95698624   -4.2732681    504.98116    0.0572541  0.058110626            3 
  736000    0.9666098    -4.257785    507.12989  0.057419599  0.058081983            2 
  737000   0.95359064   -4.2699047    508.56939  0.057504453  0.058053702            3 
  738000   0.96112171   -4.2774562    508.57702  0.057427396  0.058024855            5 
  739000   0.94877753   -4.3120124    508.08222  0.057293891  0.057996627            5 
  740000    0.9672719   -4.2890361    508.08146  0.057216381  0.057968545            5 
  741000   0.96091148   -4.3040149    507.67267  0.057093193    0.0579396            2 
  742000   0.93817372   -4.2893839    510.00841  0.057278573  0.057910447            3 
  743000    0.9536873   -4.3096182    507.98012  0.056973993  0.057881465            3 
  744000   0.96749072   -4.2764136    508.46401  0.056951615  0.057852426            2 
  745000   0.96013069   -4.2897334    510.49976  0.057102881  0.057823021            3 
  746000    0.9698789   -4.2465146    510.63333  0.057041257  0.057793741            3 
  747000   0.98029789    -4.297405    508.39853  0.056715588  0.057764279            5 
  748000   0.95122222   -4.2938336    509.99159  0.056817245  0.057734433            4 
  749000   0.94720186   -4.3021215    510.66471  0.056816279  0.057704492            1 
  750000   0.95598868   -4.2805946    512.50855  0.056945394  0.057674458            4 
  751000   0.96613433   -4.2704378    512.40949  0.056858576  0.057644665            7 
  752000   0.95217291   -4.2983572    512.07986  0.056746438  0.057615279            4 
  753000   0.95554143   -4.3001541    513.39572  0.056816702  0.057585583            1 
  754000   0.93340451   -4.3075644    513.85269  0.056791853   0.05755588            2 
  755000   0.95470059   -4.2928507    511.73867  0.056483296  0.057526068            3 
  756000   0.95454585   -4.2804341    513.95967  0.056653402  0.057496802            3 
  757000   0.95123075   -4.2937513     515.2109  0.056716304  0.057467161            3 
  758000   0.96227019   -4.2730005    515.84757  0.056711474  0.057438359            5 
  759000   0.95324263   -4.2965943    516.57684  0.056716825   0.05740951            3 
  760000    0.9417724    -4.302882    515.37906  0.056510862  0.057381522            3 
  761000   0.95473687   -4.3094014    516.74829  0.056586541  0.057352411            4 
  762000   0.95347601   -4.2533016     519.8515  0.056851651   0.05732416            4 
  763000   0.94580845   -4.3222167     517.8601  0.056559643  0.057296647            2 
  764000   0.95782189   -4.2883757    520.81329  0.056807732  0.057268435            7 
  765000   0.93997571   -4.3024777    518.49785  0.056481248  0.057239718            2 
  766000   0.95102549    -4.289856    518.05063  0.056358858  0.057211277            3 
  767000   0.93900313   -4.3040488    521.33327  0.056642033  0.057182985            5 
  768000   0.96290789   -4.2805571    521.65861  0.056603581  0.057154156            4 
  769000   0.94613686   -4.3224462    520.17693  0.056369411  0.057125594            6 
  770000   0.96096172   -4.2900125    521.58692  0.056448801  0.057097842            2 
  771000   0.95120176   -4.2974289     522.8176  0.056508604  0.057070512            3 
  772000   0.94403088   -4.3073701    522.73001  0.056425951  0.057042568            4 
  773000   0.94625817   -4.2871982    523.95504  0.056485019  0.057014846            4 
  774000   0.97368561    -4.308842    523.71873  0.056386599  0.056987505            2 
  775000   0.92167292   -4.3164749    523.87097  0.056330211  0.056960004            3 
  776000   0.96011242   -4.2925294     526.1821   0.05650581  0.056932438            4 
  777000   0.94891093   -4.3119366     527.6975  0.056595613   0.05690579            2 
  778000   0.93935001   -4.3017509     525.6477   0.05630331  0.056879235            4 
  779000   0.94476666    -4.304425    525.94832  0.056263192  0.056852567            2 
  780000    0.9489478   -4.2599962    527.13741  0.056318099  0.056825523            3 
  781000   0.94194518   -4.2784961    529.08691  0.056454002  0.056799037            2 
  782000   0.95304541   -4.3030803    529.51721  0.056427665  0.056773281            1 
  783000   0.93395808   -4.2889125    530.14074   0.05642196  0.056747441            8 
  784000   0.91720103   -4.3224034    528.26803  0.056150938  0.056720846            3 
  785000    0.9523723   -4.2734084    530.26232  0.056291117  0.056694228            3 
  786000   0.93378903   -4.2860896    531.00544  0.056298287  0.056667882            2 
  787000    0.9446736   -4.3136091    529.55039   0.05607268  0.056640787            3 
  788000   0.93896204   -4.3405243    530.22828  0.056073211  0.056614788            4 
  789000    0.9366998   -4.3257096    532.37101  0.056228455  0.056588112            4 
  790000   0.93373928   -4.3305266    532.42254  0.056162715  0.056562109            5 
  791000   0.94552047   -4.3163008    532.33617  0.056082614  0.056536393            7 
  792000   0.92723936   -4.3159009    532.87019  0.056067991  0.056510079            2 
  793000   0.93181625   -4.3086726    534.39556  0.056157583  0.056484373            3 
  794000   0.95441395   -4.3247619    534.83834  0.056133327  0.056458599            3 
  795000   0.94487394     -4.31675    534.55542  0.056033063  0.056432979            2 
  796000   0.92177923   -4.3123908    538.08144  0.056331809  0.056407488            3 
  797000   0.91416336   -4.3218648    538.46158  0.056300877  0.056381674            3 
  798000   0.90667017    -4.332243    536.40405   0.05601546   0.05635554            6 
  799000   0.93757859   -4.3311398    537.58794  0.056068829  0.056330144            7 
  800000     0.937475   -4.2903721    537.68292  0.056008638  0.056305088            3 
  801000   0.94585713   -4.3241397    538.23519   0.05599617  0.056280147            4 
  802000   0.93145946   -4.3099377    538.65495  0.055969966  0.056255093            4 
  803000   0.93425612   -4.2967189    539.72787  0.056011609  0.056230192            2 
  804000   0.94028921    -4.291818    541.06855  0.056080903  0.056205368            6 
  805000   0.93778247   -4.3325266    540.85239   0.05598886  0.056180608            3 
  806000   0.95019803    -4.310193    541.68575  0.056005557  0.056155765            5 
  807000   0.93528204   -4.3086944    541.99388  0.055967976  0.056130418            4 
  808000   0.92596357    -4.307168     541.0954  0.055806044  0.056104876            6 
[...]
 1800000   0.52868652   -5.0959307    727.82503  0.033695603  0.033002598           14 
 1801000   0.53382135   -5.1141812     728.0335   0.03368654  0.032981345           12 
 1802000   0.52047282   -5.1173586    727.07517  0.033623528  0.032960056           44 
 1803000   0.53959222   -5.0971075    727.57417  0.033627943  0.032938808           18 
 1804000   0.52461131   -5.0886977    728.81343  0.033666548  0.032917545           14 
 1805000   0.53416261   -5.1143955    728.48864  0.033632901   0.03289628           14 
 1806000   0.53498166    -5.123093    727.18573  0.033554159   0.03287494           20 
 1807000   0.53058311   -5.1156675    728.89779  0.033614545  0.032853662           18 
 1808000   0.52280593   -5.1212416    726.79542  0.033499052  0.032832406           12 
 1809000   0.51659062   -5.1224342    725.86337  0.033437598  0.032811082           20 
 1810000   0.53008694   -5.1221396    727.09128  0.033475658  0.032789782           15 
 1811000   0.52372719   -5.1199691    727.80628  0.033490074  0.032768455           15 
 1812000   0.53299294   -5.1177954    728.64466  0.033510148   0.03274718           31 
 1813000   0.53382091   -5.1167997    727.79687  0.033452697  0.032725984            8 
 1814000   0.53433629   -5.0957993    726.92432  0.033394171  0.032704775           36 
 1815000   0.52859606    -5.116309    727.80144  0.033416044   0.03268359           15 
 1816000   0.52314871    -5.114827    726.78904  0.033351186  0.032662455           21 
 1817000     0.519601    -5.123651    727.42573  0.033362031  0.032641253           16 
 1818000   0.52077903   -5.1367299    727.93301  0.033366933  0.032620037           14 
 1819000   0.52470188   -5.1272401    727.49579  0.033328559   0.03259885           16 
 1820000   0.52652684   -5.1208028    728.62494  0.033361948  0.032577708           17 
 1821000   0.52951094   -5.1250445    726.15684  0.033230681  0.032556493            6 
 1822000   0.51710939   -5.1365214    726.94477   0.03324848  0.032535282           25 
 1823000   0.53468853   -5.1234485    727.45224  0.033253439  0.032514074           25 
 1824000   0.53122997   -5.1151382    727.10315   0.03321926  0.032492844           14 
 1825000    0.5115398   -5.1320751      728.186  0.033250502  0.032471701           12 
 1826000   0.51974658   -5.1284049    727.50588  0.033201254  0.032450532           15 
 1827000   0.51717543   -5.1205819    727.93725  0.033202757  0.032429399           13 
 1828000   0.52472832   -5.1467083    726.03635  0.033097937  0.032408236            9 
 1829000    0.5252113   -5.1445852    726.47135   0.03309966  0.032387061           14 
 1830000   0.51953076   -5.1568742    728.39268  0.033169066  0.032365967           23 
 1831000   0.52960692   -5.1343163    727.84901  0.033126207  0.032345002           25 
 1832000   0.50409723     -5.12123    727.87283  0.033109208  0.032323957           17 
 1833000   0.51748921    -5.137223    726.48819  0.033028195  0.032302861           30 
 1834000   0.52543592   -5.1270882    727.38416  0.033050898  0.032281798           43 
 1835000   0.52358585   -5.1492759    727.39904  0.033033562   0.03226076           36 
 1836000   0.52166908   -5.1382317    729.39674  0.033106243  0.032239673           41 
 1837000   0.52388775   -5.1635403    726.91288  0.032975543  0.032218584           21 
 1838000   0.51998514   -5.1462924    726.98349  0.032960804  0.032197494           18 
 1839000   0.52491679    -5.139513    726.79813  0.032934481  0.032176561           22 
 1840000        0.517   -5.1334469    728.85284   0.03300964  0.032155604           13 
 1841000   0.52758257   -5.1314099    728.93641  0.032995492  0.032134671           34 
 1842000   0.51721441   -5.1447981    727.92171  0.032931673  0.032113785           43 
 1843000   0.52410162     -5.14705     728.4725   0.03293871  0.032092888           21 
 1844000   0.51511484   -5.1501077    728.12072  0.032904949  0.032071945           45 
 1845000   0.51913418   -5.1348403    728.85255  0.032920169   0.03205113           14 
 1846000   0.51912979   -5.1275777     727.9519  0.032861678  0.032030387           25 
 1847000   0.52085553   -5.1466591     727.3697  0.032817619  0.032009612           18 
 1848000   0.51826137   -5.1554429    727.73057  0.032816133  0.031988789           20 
 1849000   0.51084004   -5.1258871    726.78218  0.032755642  0.031968042           28 
 1850000   0.51135889   -5.1422434    729.56782  0.032863415  0.031947232           20 
 1851000   0.51940207   -5.1522989     727.1986  0.032738997  0.031926489           12 
 1852000    0.5244317   -5.1349665     728.0348  0.032758945  0.031905723           27 
 1853000   0.52288547   -5.1558581    729.76166  0.032818927  0.031885016           19 
 1854000   0.51633171   -5.1477949    728.80574  0.032758259  0.031864257           17 
 1855000   0.50959579   -5.1470736    728.10237  0.032709001  0.031843575           84 
 1856000   0.50795171   -5.1402813    729.26704  0.032743671  0.031822893           18 
 1857000   0.51961459   -5.1564339    725.48568  0.032556349  0.031802203           23 
 1858000   0.50050172   -5.1629469    728.53278  0.032675493  0.031781416           36 
 1859000   0.50728065   -5.1574146    727.36748  0.032605679  0.031760694           33 
 1860000   0.49783686   -5.1725162    727.58259  0.032597786  0.031739986           39 
 1861000   0.51607111   -5.1654583    727.70388  0.032585701  0.031719317           19 
 1862000    0.5040892   -5.1631898    726.70208  0.032523365  0.031698627           16 
 1863000   0.52055219   -5.1663271    726.75287   0.03250818  0.031677919           29 
 1864000   0.50366328   -5.1762193    727.44958  0.032521887  0.031657225           16 
 1865000   0.51514271   -5.1552725    728.08319  0.032532761  0.031636547           42 
 1866000   0.51185472   -5.1648843    725.98895    0.0324218  0.031615915           27 
 1867000   0.49909565   -5.1558572    728.76245  0.032528229  0.031595223           51 
 1868000   0.51607892   -5.1789656    726.87081  0.032426428   0.03157453           59 
 1869000   0.51356003   -5.1582279    727.54262  0.032439032  0.031553857           37 
 1870000   0.49965016   -5.1856534    727.08445  0.032401268  0.031533135           11 
 1871000   0.51134431   -5.1527236     727.6812  0.032410529  0.031512478           28 
 1872000   0.50592699   -5.1757044     727.8824  0.032402172  0.031491855           37 
 1873000   0.50689481   -5.1729193    725.65204   0.03228564  0.031471202           42 
 1874000   0.51179806   -5.1605181    727.20876  0.032337636  0.031450606           23 
 1875000   0.50242683   -5.1764526    726.29107  0.032279603  0.031430014           24 
 1876000   0.51323515   -5.1609894    727.23506  0.032304329  0.031409383           29 
 1877000   0.50122754   -5.1682184    728.30741  0.032334728  0.031388763           22 
 1878000   0.50546444   -5.1619527    728.80238  0.032339474  0.031368162           19 
 1879000   0.50500581   -5.1642471    727.73485  0.032274918  0.031347557           16 
 1880000    0.5023929   -5.1553352    728.10132  0.032273995  0.031327019           19 
 1881000   0.51919133   -5.1764926    728.69069  0.032282947   0.03130652           17 
 1882000   0.49218488   -5.1741843    727.16362  0.032198177  0.031285945           15 
 1883000   0.50045969   -5.1779479    726.41349   0.03214788  0.031265358           32 
 1884000   0.51515216   -5.1870353    727.40643  0.032174736  0.031244764           43 
 1885000   0.50420494    -5.192923    727.36736   0.03215594  0.031224161           38 
 1886000   0.51085038   -5.1640123    726.41186  0.032096671  0.031203587           24 
 1887000   0.49406252   -5.1790398    727.98042  0.032148932   0.03118306           25 
 1888000    0.5101768   -5.1838414    727.17909  0.032096535  0.031162559           27 
 1889000   0.50322037   -5.1872245    728.70674  0.032146936  0.031142146           26 
 1890000   0.49550504   -5.1689548      728.253  0.032109921  0.031121689           39 
 1891000   0.50131656   -5.1817191    727.91076  0.032077858  0.031101321           43 
 1892000   0.49958365   -5.1850968    726.95387  0.032018758  0.031080889           44 
 1893000   0.49737969   -5.1973198    726.77641  0.031994031  0.031060394           31 
 1894000   0.49118107   -5.1945484    725.58084  0.031924535   0.03103989           38 
 1895000    0.4887663    -5.205281    726.99869  0.031970039  0.031019378           15 
 1896000   0.50694071   -5.2059178    725.22702  0.031875309  0.030998879           27 
 1897000   0.49114725    -5.200107    726.31183   0.03190616  0.030978328           24 
 1898000   0.49598366   -5.1968531    728.01974  0.031964337  0.030957877           17 
 1899000   0.49752123   -5.1768187    728.42851  0.031965443  0.030937459           38 
 1900000   0.50030003   -5.1939201    727.40676  0.031903805  0.030917022           39 
 1901000    0.4928483   -5.1986871     726.0859  0.031829121   0.03089661           24 
 1902000   0.48770725   -5.1946505     726.9491  0.031850206  0.030876193           15 
 1903000    0.5065465   -5.1922938    726.79027  0.031826514  0.030855814           18 
 1904000   0.49422333    -5.217776    725.96399  0.031773634  0.030835358           58 
 1905000    0.4994887   -5.1978616    726.25611  0.031769733  0.030814919           15 
 1906000   0.48493077   -5.2142722    726.00266  0.031741984  0.030794519           14 
 1907000   0.49178109   -5.2179972    727.62862  0.031796392  0.030774087           15 
 1908000   0.48941817   -5.2296498    725.90777  0.031704567  0.030753634           47 
 1909000   0.49406165   -5.2060102    727.67333  0.031765031  0.030733185           13 
 1910000   0.49987938   -5.2078437    725.05692  0.031634246  0.030712765           36 
 1911000    0.4888139   -5.2193654     726.5669  0.031683538  0.030692403           42 
 1912000   0.49259443   -5.2118665    726.10849  0.031646988  0.030672118           59 
 1913000   0.48270375    -5.219673    725.87727  0.031620372  0.030651805           59 
 1914000   0.49396161   -5.2048764    725.74243  0.031597981  0.030631505          107 
 1915000   0.49242837   -5.2175867    724.99935  0.031549145  0.030611195           84 
 1916000   0.48470765   -5.2214928    726.57538  0.031601225  0.030590914           55 
 1917000   0.48551047    -5.226411    724.96574  0.031514769  0.030570643          151 
 1918000   0.48060301   -5.2287156    726.53468  0.031566505  0.030550365          116 
 1919000   0.47477002   -5.2213185    724.87056  0.031477791  0.030530049          121 
 1920000   0.49146322   -5.2251823    725.85619  0.031504175  0.030509754          134 
 1921000   0.49120733   -5.2036411    726.12775  0.031499555  0.030489456          113 
 1922000   0.47823584   -5.2218233    724.89908  0.031429894  0.030469227           75 
 1923000   0.49117731   -5.2208384    725.12635  0.031423399  0.030448977           90 
 1924000   0.48806279   -5.2246672    725.59706  0.031427454  0.030428788           99 
 1925000   0.48633465   -5.2291509    725.23901  0.031395628  0.030408551           56 
 1926000   0.48837692   -5.2106129    726.97553  0.031454462  0.030388347           41 
 1927000   0.49135828   -5.1971157    726.17221    0.0314034  0.030368119           75 
 1928000    0.4955141   -5.2495463    725.85905  0.031373576  0.030347919           55 
 1929000   0.48334508   -5.2185034    724.05386  0.031279327  0.030327693           70 
 1930000   0.47830947    -5.236156    725.43066  0.031322567  0.030307533           36 
 1931000   0.46763379   -5.2249096    725.12788   0.03129328  0.030287319           45 
 1932000    0.4748196   -5.2193865    726.34396  0.031329536  0.030267176           59 
 1933000   0.48724239   -5.2239271     722.9846  0.031168503  0.030247019           42 
 1934000   0.49110896   -5.2258728    726.37956  0.031298671  0.030226872           59 
 1935000   0.47056898   -5.2322686    724.55156  0.031203771   0.03020673          100 
 1936000   0.48537294   -5.2391408    726.02951   0.03125127  0.030186535           74 
 1937000   0.48911174   -5.2308322    725.19697  0.031199319  0.030166369           33 
 1938000   0.47996027   -5.2439152    724.27607  0.031143622  0.030146199           20 
 1939000   0.48223137   -5.2449258    724.58887  0.031141004  0.030125995           62 
 1940000   0.48335657   -5.2583859    724.27529  0.031111482  0.030105771           34 
 1941000   0.47600191   -5.2478623    726.21064  0.031178544    0.0300856           47 
 1942000   0.47240323    -5.223565    723.99423   0.03106738  0.030065462           93 
 1943000   0.48775361   -5.2437512    724.63249  0.031078765   0.03004534           66 
 1944000   0.48425726   -5.2529547    724.93278  0.031075651   0.03002522           76 
 1945000   0.47316358   -5.2328597    724.50058  0.031041156  0.030005151           95 
 1946000   0.48424685   -5.2290252    724.64776  0.031031507  0.029985079           57 
 1947000    0.4668574   -5.2410299    724.00754  0.030988167  0.029964967          181 
 1948000   0.48044928   -5.2530246    722.98304  0.030928432  0.029944861          105 
 1949000   0.47297561   -5.2557861    723.89574  0.030951588  0.029924759          118 
 1950000   0.46173626   -5.2417727    723.65852  0.030925578  0.029904665           74 
 1951000   0.48419308   -5.2557047    723.96429  0.030922787  0.029884582           42 
 1952000   0.47701139   -5.2438056    724.94253  0.030948708  0.029864547           48 
 1953000   0.47927982   -5.2246716    725.81228  0.030969973   0.02984453           81 
 1954000   0.47331932   -5.2630219    723.22295  0.030843694  0.029824466          129 
 1955000   0.47745998   -5.2613825    723.44265  0.030837283  0.029804383          116 
 1956000   0.47371397   -5.2733039    722.22765  0.030769754  0.029784279           64 
 1957000    0.4760917   -5.2671522    722.08387  0.030747908  0.029764175          112 
 1958000   0.47587656   -5.2729479    723.98774  0.030813234  0.029744175           96 
 1959000   0.47153688   -5.2837852    724.31011  0.030811218  0.029724212           45 
 1960000   0.46973062   -5.2544897    722.40355  0.030714437  0.029704233           96 
 1961000   0.46666955   -5.2574368    723.96869  0.030765285  0.029684294           95 
 1962000   0.48198522   -5.2569524    722.78407   0.03069929  0.029664428           98 
 1963000   0.47416371    -5.266176    723.91238   0.03073155  0.029644522          108 
 1964000   0.46474095     -5.26863     722.5049  0.030656182  0.029624635          105 
 1965000   0.47531087   -5.2633922    723.88439  0.030699083   0.02960473          110 
 1966000   0.47581992   -5.2677565    725.06349  0.030733448  0.029584843           85 
 1967000   0.46682623   -5.2586578     723.7605  0.030662621  0.029564994          101 
 1968000   0.46665879   -5.2650254      724.522  0.030679285  0.029545218           55 
 1969000   0.46340909   -5.2776266    724.53076  0.030664075  0.029525425           76 
 1970000    0.4625506   -5.2623633    724.12726  0.030631441  0.029505636           93 
 1971000   0.46626625   -5.2659362    725.22433  0.030662284  0.029485876           81 
 1972000   0.46167783   -5.2571302    725.88655  0.030674719  0.029466133           76 
 1973000   0.47102977    -5.274171    722.82543   0.03052988  0.029446388           63 
 1974000   0.47172618   -5.2571293    723.61486   0.03054774  0.029426642           82 
 1975000   0.46410899   -5.2701936    724.02282  0.030549486  0.029406901           66 
 1976000   0.45506345   -5.2713293     724.2158  0.030542164   0.02938718           71 
 1977000   0.46888872   -5.2713374     724.1016  0.030521902  0.029367503          129 
 1978000   0.45349948   -5.2772218     723.3183  0.030473471  0.029347825           64 
 1979000    0.4586073   -5.2601185    723.09628  0.030448723  0.029328156           36 
 1980000   0.45935722   -5.2664088    724.05075  0.030473516  0.029308529           56 
 1981000   0.46191405   -5.2837084    724.18804  0.030463909  0.029288913           24 
 1982000   0.45693734   -5.2647199    724.70896   0.03047044  0.029269286           45 
 1983000   0.45840808   -5.2686296    724.77181  0.030457716  0.029249709           50 
 1984000   0.45449897   -5.2637058    724.40469  0.030426944  0.029230111          105 
 1985000   0.46089184   -5.2888263    721.18697  0.030276531  0.029210476           43 
 1986000   0.45605632   -5.2846161      723.941  0.030376846   0.02919086           64 
 1987000   0.45151023   -5.2821989    722.43897  0.030298564  0.029171248           99 
 1988000   0.45849661   -5.2837344    723.43355  0.030325015  0.029151646          103 
 1989000   0.46823449   -5.2666767    722.74347  0.030280856   0.02913206           89 
 1990000   0.45994449   -5.2624639    723.19465  0.030284533   0.02911246          121 
 1991000   0.47538237   -5.2893828    721.01336  0.030178024   0.02909288           88 
 1992000   0.45249178   -5.2804035    724.88191  0.030324712  0.029073294          117 
 1993000   0.46023225   -5.2815503    723.68472  0.030259438  0.029053745           86 
 1994000   0.46451936   -5.2882446    723.79774  0.030248986  0.029034272           88 
 1995000   0.46026668    -5.261689    723.06353  0.030203155  0.029014777           90 
 1996000   0.45175409   -5.2698427    722.86261  0.030179635   0.02899528          104 
 1997000     0.450494   -5.2904695    725.30874  0.030266598  0.028975765           72 
 1998000   0.45560048   -5.2749306    723.42169  0.030172743  0.028956279          151 
 1999000   0.46301939    -5.283316    722.22241  0.030107654  0.028936747           87 
 2000000    0.4608782   -5.2966671    723.86582  0.030161076   0.02891722           93 
 2001000   0.44966117   -5.2948168    723.30864  0.030122799  0.028897759           70 
 2002000    0.4492174   -5.2933982    722.00411  0.030053451  0.028878276          130 
 2003000   0.45245533   -5.2949982    723.10451  0.030084228  0.028858814          195 
 2004000   0.45041329   -5.2925381    721.62524  0.030007703  0.028839357           97 
 2005000   0.46074916   -5.3072013    723.29238  0.030062027  0.028819967           86 
 2006000   0.45755861    -5.300133    723.31159  0.030047839  0.028800545          129 
 2007000   0.45227295   -5.2975868    720.86473  0.029931271  0.028781101          116 
 2008000   0.45369801   -5.2982877    721.94997  0.029961403  0.028761633          160 
 2009000   0.45003349   -5.3123397    722.41811  0.029965908  0.028742178          141 
 2010000   0.44703027   -5.2924615    722.46973   0.02995314  0.028722721          196 
 2011000   0.45110053   -5.3069592    720.72038  0.029865754  0.028703249          194 
 2012000   0.44214278   -5.3158698     723.3925  0.029961585    0.0286838          314 
Loop time of 4995.52 on 48 procs for 2000000 steps with 4000 atoms

Performance: 69182.008 tau/day, 400.359 timesteps/s
99.4% CPU use with 48 MPI tasks x no OpenMP threads

MPI task timing breakdown:
Section |  min time  |  avg time  |  max time  |%varavg| %total
---------------------------------------------------------------
Pair    | 334.71     | 359.51     | 385.52     |  65.1 |  7.20
Neigh   | 33.715     | 35.105     | 36.438     |  13.5 |  0.70
Comm    | 315.9      | 342.52     | 370.86     |  71.6 |  6.86
Output  | 4.299      | 4.3008     | 4.3366     |   0.3 |  0.09
Modify  | 4196.9     | 4208.2     | 4221.6     |   8.7 | 84.24
Other   |            | 45.91      |            |       |  0.92

Nlocal:        83.3333 ave          90 max          77 min
Histogram: 2 2 4 13 4 7 10 1 2 3
Nghost:        2298.94 ave        2320 max        2272 min
Histogram: 2 1 2 7 8 9 5 5 2 7
Neighs:        15569.3 ave       17126 max       13380 min
Histogram: 1 1 3 2 8 14 4 9 0 6
FullNghs:      31115.0 ave       33635 max       27889 min
Histogram: 2 0 1 6 10 9 9 4 3 4

Total # of neighbors = 1493519
Ave neighs/atom = 373.37975
Neighbor list builds = 107813
Dangerous builds = 0

#clear
#
#next RN
#
#jump SELF
Total wall time: 1:23:18
