
units lj                  # Use reduced LJ style units
atom_style atomic         # Uncharged point particles
atom_modify map hash      # Needed for indexing of clusters etc
                          # Used to be able to find where atoms are in relation to each other.

# Define a lattice with which to populate the simulation cell. With units
# set to 'lj' the second argument to the lattice command is the reduced
# density rho* and the spacings are multiples of that required to acheive
# that density. Also define a simulation cell called 'box' in lattice units
# and fill it with atoms. Here we're creating a box which is ten lattice
# constants in each direction.
lattice fcc 1.0 spacing 1 1 1                 # All equal sizes - gives the right reduced density.
Lattice spacing in x,y,z = 1.5874011 1.5874011 1.5874011

region box block 0 10 0 10 0 10 units lattice # Defines a region, "box", in lattice units
create_box 1 box                              # Creates a simulation box as specified above,
Created orthogonal box = (0.0000000 0.0000000 0.0000000) to (15.874011 15.874011 15.874011)
  2 by 3 by 3 MPI processor grid
                                              # with one type of atom
create_atoms 1 box                            # Creates particles on lattice points
Created 4000 atoms
  using lattice units in orthogonal box = (0.0000000 0.0000000 0.0000000) to (15.874011 15.874011 15.874011)
  create_atoms CPU = 0.001 seconds


# Set the mass of the first (and only) atom type.
mass 1 1.0

# Lennard-Jones interactions between particles, 3.5 sigma cut-off. Apply
# long range tail corrections to energy and pressure and set all coefficients
# to unity since we work in reduced units here. Note that this doesn't shift
# the potential such that it goes to zero at the cutoff. That would require
# pair_modify('shift', 'yes').
pair_style lj/cut  3.5      # non-GPU version
pair_modify tail  yes
pair_coeff 1  1  1.0  1.0   # Intearaction between 1 and 1 set with epsilon = 1 and sigma = 1

write_data data.*
System init for write_data ...
Neighbor list info ...
  update every 1 steps, delay 10 steps, check yes
  max neighbors/atom: 2000, page size: 100000
  master list distance cutoff = 3.8
  ghost atom cutoff = 3.8
  binsize = 1.9, bins = 9 9 9
  1 neighbor lists, perpetual/occasional/extra = 1 0 0
  (1) pair lj/cut, perpetual
      attributes: half, newton on
      pair build: half/bin/atomonly/newton
      stencil: half/bin/3d
      bin: standard

#############################
#   M E L T   S Y S T E M   #
#############################

velocity all create 2.4 8172548 mom yes dist gaussian # Assign velocities
                                                    # Temperature 2.4, random number seed, zero linear momentum
						                                                        # Gaussian distribution

timestep 0.002   # simulation timestep
thermo 100       # output thermodynamic data every 100 steps

# Define a fix  in this case with index 1 applied to all
# particles in the simulation. This fix is for simulations
# in the anisotropic NPT ensemble. Note that we use the MTK
# correction.
fix 1 all npt temp 2.4 2.4 0.1 iso 5.68 5.68 0.5 mtk yes tchain 5 pchain 5 # Use NPT ensemble
                                                                         # Set temperature and pressure and damping
                                                                         # Numbers of thermostats in chain and in barostat
run 1000         # run for 10000 steps
Per MPI rank memory allocation (min/avg/max) = 3.680 | 3.683 | 3.691 Mbytes
Step Temp E_pair E_mol TotEng Press Volume 
       0          2.4   -8.3859253            0   -4.7868253   -2.2405722         4000 
     100    1.2521358   -6.5115055            0   -4.6337712    5.4508644    4089.6042 
     200    1.4689284   -6.2983762            0   -4.0955344    6.0837578    4137.2801 
     300    1.5740251   -6.0110759            0   -3.6506285    5.8428293    4272.3887 
     400    1.7007621   -5.7248177            0   -3.1743123    5.9311621    4395.3486 
     500    1.8066394   -5.4467078            0   -2.7374262    5.7861894     4545.589 
     600    1.8844107   -5.1406616            0   -2.3147521    5.8323888    4700.1474 
     700    2.0254849   -4.9242047            0    -1.886737    5.8268404    4833.6959 
     800    2.1385093   -4.7031284            0   -1.4961664    5.8326966    4964.1584 
     900    2.2562357   -4.5439597            0   -1.1604522    5.8538779    5071.7859 
    1000    2.3669211   -4.4724005            0  -0.92290647    5.7399528    5154.5285 
Loop time of 0.554805 on 18 procs for 1000 steps with 4000 atoms

Performance: 311460.816 tau/day, 1802.435 timesteps/s
99.6% CPU use with 18 MPI tasks x no OpenMP threads

MPI task timing breakdown:
Section |  min time  |  avg time  |  max time  |%varavg| %total
---------------------------------------------------------------
Pair    | 0.32249    | 0.34266    | 0.36401    |   2.2 | 61.76
Neigh   | 0.061645   | 0.06465    | 0.06754    |   0.6 | 11.65
Comm    | 0.098402   | 0.11953    | 0.13806    |   3.5 | 21.54
Output  | 0.00021389 | 0.00022291 | 0.00028077 |   0.0 |  0.04
Modify  | 0.021691   | 0.024828   | 0.028637   |   1.4 |  4.48
Other   |            | 0.002911   |            |       |  0.52

Nlocal:        222.222 ave         234 max         214 min
Histogram: 2 3 0 3 1 4 2 2 0 1
Nghost:        2030.39 ave        2051 max        2008 min
Histogram: 1 1 1 2 3 4 3 1 1 1
Neighs:        19703.8 ave       21135 max       18594 min
Histogram: 1 3 3 1 1 4 2 2 0 1

Total # of neighbors = 354669
Ave neighs/atom = 88.667250
Neighbor list builds = 86
Dangerous builds = 10

# Equilibrate just above the melting temperature to avoid step fn in T

fix 1 all npt temp 1.25 1.25 0.1 iso 5.68 5.68 0.5 mtk yes tchain 5 pchain 5
run 1000
Per MPI rank memory allocation (min/avg/max) = 3.680 | 3.684 | 3.691 Mbytes
Step Temp E_pair E_mol TotEng Press Volume 
    1000    2.3669211   -4.4724005            0  -0.92290647    5.7399528    5154.5285 
    1100    1.9578949   -4.6918684            0   -1.7557603    5.6487477    4991.6913 
    1200    1.7396677   -4.9813711            0   -2.3725219    5.5906411    4811.1244 
    1300    1.5731527   -5.2038437            0   -2.8447047    5.7283734     4660.157 
    1400    1.4617969   -5.4064956            0   -3.2143485    5.7429155    4548.2287 
    1500    1.3856267   -5.5768053            0   -3.4988849    5.5616911    4480.7352 
    1600    1.2965183   -5.6686791            0   -3.7243878    5.5183337    4437.4897 
    1700    1.2706454   -5.7482266            0   -3.8427351     5.587581    4391.7293 
    1800    1.2485176   -5.8146125            0   -3.9423043    5.4355018     4375.335 
    1900    1.2452702    -5.820016            0   -3.9525776    5.6724499    4352.6927 
    2000     1.271515   -5.8429821            0   -3.9361864    5.6243904    4346.3347 
Loop time of 0.536293 on 18 procs for 1000 steps with 4000 atoms

Performance: 322211.798 tau/day, 1864.652 timesteps/s
99.7% CPU use with 18 MPI tasks x no OpenMP threads

MPI task timing breakdown:
Section |  min time  |  avg time  |  max time  |%varavg| %total
---------------------------------------------------------------
Pair    | 0.32884    | 0.34235    | 0.35369    |   1.1 | 63.84
Neigh   | 0.055383   | 0.056803   | 0.058115   |   0.3 | 10.59
Comm    | 0.09808    | 0.10806    | 0.11867    |   1.9 | 20.15
Output  | 0.00022019 | 0.0002303  | 0.00029895 |   0.0 |  0.04
Modify  | 0.02277    | 0.025564   | 0.030828   |   1.6 |  4.77
Other   |            | 0.003277   |            |       |  0.61

Nlocal:        222.222 ave         228 max         215 min
Histogram: 1 0 1 3 2 3 5 0 0 3
Nghost:        2236.78 ave        2249 max        2225 min
Histogram: 2 1 1 2 2 5 1 1 2 1
Neighs:        23340.2 ave       24347 max       22415 min
Histogram: 1 1 3 2 3 2 3 1 0 2

Total # of neighbors = 420123
Ave neighs/atom = 105.03075
Neighbor list builds = 75
Dangerous builds = 7


# Small amount of linear quench

fix 1 all npt temp 1.25 ${temp} 0.1 iso 5.68 5.68 0.5 mtk yes tchain 5 pchain 5
fix 1 all npt temp 1.25 1.24 0.1 iso 5.68 5.68 0.5 mtk yes tchain 5 pchain 5
run 2000
Per MPI rank memory allocation (min/avg/max) = 3.680 | 3.684 | 3.691 Mbytes
Step Temp E_pair E_mol TotEng Press Volume 
    2000     1.271515   -5.8429821            0   -3.9361864    5.6243904    4346.3347 
    2100    1.2274626   -5.8445007            0   -4.0037672    5.6257882    4346.7597 
    2200    1.2698749    -5.843539            0   -3.9392029    5.7092598    4341.8598 
    2300    1.2536305   -5.8394157            0   -3.9594401    5.5616276    4354.7833 
    2400    1.2470129   -5.8338373            0   -3.9637856    5.2432807     4384.098 
    2500    1.2482518   -5.8748054            0   -4.0028958    5.4221354    4349.7097 
    2600    1.2506892   -5.8696214            0   -3.9940566    5.5437552    4343.8681 
    2700    1.2798353   -5.8441769            0   -3.9249038    5.5636761    4355.3612 
    2800      1.25561   -5.8395829            0   -3.9566387    5.8698935    4329.0248 
    2900    1.2495702   -5.8448348            0   -3.9709481    5.8034608    4334.9079 
    3000    1.2634559    -5.841757            0   -3.9470469    5.6499101    4345.9703 
    3100    1.2614047   -5.8589959            0    -3.967362     5.630134    4341.8044 
    3200    1.2179382   -5.8448017            0   -4.0183511    5.5329608    4349.8039 
    3300    1.2501473    -5.844692            0   -3.9699398    5.5772122    4352.6399 
    3400    1.2135015   -5.8425874            0   -4.0227903     5.520913    4352.9965 
    3500    1.2611194   -5.8378145            0   -3.9466084    5.6669225    4347.3387 
    3600    1.2544554   -5.8199088            0   -3.9386961    5.8348678    4339.6369 
    3700    1.2169815   -5.8282306            0   -4.0032147    5.7772057    4337.4592 
    3800    1.2399226   -5.8455432            0   -3.9861242    5.6743543    4338.1569 
    3900    1.2628519   -5.8355139            0   -3.9417096    5.4935472    4361.7478 
    4000    1.2221159   -5.8286775            0   -3.9959619    5.5402088    4360.6691 
Loop time of 1.09419 on 18 procs for 2000 steps with 4000 atoms

Performance: 315850.875 tau/day, 1827.841 timesteps/s
99.8% CPU use with 18 MPI tasks x no OpenMP threads

MPI task timing breakdown:
Section |  min time  |  avg time  |  max time  |%varavg| %total
---------------------------------------------------------------
Pair    | 0.68199    | 0.7181     | 0.75008    |   2.0 | 65.63
Neigh   | 0.10044    | 0.10287    | 0.10499    |   0.4 |  9.40
Comm    | 0.18753    | 0.21633    | 0.24601    |   3.2 | 19.77
Output  | 0.00042983 | 0.00044609 | 0.00056172 |   0.0 |  0.04
Modify  | 0.043463   | 0.049377   | 0.05806    |   2.1 |  4.51
Other   |            | 0.007073   |            |       |  0.65

Nlocal:        222.222 ave         231 max         216 min
Histogram: 1 3 3 1 3 3 2 1 0 1
Nghost:        2230.17 ave        2243 max        2213 min
Histogram: 2 0 2 2 1 0 3 3 1 4
Neighs:        23284.4 ave       24336 max       21858 min
Histogram: 1 2 2 2 1 1 1 2 0 6

Total # of neighbors = 419120
Ave neighs/atom = 104.78000
Neighbor list builds = 132
Dangerous builds = 0

#############################
# F R E E Z E  S Y S T E M  #
#############################

# Define solid atoms. This closely follows ten Wolde  Ruiz-Montero and Frenkel  Faraday Discuss  1996  104  93-110
# Compute components of the per-atom q6 vector
compute q6 all orientorder/atom degrees 1 6 components 6 nnn NULL cutoff 1.3 # compute the Q6 parameter.
                                                                             # Use all neighbours within 1.3 unit cell.

# get number of connections
compute coord_number all coord/atom orientorder q6 0.5

# An atom is solid if it has 8 or more connections (of a possible 14)
variable is_solid atom c_coord_number>=8
group solid dynamic all var is_solid    # Must be dynamic to update
dynamic group solid defined

# do clustering
compute cluster solid cluster/atom 1.3 # Create a cluster where all atoms within are solid and max 1.3 units from another member

# define chunks one chunk per cluster
compute clus_chunks solid chunk/atom c_cluster nchunk every compress yes  # Says which atoms are in which chunk

# count the size of each chunk
compute size_chunks solid property/chunk clus_chunks count


# Find the maximum entry in the vector of chunk sizes
variable max_n equal max(c_size_chunks)


# Thermo style which includes this variable
thermo_style custom step temp pe vol v_max_n

thermo ${N}  # Print the thermo information every 100 steps
thermo 100  

# Reset the npt fix at a lower temperature (below freezing)
fix 1  all npt temp  ${temp} ${temp}  0.1  iso  5.68  5.68  0.5  mtk yes tchain  5  pchain  5
fix 1  all npt temp  1.24 ${temp}  0.1  iso  5.68  5.68  0.5  mtk yes tchain  5  pchain  5
fix 1  all npt temp  1.24 1.24  0.1  iso  5.68  5.68  0.5  mtk yes tchain  5  pchain  5

dump dmp2 all dcd ${N} traj_${rand}.dcd
dump dmp2 all dcd 100 traj_${rand}.dcd
dump dmp2 all dcd 100 traj_462431.dcd


# fix rnuntil all halt ${N} v_max_n >= 3980 error soft message no   # Stop when solidified


run 100000 # 5000000  # Run for this many steps
Neighbor list info ...
  update every 1 steps, delay 10 steps, check yes
  max neighbors/atom: 2000, page size: 100000
  master list distance cutoff = 3.8
  ghost atom cutoff = 3.8
  binsize = 1.9, bins = 9 9 9
  4 neighbor lists, perpetual/occasional/extra = 1 3 0
  (1) pair lj/cut, perpetual
      attributes: half, newton on
      pair build: half/bin/atomonly/newton
      stencil: half/bin/3d
      bin: standard
  (2) compute orientorder/atom, occasional
      attributes: full, newton on
      pair build: full/bin/atomonly
      stencil: full/bin/3d
      bin: standard
  (3) compute coord/atom, occasional
      attributes: full, newton on
      pair build: full/bin/atomonly
      stencil: full/bin/3d
      bin: standard
  (4) compute cluster/atom, occasional
      attributes: full, newton on
      pair build: full/bin/atomonly
      stencil: full/bin/3d
      bin: standard
Per MPI rank memory allocation (min/avg/max) = 9.480 | 9.485 | 9.491 Mbytes
Step Temp PotEng Volume v_max_n 
    4000    1.2221159   -5.8286775    4360.6691            3 
    4100    1.2524918   -5.8478105     4351.617            4 
    4200    1.2562789   -5.8964086    4313.9898            3 
    4300    1.2548497   -5.8747062    4313.9525            4 
    4400     1.214311   -5.8216806    4335.9955            2 
    4500    1.2388089   -5.8357575     4342.655            6 
    4600    1.2208696   -5.8655555    4321.9391            8 
    4700    1.2251266   -5.8342828    4331.1564            4 
    4800    1.2371205   -5.8397753    4337.4758            4 
    4900    1.2734558    -5.849104    4354.4159            3 
    5000    1.2576876   -5.8695606    4338.1151            5 
    5100    1.2546381    -5.888212    4332.8406            2 
    5200    1.2306693   -5.8947187    4335.6563            3 
    5300     1.222044   -5.8745717    4343.2534            3 
    5400    1.2477238   -5.8713557    4353.6905            5 
    5500    1.2387874   -5.8604579     4349.953            2 
    5600    1.2294348   -5.8687726    4333.9557            2 
    5700    1.2513257   -5.8688849    4322.5352            7 
    5800    1.2592927   -5.8235746    4338.6547            5 
    5900    1.2455197   -5.8477232    4348.8264            6 
    6000    1.2513327   -5.8595274    4338.8388            3 
    6100     1.253579   -5.8891101    4343.1473            2 
    6200    1.2519406   -5.8533345    4340.1338            3 
    6300     1.246757   -5.8738868    4340.1934            7 
    6400    1.2084481   -5.8669648    4339.8572            1 
    6500    1.2487567   -5.8744715    4342.9668            1 
    6600     1.240135   -5.8333674    4329.4803            4 
    6700    1.1980696   -5.8086374    4312.5808            5 
    6800    1.2609501   -5.8375516    4329.5825            4 
    6900    1.2327017   -5.8547392     4337.805            3 
    7000    1.2385496   -5.8532312    4349.0292            3 
    7100     1.240033   -5.8417787    4353.4937            4 
    7200    1.2203456    -5.853441    4336.7538            6 
    7300    1.2540153   -5.8521518    4324.0199            5 
    7400    1.2671789    -5.823199    4322.6051            2 
    7500    1.2310275    -5.836875    4318.9969            3 
    7600    1.2471981   -5.8630744     4327.351            6 
    7700     1.197138   -5.8373488    4332.8565            4 
    7800    1.2352579   -5.9303001    4335.5485            3 
    7900    1.2255908   -5.8842311     4321.131            3 
    8000    1.2493416   -5.8633365    4333.9003            3 
    8100    1.2349915   -5.8428263    4333.6531            2 
    8200    1.2755067   -5.8458665     4333.858            3 
    8300    1.2444738   -5.8605402    4328.9876            2 
    8400     1.217488    -5.846922    4329.5458            3 
    8500    1.2522113   -5.8392273    4334.5205            3 
    8600    1.2173561   -5.8618979    4344.5237            2 
    8700    1.2436263   -5.8623064    4344.8768            2 
    8800     1.247263   -5.8410174     4332.663            2 
    8900    1.2429637   -5.8629653    4319.3421            3 
    9000    1.2265188   -5.8462906    4328.9457            9 
    9100    1.2275842   -5.8368269    4340.0417            2 
    9200    1.2617628   -5.8353842    4337.4929            4 
    9300    1.2575199   -5.8323175    4349.4202            5 
    9400     1.219272   -5.8553899    4358.8113            3 
    9500    1.2335421   -5.8352055    4367.7153            3 
    9600    1.2591594   -5.8198074      4360.07            2 
    9700    1.2580683   -5.8286137    4339.3639            5 
    9800    1.2429026   -5.8524623    4337.3843            2 
    9900    1.2159938   -5.8703145     4337.665            2 
   10000    1.2448491   -5.8766191    4339.4517            3 
   10100    1.2415747   -5.8591048    4351.9705            3 
   10200    1.2670686   -5.8358889    4349.6218            3 
   10300    1.2435034   -5.8669814    4333.3607            3 
   10400    1.2217537   -5.8798035    4328.8062            7 
   10500    1.2509162    -5.859396    4334.8125            3 
   10600     1.229553   -5.8194691    4337.4703            9 
   10700     1.248717   -5.9148745    4339.5428            3 
   10800    1.2440973   -5.8791269    4331.9899            3 
   10900    1.2497789   -5.8333189    4341.8574            3 
   11000    1.2443204   -5.8382887    4336.8068            4 
   11100    1.2265484   -5.8710966    4329.9352            2 
   11200    1.2225932   -5.8851535    4325.0209            3 
   11300    1.2214695    -5.838797    4354.8206            3 
   11400     1.236066   -5.8289887    4365.4307            4 
   11500    1.2439328   -5.8290573    4348.3438            5 
   11600    1.2484055    -5.841381     4323.197            2 
   11700    1.2445383   -5.8806917    4327.1981            5 
   11800    1.2622893   -5.8367704    4340.7695            1 
   11900    1.2533916   -5.8608109     4334.608            3 
   12000    1.2385454   -5.8601644    4341.1486            5 
   12100    1.2409054   -5.8596728    4349.4603            5 
   12200     1.241241   -5.8239622    4342.8103            2 
   12300    1.2410706   -5.8444965    4318.7005            3 
   12400    1.2158749   -5.8589473    4306.5813            5 
   12500    1.2537906   -5.8721186    4327.7572            6 
   12600     1.196248   -5.8133263    4330.5662            5 
   12700    1.2707266   -5.8567374     4343.781            2 
   12800     1.252888    -5.846082    4338.8419            2 
   12900    1.2289326   -5.8643073     4322.584            2 
   13000    1.2347442   -5.8395209    4325.5709            3 
   13100    1.2694757   -5.8534754    4343.4263            3 
   13200    1.2374213   -5.8353671    4356.0402            5 
   13300    1.2474402   -5.9037448    4341.9366            3 
   13400    1.2299269   -5.8624686    4332.6383            2 
   13500    1.2489797   -5.8182954    4354.5149            3 
   13600     1.249232   -5.8342253    4344.1695            6 
   13700    1.2279964   -5.8266704    4331.0701            3 
   13800    1.2521767   -5.8589157    4337.6871            5 
   13900    1.2425134   -5.8308461    4358.2168            5 
   14000    1.2269429   -5.8546685    4350.8045            5 
   14100     1.217856   -5.8822631    4324.4564            6 
   14200    1.2303577   -5.8883876    4323.9271            3 
   14300    1.2369551   -5.8680383    4326.6156            2 
   14400    1.2399551   -5.8556471    4312.7941            2 
   14500    1.2573957    -5.866441    4311.0391            4 
   14600    1.2064757   -5.8510333     4317.482            3 
   14700    1.2433654   -5.8584266    4322.2597            3 
   14800    1.2552068   -5.8732009    4326.8731            3 
   14900    1.2497973   -5.9046816      4325.11            2 
   15000    1.2276843   -5.8755877    4352.9105            2 
   15100    1.2225836   -5.8213975    4378.2546            1 
   15200    1.2244604   -5.8429304    4373.9478            2 
   15300    1.2307098   -5.8060935    4339.1609            3 
   15400    1.2645578     -5.84644    4319.2322            2 
   15500    1.2503421   -5.8799674     4318.555            2 
   15600    1.2402383   -5.8310275    4335.6184            2 
   15700      1.24085   -5.8222192    4368.7369            2 
   15800    1.2738453   -5.8795117    4370.8055            5 
   15900    1.2321613   -5.8786552    4342.4916            3 
   16000    1.2258569   -5.8535263    4330.7068            4 
   16100    1.2598623   -5.8426682    4345.7495            5 
   16200    1.2579992   -5.8658282    4332.2805            6 
   16300    1.2187494   -5.8640357    4330.8382            3 
   16400    1.2536356   -5.8620156    4339.4253            3 
   16500    1.2201145   -5.8764311    4334.5257            5 
   16600     1.228827   -5.8919688    4328.8111            3 
   16700    1.2546679   -5.8727083    4325.0443            4 
   16800    1.2370612   -5.8841586    4328.9868            3 
   16900    1.2646734   -5.8730448    4342.3093            2 
   17000    1.2406245   -5.8713322    4350.0648            3 
   17100     1.229092   -5.8848389    4328.4219            6 
   17200    1.2523516   -5.8762533    4338.3281           10 
   17300    1.2322445   -5.8499377    4336.4187            4 
   17400    1.2242732   -5.8691534    4316.7866            3 
   17500     1.231968   -5.9101587    4314.8271            3 
   17600    1.2370869    -5.844228    4322.1936            3 
   17700    1.2187744    -5.857227    4332.6411            2 
   17800    1.2567683   -5.8500406    4350.5751            3 
   17900    1.2517139   -5.8737147    4333.1578            6 
   18000    1.2436239   -5.8978466    4343.3203            4 
   18100    1.2361695   -5.8487513    4351.9545            3 
   18200    1.2708308   -5.8491078    4348.2769            1 
   18300    1.2579877   -5.8632366    4326.7052            3 
   18400    1.2252533   -5.8441819    4339.0179            2 
   18500    1.2730215   -5.8633014    4350.3513            3 
   18600    1.2286787   -5.8544112    4357.4166            2 
   18700    1.2308931   -5.8757895    4346.7801            5 
   18800     1.258302   -5.9128661    4319.4061            2 
   18900     1.247147   -5.8929164    4316.2653            2 
   19000    1.2433842    -5.850873    4344.7072            4 
   19100    1.2591442   -5.8246321    4355.5814            2 
   19200    1.2471032   -5.8696405    4345.6452            2 
   19300    1.2220918   -5.8474941    4338.6949            4 
   19400    1.2385209   -5.8096336    4355.2188            4 
   19500    1.2204698    -5.807937    4343.7384            4 
   19600    1.2674344   -5.8390856    4327.3527            2 
   19700    1.2144188   -5.7916023    4324.6552            1 
   19800    1.2511662   -5.8589684    4323.0863            6 
   19900    1.2220469   -5.8503797    4332.1244            1 
   20000    1.2303153   -5.8690796    4323.1845            3 
   20100    1.2553415   -5.8872898    4314.8848            4 
   20200    1.2230562   -5.8581579    4315.7809            2 
   20300    1.2210184   -5.8203553    4346.0139            2 
   20400     1.239958   -5.8685131    4338.2153            3 
   20500    1.2441133   -5.8748508    4340.2306            3 
   20600    1.2584353   -5.8664046    4336.8364            2 
   20700    1.2141087   -5.8515057    4327.8264            2 
   20800    1.2576508   -5.8586129    4342.1116            4 
   20900    1.2552391   -5.8361698    4354.6158            3 
   21000    1.2549905   -5.8899679     4345.584            3 
   21100    1.2218098   -5.8681521    4333.7224            4 
   21200    1.2198291   -5.8664385    4328.1539            3 
   21300    1.2568367   -5.8513377    4332.9772            5 
   21400    1.2815877   -5.8732411    4335.1926            3 
   21500    1.2177867   -5.8609208    4338.2297            3 
   21600    1.2457562   -5.8603143    4337.6722            3 
   21700    1.2030921   -5.8668076    4327.7872            2 
   21800    1.2461205   -5.8836086    4338.2939            3 
   21900    1.2417001   -5.8519943    4334.4363            5 
   22000    1.2308569   -5.8738127    4323.8429            3 
   22100    1.2414203   -5.8612041    4336.2321            2 
   22200    1.2594657   -5.8689181    4338.8143            2 
   22300    1.2347694   -5.8652748    4320.7399            1 
   22400    1.2113458   -5.8666057    4325.3102            1 
   22500    1.2243918   -5.8237503    4330.7379            3 
   22600    1.2664461   -5.8144999    4307.7169            4 
   22700    1.2336594   -5.8335463    4334.7477            3 
   22800    1.2467156   -5.8486235    4351.3922            3 
   22900    1.2405561   -5.8592317    4359.6033            3 
   23000    1.2410528   -5.8502979    4352.9714            9 
   23100     1.242752    -5.877301    4324.4888            3 
   23200    1.2568875   -5.8517931    4334.3942            2 
   23300    1.2420412   -5.8573391    4336.5347            2 
   23400    1.2287131   -5.8607961    4328.4261            3 
   23500     1.254502   -5.8346798    4341.3809            3 
   23600    1.2416535   -5.8677459     4327.993            3 
   23700    1.2511269   -5.8804064    4328.6991            5 
   23800    1.2295635   -5.8207057     4354.815            4 
   23900    1.2625852   -5.8726598    4348.9475            3 
   24000    1.2377914   -5.8699071    4332.0071            5 
   24100    1.2107086   -5.8548844    4324.8839            2 
   24200    1.2473632   -5.8579203    4337.7735            5 
   24300    1.2274064   -5.7924351    4354.8282            5 
   24400      1.26309   -5.8346459     4352.243            3 
   24500    1.2359963   -5.8577749    4349.5374            4 
   24600    1.2512351   -5.9060062    4346.8712            3 
   24700    1.2380998    -5.942145    4336.0208            4 
   24800    1.2300879   -5.8736127    4341.1232            5 
   24900    1.2538569   -5.8552598    4336.7415            3 
   25000    1.2184658   -5.8436957    4332.2325            3 
   25100    1.2200469   -5.8871184     4317.557            3 
   25200     1.236758   -5.8596165    4333.5273            3 
   25300    1.2387114   -5.8304808    4335.3503            2 
   25400    1.2381878   -5.8852907    4331.1016            2 
   25500    1.2306145   -5.8806785    4341.9097            3 
   25600    1.2407948    -5.855361    4359.5483            2 
   25700    1.2479077   -5.8572874    4339.1414            2 
   25800    1.2391642   -5.8721359    4324.4677            3 
   25900    1.2104539   -5.8574144    4324.4881            4 
   26000    1.2427005   -5.8519481    4324.5279            4 
   26100    1.2379696   -5.8494938    4345.5448            2 
   26200    1.2479912   -5.8434299    4362.8937            1 
   26300    1.2277115   -5.8740856    4342.5741            4 
   26400    1.2363252   -5.8368069    4327.6225            5 
   26500    1.2602924   -5.8137739    4337.5613            5 
   26600    1.2498077   -5.8072427    4340.8337            5 
   26700    1.2538268    -5.869846    4314.5005            5 
   26800    1.2315127   -5.8743642    4322.7683            2 
   26900    1.2544615    -5.869669    4344.1554            4 
   27000    1.2153346   -5.8503437    4354.7805            2 
   27100    1.2580541    -5.856794    4336.0868            3 
   27200    1.2410391   -5.8342199    4326.9433            2 
   27300     1.234692   -5.8565365    4334.0374            2 
   27400    1.2320187   -5.8421121    4330.6478            3 
   27500    1.2488039   -5.8751367    4314.6561            2 
   27600      1.23151   -5.8466986    4329.4779            3 
   27700    1.2384059   -5.8706666    4351.4959            2 
   27800    1.2274327   -5.8504507    4335.8692            2 
   27900     1.231181   -5.8256919    4320.5048            4 
   28000     1.271323   -5.8323979    4323.7307            7 
   28100    1.2154483   -5.8311149    4344.2639            6 
   28200    1.2465419   -5.8501851     4333.956            5 
   28300     1.263867    -5.838128    4302.5901            9 
   28400    1.2588584   -5.8383224    4340.5689            2 
   28500    1.2265273   -5.8310596    4352.9269            3 
   28600    1.2405383   -5.8693305    4342.8019            3 
   28700    1.2318242   -5.8775224    4332.4332            2 
   28800    1.2184285   -5.8897796    4320.2438            2 
   28900    1.2315332    -5.846359    4331.3403            2 
   29000    1.2518721   -5.8532548    4334.3292            3 
   29100    1.2280882   -5.8651197    4315.9183            2 
   29200    1.2465743   -5.8554144    4317.7287            2 
   29300    1.2435705   -5.8286964    4329.1057            3 
   29400     1.226012   -5.8525504    4328.1142            4 
   29500    1.2334792   -5.9056104    4329.1851            2 
   29600    1.2379246   -5.8716292     4346.628            7 
   29700    1.2403766   -5.8677288    4335.7436            2 
   29800    1.2222143   -5.8829334    4323.7074            4 
   29900    1.2710134   -5.8912416    4339.4721            4 
   30000    1.2293164   -5.8674595    4335.6054            2 
   30100    1.2506189   -5.8645066    4335.9229            5 
   30200    1.2252219    -5.836027    4350.3605            2 
   30300    1.2286701   -5.8718705    4331.6438            4 
   30400    1.2347891   -5.8580769    4329.7842            2 
   30500    1.2467959   -5.8483726     4332.383            3 
   30600    1.2379084   -5.8754793    4327.9504            4 
   30700    1.2473177   -5.8624093    4328.0231            5 
   30800    1.2099287   -5.8574146    4338.2199            4 
   30900    1.2326349   -5.8811511    4342.3467            6 
   31000    1.2601438    -5.846205    4330.9019            3 
   31100    1.2443277   -5.8605247    4324.0198            3 
   31200    1.2399758   -5.8537548    4320.5806            2 
   31300    1.2602406   -5.8455597    4322.1553            3 
   31400    1.2475316   -5.8285928     4335.852            3 
   31500    1.2298025    -5.888928    4339.4107            2 
   31600    1.2443152   -5.8739204    4354.3337            5 
   31700    1.2473133   -5.8339731    4358.3771            4 
   31800    1.2384665   -5.8471217    4340.3001            1 
   31900    1.2372848   -5.8822251    4329.2809            3 
   32000    1.2499891   -5.8711659    4331.1121            3 
   32100    1.2612045    -5.836166    4340.6666            4 
   32200    1.2249449   -5.8268184    4343.1113            4 
   32300    1.2163943   -5.8663661     4338.839            3 
   32400    1.2680811   -5.8868318    4340.4448            6 
   32500    1.2568994   -5.8072588    4321.2261            5 
   32600    1.2508159   -5.7690551     4346.036            4 
   32700    1.2428089   -5.8279595    4347.1205            2 
   32800    1.2509637   -5.8556599    4350.3623            2 
   32900    1.2266957   -5.8417814    4361.3474            3 
   33000    1.2302296   -5.8755625    4343.1727            4 
   33100     1.244974     -5.85243    4335.9074            2 
   33200    1.2466865   -5.8639688    4358.9992            5 
   33300    1.2225615   -5.8759287    4339.5087            5 
   33400    1.2516735   -5.8671239    4323.7452            2 
   33500    1.2174393   -5.8531208    4327.5888            2 
   33600    1.2580805   -5.8805457    4334.6362            3 
   33700    1.2317718   -5.8676126    4353.1341            2 
   33800    1.2374532   -5.8825981     4333.649            3 
   33900    1.2621113   -5.8720287     4321.343            5 
   34000    1.2460995   -5.8328376    4352.4346            3 
   34100    1.2270441   -5.8210853    4341.9644            3 
   34200    1.2223233   -5.8388629    4353.0293            4 
   34300    1.2557322   -5.8545409    4352.7341            1 
   34400    1.2319606   -5.8377426    4336.4103            3 
   34500    1.2747738   -5.8460205    4324.4011            2 
   34600    1.2267798   -5.8307241    4329.8622            3 
   34700    1.2549789   -5.8444719    4359.9842            2 
   34800     1.236337   -5.8404198    4347.8851            4 
   34900    1.2467431   -5.8614729    4330.8956            3 
   35000    1.2234337   -5.8414166    4337.4983            3 
   35100    1.2640965   -5.8355596    4344.1148            6 
   35200    1.2159837   -5.8279672    4337.6964            2 
   35300    1.2424696   -5.8640285     4326.081            2 
   35400    1.2335038   -5.8824621    4324.3009            3 
   35500    1.2462621   -5.8521812    4336.9192            2 
   35600    1.2413936   -5.8518791    4339.7918            2 
   35700    1.2498903   -5.8651029    4357.9496            4 
   35800    1.2258461   -5.8259653    4366.0318            3 
   35900    1.2273912   -5.8420597    4335.2581            2 
   36000    1.2591902    -5.850281    4326.6801            3 
   36100    1.2300108   -5.8592891    4311.8288            3 
   36200    1.2672326   -5.8422634    4323.9272            5 
   36300    1.2256215   -5.8192543    4345.1389            5 
   36400    1.2262889   -5.8394811    4348.3834            7 
   36500    1.2344942   -5.8870928    4329.3966            4 
   36600    1.2343047   -5.9082209    4308.5241            4 
   36700    1.2316799   -5.8713886    4351.2522            5 
   36800    1.2345318   -5.8528139    4332.1023            5 
   36900    1.2436149   -5.8628479    4312.8534            5 
   37000     1.246831   -5.8665852    4324.7138            3 
   37100    1.2193433   -5.8606887    4328.1125            4 
   37200    1.2306845   -5.8608556    4324.8555            3 
   37300    1.2519261   -5.8118325    4336.4037            2 
   37400     1.240843   -5.7976537     4328.499            2 
   37500    1.2480386   -5.8416042    4336.3894            2 
   37600    1.2380074   -5.8357751    4355.9963            2 
   37700    1.2441333    -5.870122     4358.503            4 
   37800     1.235534   -5.8886459    4333.5316            3 
   37900    1.2191379   -5.8478244     4334.015            3 
   38000    1.2692081   -5.8880913    4340.7458            3 
   38100    1.2268674   -5.8671355    4332.3505            2 
   38200    1.2568708   -5.8961388    4333.7295            1 
   38300    1.2165794    -5.895766    4336.8881            3 
   38400    1.2232918   -5.8506119    4348.5554            4 
   38500    1.2339006    -5.821155    4345.8628            4 
   38600    1.2538921    -5.861022    4328.2911            6 
   38700    1.2324872   -5.8636325    4327.0387            8 
   38800    1.2622572   -5.8619057    4330.0152            5 
   38900    1.2414985    -5.882316    4334.1605            1 
   39000    1.2337203   -5.8394773    4335.6289            2 
   39100    1.2706228   -5.8500891     4342.619            3 
   39200    1.2319066   -5.8618861    4313.4667            3 
   39300    1.2183093   -5.8781738    4326.7264            4 
   39400    1.2516016   -5.8889696    4330.7091            3 
   39500    1.2546741    -5.861821    4339.0989            8 
   39600    1.2414557   -5.8262389    4329.9257            3 
   39700    1.2254677   -5.8371435    4311.2119            4 
   39800    1.2403965   -5.8673987    4314.2684            3 
   39900    1.2318862   -5.8381297    4341.9587            3 
   40000    1.2391064   -5.8592154    4345.9401            7 
   40100    1.2383597   -5.8999779    4335.2693            5 
   40200    1.2530175   -5.9025076    4337.2265            3 
   40300    1.2502694    -5.861642     4338.232            2 
   40400    1.2515469   -5.8447483    4330.9983            3 
   40500    1.2344586   -5.8350739    4332.5407            4 
   40600    1.2233633    -5.863001    4320.1716            6 
   40700    1.2284855   -5.8187534    4355.8779            3 
   40800    1.2250428   -5.8124184    4351.4846            3 
   40900     1.229317   -5.8494572    4341.4116            2 
   41000    1.2422166   -5.8956597    4318.6067            1 
   41100     1.241386   -5.8434633    4333.6021            4 
   41200    1.2836975   -5.8598508    4343.7065            2 
   41300     1.227078   -5.8381791    4345.5409            4 
   41400    1.2338932   -5.8727704    4341.1117            2 
   41500    1.2286335   -5.9006767    4338.3204            5 
   41600    1.2769627   -5.9025952    4340.4958            4 
   41700    1.2152717   -5.8396435    4327.6798            2 
   41800    1.2469332   -5.8499643    4337.2898            2 
   41900     1.235058   -5.8391764    4329.9181            2 
   42000    1.2101479   -5.8561281    4316.4862            3 
   42100    1.2494047   -5.8622523    4316.9358            6 
   42200    1.2481489   -5.8464316    4346.1891            7 
   42300    1.2484651   -5.8424951    4352.3712            6 
   42400    1.2162667   -5.8309315    4339.6768            3 
   42500    1.2448684   -5.8251548    4322.5994            6 
   42600    1.2544244    -5.842129    4328.0339            3 
   42700    1.2183417   -5.8461687    4328.0725            3 
   42800    1.2380041    -5.865382    4330.8576            1 
   42900     1.255668   -5.8602292    4336.6993            3 
   43000    1.2213132   -5.8712395    4329.7767            1 
   43100    1.2416663   -5.9088645     4333.258            4 
   43200     1.242954   -5.8635577    4342.9082            2 
   43300    1.2418909   -5.8647648    4346.7954            3 
   43400    1.2406102   -5.8115816    4356.6636            2 
   43500    1.2353208   -5.8379954    4350.5677            2 
   43600    1.2309082   -5.8719328    4338.5599            3 
   43700    1.2683475   -5.8793446    4343.1835            2 
   43800    1.2559556   -5.8612627    4346.7174            4 
   43900    1.2500005   -5.8450994    4373.1934            3 
   44000    1.2164473   -5.8352576    4371.0457            5 
   44100    1.2446349   -5.8242655    4348.8528            4 
   44200    1.2494297   -5.8030991    4345.7458            4 
   44300    1.2653674   -5.8255737     4344.797            3 
   44400    1.2168071   -5.8377005     4336.282            3 
   44500     1.264932   -5.8462748    4338.1416            5 
   44600     1.237405   -5.8399075    4339.1711            3 
   44700    1.2440437   -5.8628642    4340.0175            5 
   44800    1.2243529   -5.8274166    4344.9742            4 
   44900    1.2572568   -5.8376495    4352.0866            2 
   45000    1.2380843   -5.8418834    4342.2932            2 
   45100     1.241341   -5.8786712    4347.7688            4 
   45200    1.2223083   -5.8887215     4330.718            3 
   45300    1.2303355   -5.8699037    4327.5341            4 
   45400    1.2559097   -5.8456802    4342.4251            2 
   45500     1.239837   -5.8696611    4320.0615            3 
   45600    1.2382335   -5.8506706    4325.4149            4 
   45700    1.2463776   -5.8551045    4342.6144            6 
   45800    1.2290867   -5.8759866    4342.5355            2 
   45900    1.2366003   -5.8766958    4362.6561            3 
   46000    1.2213448   -5.8622449    4358.3255            1 
   46100    1.2392031   -5.8685178    4335.4395            2 
   46200    1.2782358   -5.8683695    4317.5802            2 
   46300    1.2594325   -5.8710139    4321.0248            3 
   46400     1.248088   -5.8826778    4332.4707            2 
   46500    1.2156874   -5.8201885    4355.4482            2 
   46600    1.2403833   -5.8568935    4341.1307            4 
   46700    1.2490507   -5.8403796    4340.3463            3 
   46800    1.2644505   -5.7938428    4345.8896            3 
   46900    1.2274439   -5.8216138    4349.5598            3 
   47000    1.2100045   -5.8299185    4339.3125            4 
   47100    1.2703507   -5.8725624    4319.8749            3 
   47200    1.2244484    -5.868565    4338.4162            3 
   47300    1.2742148   -5.8963735    4328.1191            3 
   47400    1.2167259   -5.8785061    4318.3992            3 
   47500    1.2411437    -5.883014    4315.6298            5 
   47600    1.2597249   -5.8672936    4331.0492            5 
   47700    1.2138968   -5.8568691    4318.6561            8 
   47800    1.2617439   -5.8664238    4331.2181            2 
   47900    1.2281811   -5.8477184    4349.1719            3 
   48000     1.226473   -5.8777357    4344.0235            4 
   48100    1.2668239   -5.8739945    4330.3789            3 
   48200    1.2663296   -5.8556099    4331.4213            2 
   48300    1.2377033   -5.8444485    4334.8735            2 
   48400    1.2200603   -5.8494655    4336.0708            3 
   48500    1.2649483    -5.875367    4355.1319            2 
   48600    1.2359616   -5.8701546    4338.1898            2 
   48700    1.2414394   -5.8682729    4329.3188            4 
   48800    1.2560997   -5.9049482    4322.3407            4 
   48900     1.230453   -5.9234305     4316.453            6 
   49000    1.2193154   -5.8656574    4320.7565            3 
   49100    1.2411116   -5.8610233    4330.8809            4 
   49200    1.2450603   -5.8607316    4339.6636            1 
   49300    1.2211433   -5.8846265      4332.53            3 
   49400    1.2231467   -5.8599683     4329.436            4 
   49500    1.2729778   -5.8560469    4326.4523            4 
   49600    1.2312793   -5.8627559    4334.4517            7 
   49700    1.2175796   -5.8453117    4361.4378            5 
   49800    1.2346379     -5.84519    4363.0167            2 
   49900    1.2415342   -5.8333023    4332.6026            3 
   50000    1.2619496   -5.8349359    4314.2648            2 
   50100    1.2561869    -5.826411    4327.0583            4 
   50200    1.2116291   -5.8373629    4355.4752            4 
   50300     1.204655   -5.8386999    4349.1918            2 
   50400    1.2562574   -5.8533131    4327.4762            6 
   50500    1.2184062   -5.8498695    4321.7465            6 
   50600    1.2596451   -5.8558555    4332.7519            3 
   50700    1.2293378   -5.8521413    4330.7905           10 
   50800    1.2536588   -5.8928352    4324.1849            4 
   50900    1.2056306   -5.8545568     4312.173            3 
   51000    1.2516436   -5.8698002    4320.3577            3 
   51100    1.2257892   -5.8264038     4326.257            2 
   51200     1.247256   -5.8196074    4333.2695            2 
   51300    1.2554153   -5.8602919    4323.6287            4 
   51400     1.234483   -5.8884106    4312.7067            5 
   51500    1.2252303   -5.8516275    4321.2023            6 
   51600    1.2324849   -5.8359172    4334.2603            9 
   51700    1.2560816   -5.8459952    4330.8949            5 
   51800    1.2393177   -5.8530933    4347.5047            2 
   51900    1.2143062   -5.8599285    4338.1311            2 
   52000    1.2428817   -5.8423325    4343.8976            3 
   52100    1.2771615   -5.8438989    4332.5986            2 
   52200    1.2547145   -5.8668467      4319.98            3 
   52300    1.2475877    -5.903182    4313.7874            5 
   52400    1.2285808   -5.8820861    4331.0413            4 
   52500    1.2390761   -5.8519485     4343.833            5 
   52600    1.2459778   -5.8662736    4329.6208            2 
   52700    1.2300737   -5.8817605    4318.1266            3 
   52800    1.2579037   -5.8510362    4337.0388            2 
   52900    1.2637715   -5.8342263     4330.334            3 
   53000    1.2397595   -5.8571659    4328.4747            3 
   53100     1.224805   -5.8706136    4344.2568            2 
   53200    1.2463002   -5.8555578    4344.3449            6 
   53300    1.2056614   -5.8558634    4342.6218            4 
   53400    1.2480992   -5.8611724    4337.8804            4 
   53500    1.2222375   -5.8625156    4336.2814            5 
   53600    1.2473922   -5.8410262    4328.2701            5 
   53700    1.2573069   -5.8063149    4330.4594            3 
   53800    1.2509934   -5.8527713    4328.4615            4 
   53900    1.2488254   -5.8885045    4321.6048            3 
   54000     1.260486   -5.8551164    4325.9577            5 
   54100    1.2364076   -5.8466427    4341.1907            2 
   54200    1.2181537   -5.8625578    4343.6983            4 
   54300    1.2466795   -5.8542957    4343.5698            6 
   54400    1.2641749   -5.8236364    4348.4634            4 
   54500    1.2231263   -5.8356805    4333.9307            6 
   54600     1.261829   -5.8553684    4330.8222            3 
   54700    1.2119085   -5.8589954     4327.186            3 
   54800    1.2302854   -5.8582306    4347.7014            5 
   54900     1.234645   -5.8208729    4353.8132            5 
   55000    1.2417278   -5.8173955    4343.2392            7 
   55100    1.2518828   -5.8529927    4336.3883            5 
   55200    1.1911273   -5.8399324    4357.2291            4 
   55300    1.2139093   -5.8607477     4353.383            3 
   55400     1.255888   -5.8438592    4360.4241            3 
   55500    1.2346685   -5.8229829    4342.6627            4 
   55600    1.2310471   -5.8609027    4320.8073            3 
   55700    1.2544047   -5.8649182    4330.6114            2 
   55800    1.2497962   -5.8416139    4331.4173            4 
   55900    1.2570379   -5.8360983    4338.1564            3 
   56000    1.2373931   -5.8297238     4361.794            2 
   56100    1.2465276   -5.8846785    4341.8909            2 
   56200    1.2383925   -5.8594676    4335.1676            3 
   56300    1.2531583   -5.8580855    4350.6542            2 
   56400    1.2194611   -5.8511798    4349.8493            2 
   56500    1.2577283   -5.9027228    4324.9784            3 
   56600    1.2239752   -5.8618785    4321.3789            2 
   56700    1.2639602   -5.8655741    4347.0415            3 
   56800    1.2221257    -5.864735    4350.8019            4 
   56900    1.2349408   -5.8584282    4349.0679            3 
   57000    1.2372048   -5.8369663    4331.1079            4 
   57100    1.2489224   -5.8468259    4337.1138            5 
   57200    1.2499326   -5.8761826    4338.3696            3 
   57300     1.237476   -5.8621309    4334.4475            4 
   57400    1.2034652   -5.8837907    4342.0324            6 
   57500    1.2310956   -5.8765124     4357.495            3 
   57600    1.2400599   -5.8636218    4350.0696            3 
   57700    1.2377015    -5.867447    4327.7048            5 
   57800    1.2293919   -5.8704466    4320.1722            3 
   57900    1.2484926   -5.8376523    4340.3779            2 
   58000     1.221058   -5.8388588    4333.0673            2 
   58100    1.2551936   -5.8492629    4335.5218            3 
   58200    1.2494715   -5.8464414    4341.0028            3 
   58300    1.2322588   -5.8599651    4344.7199            4 
   58400    1.2154339   -5.8584662    4344.0791            2 
   58500    1.2740272   -5.8559323    4322.4168            3 
   58600    1.2361087   -5.8463753    4322.6121            4 
   58700    1.2666518   -5.8578952     4331.295            3 
   58800    1.2395749    -5.819575     4350.624            2 
   58900    1.2419626    -5.879788    4330.8584            2 
   59000    1.2230117   -5.8421516    4336.4808            5 
   59100    1.2324286   -5.8017556    4352.5724            2 
   59200    1.2469775   -5.8322969    4346.6838            2 
   59300    1.2508354   -5.8353164    4323.1124            2 
   59400    1.2222012   -5.8069326    4319.4116            3 
   59500    1.2504274   -5.8276097    4339.5292            1 
   59600    1.2401514   -5.8074561    4341.1568            3 
   59700    1.2376897   -5.8668614    4339.0531            3 
   59800    1.2256348    -5.847761    4338.8393            2 
   59900    1.2611375   -5.8088914    4346.8876            3 
   60000    1.2441006   -5.7741652    4342.2524            4 
   60100    1.2480207   -5.8234126    4347.6852            3 
   60200    1.2142932   -5.8442095    4342.3747            3 
   60300    1.2384785   -5.8823673    4320.9687            2 
   60400    1.2086316    -5.885744    4298.9172            4 
   60500    1.2323431   -5.8944864    4310.6886            3 
   60600    1.2581767   -5.8704659    4318.1922            4 
   60700    1.2061697   -5.8561467    4328.7074            4 
   60800    1.2458941   -5.8553158    4345.4349            8 
   60900    1.2223573   -5.8550058    4339.0554            3 
   61000    1.2261277    -5.866123    4315.3821            4 
   61100    1.2741239   -5.8763498    4322.9219            2 
   61200    1.2267937   -5.8451121    4331.2434            2 
   61300    1.2545727   -5.8478976    4348.6452            2 
   61400    1.2267585   -5.8685936    4321.0512            5 
   61500    1.2308463   -5.8412987      4314.15            5 
   61600    1.2644861   -5.8368985    4340.4378            3 
   61700    1.2316359   -5.8350475     4363.858            6 
   61800    1.2253868   -5.8450434    4367.1295            3 
   61900    1.2516527   -5.8585485    4339.2584            4 
   62000    1.2536336   -5.8465723    4319.9495            3 
   62100    1.2377904   -5.7951807    4341.5317            3 
   62200    1.2414382   -5.8416195     4344.643            2 
   62300    1.2427081   -5.8930269    4338.9128            1 
   62400     1.237739   -5.8678357    4346.3716            2 
   62500     1.265138   -5.8480813    4334.0949            2 
   62600    1.2552014   -5.8808118    4322.6045            2 
   62700    1.2326586   -5.9065832    4333.5385            3 
   62800    1.2154489   -5.8986442    4338.7418            3 
   62900    1.2716434   -5.9014348    4329.0053            7 
   63000    1.2508938   -5.8897735    4334.1757            5 
   63100    1.1889918   -5.8865187    4344.9948            3 
   63200    1.2424227   -5.9001863    4330.1453            5 
   63300    1.2467896   -5.8405294    4342.5439            3 
   63400     1.243499    -5.834442    4336.2692            3 
   63500    1.2272442    -5.854579    4311.9907            7 
   63600    1.2300751   -5.8642805     4318.227            3 
   63700    1.2487741    -5.883452    4330.1819            4 
   63800    1.2436988    -5.910153    4327.3255            4 
   63900    1.2557802   -5.9145488     4322.098            5 
   64000    1.2455346   -5.8575858    4346.6308            3 
   64100     1.261346   -5.8353009     4364.826            2 
   64200    1.2439684   -5.8238492    4349.3808            3 
   64300    1.2554661   -5.8695266    4334.6905            2 
   64400    1.2087199   -5.8529446    4310.4993            4 
   64500    1.2488768    -5.859816    4324.9164            3 
   64600    1.2482302   -5.8822274    4344.9178            4 
   64700    1.2198096   -5.8757805    4344.0908            4 
   64800    1.2224556   -5.8805569    4335.1703            3 
   64900    1.2320845   -5.8399905    4355.3071            7 
   65000    1.2427729   -5.8328626    4346.0062            4 
   65100    1.2270315   -5.8605766    4328.8342            3 
   65200     1.242091    -5.851431    4340.3551            3 
   65300    1.2535856   -5.8366355     4348.203            4 
   65400    1.2292842   -5.8395035    4342.5091            7 
   65500     1.217851   -5.8416043     4335.339            3 
   65600    1.2447179   -5.8380238    4336.5353            4 
   65700    1.2338038   -5.8569615    4348.5827            2 
   65800    1.2474297   -5.8483243    4357.2768            5 
   65900    1.2370383    -5.810541    4349.5335            2 
   66000    1.2313629    -5.833341    4336.4959            1 
   66100    1.2484514   -5.8301094    4329.3649            1 
   66200    1.2329241   -5.8454471    4337.4779            7 
   66300    1.2371096   -5.8115679    4324.1428            2 
   66400    1.2416587   -5.8345987    4338.0631            5 
   66500    1.2418088   -5.8797549    4329.8896            4 
   66600    1.2443012   -5.8169142    4345.7091            2 
   66700    1.2524746   -5.8450692     4337.053            2 
   66800    1.2283102   -5.8492956    4340.3287            5 
   66900    1.2332707   -5.8689379    4336.0859            6 
   67000    1.2366165   -5.8728622    4327.2386            4 
   67100    1.2524155   -5.8592005    4337.2655            2 
   67200    1.2383928   -5.8381923    4341.2928            5 
   67300    1.2335271   -5.8827905    4335.8388            5 
   67400    1.2122854   -5.9024273    4335.7698            3 
   67500    1.2188252   -5.8753262     4302.162            3 
   67600    1.2599741    -5.897875    4288.5853            4 
   67700    1.2486141   -5.8875067    4318.1013            3 
   67800    1.2473838   -5.8488752    4327.1093            4 
   67900    1.2216445   -5.8648818    4327.5555            2 
   68000    1.2347714   -5.8344593    4347.5255            2 
   68100    1.2610385   -5.8387371    4361.6838            3 
   68200    1.2216591   -5.8492404    4360.0585            3 
   68300    1.2496058    -5.875368    4348.8825            2 
   68400    1.2487208   -5.8887503     4322.378            2 
   68500    1.2436076   -5.9062266    4316.8601            2 
   68600    1.2499174   -5.8616135    4340.1713            2 
   68700    1.2593593   -5.8520783    4345.0567            2 
   68800    1.2263532   -5.8544463    4331.8908            4 
   68900    1.2309653    -5.873841     4331.757            6 
   69000    1.2483656   -5.8357934    4334.3367            6 
   69100    1.2623625    -5.885688    4335.3202            3 
   69200    1.2202491   -5.8906635    4341.0503            3 
   69300    1.2124667   -5.8406491    4340.8964            2 
   69400    1.2293391   -5.8359534     4342.197            3 
   69500    1.2470327   -5.8740469    4323.2878            5 
   69600    1.2577972   -5.8360692    4328.2569            5 
   69700    1.2641872    -5.815633    4342.5565           11 
   69800     1.230463   -5.8283171    4338.6782            5 
   69900    1.2453594   -5.8549517    4337.8731            5 
   70000    1.2324633   -5.8608498    4323.7727            3 
   70100    1.2232972   -5.8732439    4325.5248            2 
   70200     1.257584   -5.8838375    4343.4994            2 
   70300    1.2115553   -5.8371594    4335.7149            3 
   70400    1.2549122   -5.8408979     4342.466            2 
   70500    1.2319062   -5.8179259    4339.8204            4 
   70600    1.2587609   -5.8344854    4334.9064            4 
   70700    1.2422317   -5.8489836    4334.7493            3 
   70800    1.2284996   -5.8992963    4338.0798            4 
   70900    1.2356828    -5.868599    4341.9208            4 
   71000    1.2264239   -5.7909364    4348.2488            4 
   71100    1.2470631   -5.8435044    4320.6398            4 
   71200    1.2379073   -5.8300562    4317.1231            2 
   71300    1.2709625   -5.8721578    4336.0956            3 
   71400     1.215077   -5.8719831    4347.4268            4 
   71500    1.2208181   -5.8535748    4338.6249            4 
   71600    1.2267839   -5.8882255    4328.5906            2 
   71700     1.225646   -5.8733896    4326.3052            4 
   71800    1.2486838   -5.8605481    4326.9927           13 
   71900    1.2309348   -5.9167443    4317.7135            7 
   72000    1.2302802   -5.9293476     4322.584            3 
   72100    1.2399424   -5.8986094     4336.282           15 
   72200    1.2536316   -5.8591023    4338.5529            8 
   72300    1.2495693   -5.8825205    4336.6149            3 
   72400    1.2315891   -5.8845596    4325.3827            3 
   72500     1.226837   -5.8589411    4329.1807            6 
   72600    1.2449346   -5.8482565    4333.9563            7 
   72700    1.2454618   -5.8658219    4326.8488            4 
   72800    1.2581235   -5.8487516    4338.3208            4 
   72900    1.2369689    -5.851285    4334.1003            3 
   73000    1.2220948   -5.8805277    4334.8691            2 
   73100    1.2237996   -5.8209023    4338.2527            3 
   73200     1.249299   -5.8498881    4335.3431            4 
   73300     1.227378   -5.8707495    4318.4586            7 
   73400    1.2623009   -5.8594428    4335.4494            4 
   73500    1.2426402   -5.8632398    4337.9011            2 
   73600     1.267126   -5.8492171    4321.2656            2 
   73700    1.2610367   -5.8045785    4330.8559            3 
   73800    1.2325216   -5.8443374    4334.2729            2 
   73900     1.259284   -5.8658073    4350.2749            3 
   74000    1.2439407   -5.8775775    4359.5884            2 
   74100    1.2169398   -5.8621575    4338.7665            2 
   74200    1.2543039   -5.8547762    4337.5579            3 
   74300    1.2463278   -5.8419237    4321.6013            4 
   74400    1.2591998   -5.8485025    4323.8024            3 
   74500    1.2667088   -5.8779201    4337.6851            3 
   74600    1.2273794   -5.8727206    4344.1942            3 
   74700    1.2018164   -5.8874905    4345.1541            3 
   74800    1.2447264   -5.8970198    4316.1432            3 
   74900    1.2537239   -5.8339179    4332.8984            2 
   75000    1.2469637   -5.8548513    4332.2393            5 
   75100    1.2458363   -5.9052381    4311.5805            2 
   75200    1.2284638   -5.8771082    4327.1264            3 
   75300    1.2324226    -5.857596    4343.7247            5 
   75400    1.2333949   -5.8719164    4336.9589            4 
   75500    1.2329676   -5.8542467    4316.5232            2 
   75600    1.2557919   -5.8415496    4325.2935            2 
   75700     1.223521   -5.8197507    4326.8895            3 
   75800    1.2279223   -5.8575702    4328.4898            2 
   75900    1.2475569   -5.8981346    4327.9678            5 
   76000    1.2297646   -5.8670413    4333.4509            3 
   76100     1.230087   -5.8491571    4339.8853            2 
   76200    1.2421295   -5.8247337     4342.091            6 
   76300    1.2227883   -5.8470558    4322.0951            1 
   76400    1.2577226   -5.8418477    4329.0605            4 
   76500    1.2260743   -5.8481044    4333.1242            4 
   76600      1.24919   -5.8561754    4335.9451            4 
   76700    1.2571517   -5.8311257    4368.9109            4 
   76800    1.2512713   -5.8660379    4335.5119            2 
   76900    1.2390221   -5.8626575    4328.3332            4 
   77000    1.2193497   -5.8666949    4340.9305            3 
   77100    1.2442818   -5.8563119    4350.9174            2 
   77200    1.2298947   -5.8755705     4334.197            5 
   77300    1.2394115    -5.884048    4327.3956            4 
   77400    1.2616815   -5.8724167    4330.1916            2 
   77500    1.2383855   -5.8963318    4309.9184            5 
   77600    1.2064094   -5.8719089     4331.109            3 
   77700    1.2313475   -5.8844068    4326.7152            4 
   77800    1.2212982   -5.8928197    4317.3615            6 
   77900    1.2551709   -5.8606415    4307.5647            1 
   78000     1.243516   -5.8067396    4316.4418            2 
   78100    1.2372572   -5.7998072    4340.7157            4 
   78200     1.213524    -5.829051      4345.54            2 
   78300    1.2430907   -5.8295824    4337.0527            2 
   78400    1.2716336   -5.8216945    4338.7053            5 
   78500    1.2343582   -5.8184682    4341.1664            4 
   78600    1.2354569   -5.8700794     4352.644            4 
   78700    1.2621021    -5.868105    4346.1258            4 
   78800    1.2058231   -5.8363998    4332.0039            2 
   78900    1.2515857   -5.8423178    4329.5421            3 
   79000    1.2884156   -5.8345093    4337.4265            3 
   79100    1.2539428   -5.8547532    4342.6512            6 
   79200    1.2195553   -5.8610179    4344.2852            9 
   79300    1.2383148   -5.8642344    4334.9514            3 
   79400    1.2286498   -5.8688456    4328.5865            2 
   79500    1.2239828   -5.8469169    4322.0154            5 
   79600    1.2451197   -5.8553062    4319.5482            1 
   79700    1.2690352   -5.8553144    4339.1881            3 
   79800     1.231833   -5.8634174    4336.4858            3 
   79900     1.239025   -5.8763589    4332.2679            2 
   80000    1.2288987    -5.901003    4320.9513            3 
   80100    1.2443916   -5.8636103    4332.2867            7 
   80200    1.2444116   -5.8431086    4326.3998            3 
   80300    1.2319182   -5.8674158    4327.4719            6 
   80400    1.2466208   -5.8527865    4351.7573            4 
   80500    1.2334548   -5.8536676    4329.7523            4 
   80600    1.2235738   -5.8359922    4338.4187            3 
   80700    1.2373491   -5.8209332    4345.4128            4 
   80800    1.2147502   -5.8244224    4349.5748            2 
   80900    1.2724472    -5.854248    4343.7656            3 
   81000    1.2522432     -5.84302    4302.4425            3 
   81100    1.2382963   -5.8603021     4313.824            3 
   81200    1.2260133   -5.8440581    4322.7031            3 
   81300    1.2758613   -5.8737772    4330.8794            3 
   81400    1.2266942   -5.8666711    4330.2621            2 
   81500    1.2516992   -5.8799682    4332.9321            3 
   81600    1.2368471   -5.8882118    4341.3355            2 
   81700    1.2488677   -5.8548519    4354.0906            7 
   81800    1.2631157   -5.8479453    4343.8668            3 
   81900    1.2330459   -5.8660446    4327.5179            2 
   82000    1.2704386   -5.8823879    4322.2851            2 
   82100     1.228371   -5.8545822    4328.0863            4 
   82200    1.2288233   -5.8492766    4345.6827            4 
   82300    1.2321511      -5.8215    4361.5177            4 
   82400    1.2407306   -5.8330659    4354.1005            2 
   82500    1.2341339   -5.8638752    4325.7237            4 
   82600    1.2391475   -5.8527253    4338.4922            2 
   82700    1.2393759   -5.8421205    4336.2747            3 
   82800    1.2022278    -5.848591    4322.0385            4 
   82900    1.2428146   -5.8452974    4321.8041            4 
   83000    1.2411614   -5.8719472    4328.7885            4 
   83100    1.2352531   -5.8343294    4341.0347            3 
   83200    1.2442966   -5.8182118    4351.2768            5 
   83300     1.216736    -5.845659    4347.6413            2 
   83400    1.2296067   -5.8484433    4350.3275            4 
   83500    1.2541619   -5.8131436    4366.5978            3 
   83600    1.2511458   -5.8292455    4317.2204            5 
   83700    1.2490077   -5.8188103    4329.3443            5 
   83800    1.2305651   -5.8296638    4347.4452            4 
   83900    1.2312253   -5.8313033    4335.1546            2 
   84000    1.2253506   -5.8406153    4328.0907            7 
   84100    1.2285613   -5.8873108    4319.3804            6 
   84200    1.2402995   -5.8676541    4329.2937            4 
   84300    1.2362868   -5.8526111    4340.6545            5 
   84400    1.2729948   -5.8444187    4347.0537            3 
   84500    1.2440221    -5.857855    4336.5607            3 
   84600    1.2326847   -5.8626215       4333.7            2 
   84700    1.2352129   -5.8645026    4334.5623            3 
   84800    1.2543659   -5.8891216    4344.6682            2 
   84900    1.2591975   -5.8476003    4358.2972            2 
   85000    1.2412463   -5.8497107    4353.6732            4 
   85100    1.2377674    -5.874139    4347.8905            8 
   85200    1.2255359   -5.8540302    4350.1362            5 
   85300    1.2474841    -5.847989    4357.0579            3 
   85400    1.2432471   -5.8731781    4346.3565            3 
   85500     1.239512   -5.9143242    4331.7099            3 
   85600    1.2467366   -5.8715015    4347.7145            4 
   85700    1.2159591   -5.8652999    4350.1994            4 
   85800     1.239028   -5.8668047    4331.4979            3 
   85900     1.250232   -5.8438022    4316.9523            2 
   86000    1.2351741   -5.8316286     4336.739            3 
   86100    1.2159268   -5.8574792    4326.1964            3 
   86200    1.2590982   -5.8676275    4329.4232            2 
   86300    1.2480281    -5.831216    4346.3683            4 
   86400    1.2398753   -5.8612121    4315.0769            2 
   86500    1.2307812   -5.8884358    4306.0569            2 
   86600    1.2662303   -5.8951371    4338.2782            2 
   86700    1.2241982   -5.8636457    4352.6894            3 
   86800    1.2086976   -5.8512267    4341.3801            6 
   86900    1.2393764   -5.8405965    4340.8273            4 
   87000    1.2484612   -5.8623342    4338.8357            3 
   87100    1.2281147   -5.8551133    4326.6339            6 
   87200    1.2407757   -5.8886348    4323.0841            4 
   87300    1.2411621   -5.8483638    4336.9913            3 
   87400    1.2616842   -5.8804018    4346.8825            4 
   87500     1.234511   -5.8647761    4352.3568            5 
   87600    1.2295492   -5.8566417    4335.5747            5 
   87700    1.2511072   -5.8479536    4338.3049            1 
   87800    1.2571931   -5.8226836     4327.635            3 
   87900    1.2282864   -5.8351651    4336.7015            2 
   88000    1.2564604   -5.8509173    4337.1368            5 
   88100    1.2316953   -5.8800224    4332.8125            3 
   88200    1.2619413   -5.8831306    4332.2055            4 
   88300     1.217836   -5.8855585    4328.2056            2 
   88400    1.2368652   -5.8917292    4338.8355            7 
   88500    1.2356477   -5.8441032    4342.4378            5 
   88600      1.25963    -5.846105    4332.3606            4 
   88700    1.2201393   -5.8563942    4321.6991            5 
   88800    1.2425843   -5.8870111    4336.0542            6 
   88900     1.246628   -5.8502024    4360.3651            1 
   89000    1.2583252   -5.7926438    4351.7398            4 
   89100    1.2637926   -5.8486867     4325.295            2 
   89200    1.2490704   -5.8244914    4332.7295            2 
   89300    1.2412324   -5.8422635    4337.3541            2 
   89400    1.2332429   -5.8903655    4340.1315            2 
   89500    1.2446623   -5.9005769    4340.2535            5 
   89600    1.2628669    -5.851598    4348.3592            4 
   89700    1.2261688   -5.8348232    4335.0152            2 
   89800    1.2441833   -5.8540602    4323.2919            1 
   89900    1.2480119   -5.8651271    4319.1474            4 
   90000    1.2632692   -5.8376438    4338.3367            7 
   90100    1.2435945    -5.832431     4340.602            4 
   90200     1.223553   -5.8499532    4337.5545            5 
   90300    1.2361305   -5.8676505      4345.26            3 
   90400    1.2340097   -5.8350038    4336.0983            2 
   90500    1.2647336    -5.868728    4331.5995            3 
   90600    1.2762693   -5.8477163    4349.8419            3 
   90700    1.2099813    -5.824739    4337.7415            3 
   90800    1.2440772   -5.8479807    4351.8017            2 
   90900    1.2261827   -5.8649222    4356.1523            2 
   91000    1.2409052   -5.8991783    4325.5173            5 
   91100    1.2378911   -5.8709774    4325.1988            4 
   91200    1.2490923   -5.8486399    4332.8362            3 
   91300    1.2459421   -5.8927827     4335.669            3 
   91400    1.2035279   -5.8677466    4332.0542            2 
   91500    1.2331081   -5.8195059    4328.4456            2 
   91600    1.2216943   -5.8328484    4339.3464            2 
   91700    1.2481653   -5.8513156    4325.6443            4 
   91800    1.2278443    -5.848645    4319.9639            3 
   91900    1.2568842   -5.8335794    4350.7796            4 
   92000    1.2386746   -5.8599186     4347.849            2 
   92100    1.2533958   -5.8996139    4341.9381            6 
   92200    1.2242745    -5.909123    4309.7221            3 
   92300    1.2352683   -5.8831727    4323.3549            3 
   92400    1.2788246   -5.9089652    4325.0415            6 
   92500    1.2355439   -5.8626114    4325.9002            5 
   92600    1.2410693   -5.8340445    4352.7884            4 
   92700    1.2464226   -5.8955922    4345.8209            3 
   92800    1.2170368   -5.8792744    4340.6415            4 
   92900    1.2400193   -5.8398298    4354.8182            7 
   93000    1.2381047   -5.8077529    4340.7547            3 
   93100    1.2435031   -5.8689833    4306.3995            3 
   93200    1.2373233   -5.8495268    4329.3855            4 
   93300    1.2224639   -5.8652285    4333.4955            9 
   93400    1.2181953    -5.840925     4350.675            3 
   93500    1.2397456   -5.8379896    4339.1447            2 
   93600    1.2315305   -5.8553878    4334.2915            2 
   93700    1.2711951   -5.8493656    4344.9629            3 
   93800    1.2227079   -5.8276583     4324.718            5 
   93900    1.2558604   -5.8525687    4324.3965            6 
   94000    1.2243487   -5.8500147    4333.4772            5 
   94100     1.235552   -5.8755752    4329.8194            4 
   94200    1.2484522   -5.8611967    4341.4223            3 
   94300    1.2275638   -5.8901186    4339.3434            3 
   94400    1.2625624   -5.8863965    4331.9588            2 
   94500    1.2614441   -5.8486697    4334.4707            4 
   94600    1.2484123   -5.8111669    4352.3173            3 
   94700    1.2434603   -5.8506707    4345.3474            4 
   94800    1.2549112   -5.8787401    4324.8511            2 
   94900    1.2131431   -5.8553208    4334.9504            3 
   95000    1.2264706   -5.8736437    4332.8623            3 
   95100    1.2592886    -5.855302    4334.3744            4 
   95200    1.2473888   -5.8339044    4333.5555            1 
   95300    1.2561387   -5.8180137    4335.0671            3 
   95400    1.2215385   -5.8153105    4350.7715            4 
   95500    1.2475091   -5.8675702     4341.762            5 
   95600    1.2160871   -5.8640386    4326.6757            5 
   95700    1.2478312     -5.90096    4318.3384            3 
   95800    1.2342327   -5.8923442    4313.8136            4 
   95900    1.2545362   -5.8905184    4346.2446            2 
   96000    1.2289899   -5.9019591    4343.3076            7 
   96100    1.2112921   -5.9036129    4332.7468            2 
   96200    1.2394872   -5.8536446    4327.1574            4 
   96300    1.2476502   -5.8267326     4334.968            3 
   96400    1.2672664   -5.8514521    4342.5524            5 
   96500    1.2458539   -5.8749125    4333.2498            3 
   96600    1.2333595   -5.8827893     4321.487            2 
   96700    1.2346528   -5.9186246    4327.5086            2 
   96800    1.2419039   -5.8658501    4341.2591            4 
   96900    1.2429713   -5.8881299    4341.0458            5 
   97000    1.2384973     -5.89917    4329.6157            7 
   97100    1.2378064   -5.8938609    4319.5913            5 
   97200    1.2638464   -5.8519474     4337.571            4 
   97300    1.2104895   -5.8351331    4325.4395            5 
   97400    1.2468072   -5.8359241    4332.0677            2 
   97500    1.2345573   -5.8740865    4337.3952            2 
   97600    1.2398179   -5.8906326    4337.4634            2 
   97700    1.2415269   -5.8382573    4355.4122            2 
   97800    1.2346046   -5.8657966     4358.852            1 
   97900    1.2517874   -5.8717494    4330.8621            2 
   98000     1.246968   -5.8657448    4328.6703            2 
   98100    1.2471353   -5.8382744    4337.5591            3 
   98200    1.2247206   -5.8766053    4325.2169            4 
   98300    1.2125903   -5.8791988    4328.1544            2 
   98400     1.255654   -5.8659161    4329.6177            4 
   98500    1.2454196    -5.850902    4334.3562            2 
   98600    1.2679223   -5.8378325    4350.0065            3 
   98700    1.2476235   -5.8663859    4323.4297            5 
   98800    1.2131588   -5.8529849    4319.7016            4 
   98900    1.2453063   -5.8343109    4343.8662            2 
   99000    1.2461781   -5.8383906     4341.814            3 
   99100    1.2221913   -5.8299667    4327.7057            3 
   99200    1.2218166    -5.840295    4325.2457            4 
   99300    1.2519774    -5.853103    4333.6055            1 
   99400    1.2378302   -5.8421391     4347.835            3 
   99500    1.2043885   -5.8586072    4335.3075            2 
   99600    1.2433139    -5.872099    4344.4252            4 
   99700    1.2465229   -5.8575376    4337.8254            9 
   99800    1.2309164   -5.8583278    4336.2017            4 
   99900    1.2364861    -5.817057    4333.6772            4 
  100000    1.2708031   -5.8315127    4337.1949            1 
  100100     1.238151   -5.8662308    4333.2256            2 
  100200    1.2523156   -5.8576822    4353.1137            2 
  100300    1.2470957   -5.8329238    4359.8212            7 
  100400    1.2292867   -5.8580821    4352.8748            3 
  100500    1.2456089   -5.8487538     4332.915            2 
  100600     1.236943     -5.86913     4309.702            3 
  100700    1.2520998   -5.8401621    4322.9818            2 
  100800    1.2487131   -5.8675649     4334.866            3 
  100900    1.1968438   -5.8572766    4346.0915            3 
  101000    1.2323237   -5.8551034    4360.6132            5 
  101100    1.2354851   -5.8499249     4347.161            3 
  101200    1.2571053   -5.8588388    4321.2625            3 
  101300    1.2405882   -5.8336944    4336.8021            4 
  101400    1.2335699   -5.8729707    4354.8393            2 
  101500    1.2270093    -5.899075    4336.9165            7 
  101600    1.2354875   -5.8532311    4332.9211            5 
  101700    1.2595291   -5.8785428    4324.0315            3 
  101800    1.2388406   -5.8437027    4320.0698            3 
  101900    1.2579998   -5.8435892    4341.6405            4 
  102000    1.2529108   -5.8281997    4340.3901            3 
  102100    1.2326243    -5.844444    4333.3015            3 
  102200    1.2450641    -5.874772    4341.0343            5 
  102300     1.235697   -5.8543627     4355.002            3 
  102400    1.2466524   -5.8437821    4341.1653            1 
  102500    1.2150377   -5.8430023    4339.4842            6 
  102600    1.2512598   -5.8301693    4350.1018            6 
  102700    1.2421533   -5.8448902    4348.8175            2 
  102800    1.2290935   -5.8843795    4320.7789            4 
  102900    1.2566038   -5.8886993    4328.3756            3 
  103000    1.2462031   -5.8927799     4328.781            5 
  103100    1.2126123   -5.8863624    4335.2312            3 
  103200    1.2566409   -5.8956266    4344.7433            2 
  103300    1.2287126   -5.8918198     4351.285            2 
  103400    1.2520496    -5.859086    4345.1876            6 
  103500    1.2673299   -5.8461705    4323.5504            3 
  103600    1.2298522   -5.8414408    4310.9424            3 
  103700    1.2314564   -5.8711847    4321.6368            5 
  103800    1.2262052   -5.8459458    4354.1662            1 
  103900    1.2548374   -5.8427725    4363.9797            4 
  104000    1.2331979   -5.8481183    4342.9068            8 
Loop time of 284.736 on 18 procs for 100000 steps with 4000 atoms

Performance: 60687.792 tau/day, 351.202 timesteps/s
99.6% CPU use with 18 MPI tasks x no OpenMP threads

MPI task timing breakdown:
Section |  min time  |  avg time  |  max time  |%varavg| %total
---------------------------------------------------------------
Pair    | 34.992     | 36.702     | 38.076     |  14.3 | 12.89
Neigh   | 5.0903     | 5.2033     | 5.2908     |   2.6 |  1.83
Comm    | 11.937     | 14.431     | 17.987     |  44.4 |  5.07
Output  | 5.7328     | 5.734      | 5.7493     |   0.2 |  2.01
Modify  | 216.63     | 219.85     | 223.56     |  14.2 | 77.21
Other   |            | 2.811      |            |       |  0.99

Nlocal:        222.222 ave         230 max         214 min
Histogram: 2 1 1 3 0 4 2 0 4 1
Nghost:        2251.83 ave        2267 max        2229 min
Histogram: 1 0 1 3 1 4 2 1 1 4
Neighs:        23377.7 ave       24892 max       21585 min
Histogram: 1 2 1 2 1 4 0 3 1 3
FullNghs:      46758.3 ave       48779 max       44647 min
Histogram: 2 0 1 2 5 0 3 3 1 1

Total # of neighbors = 841649
Ave neighs/atom = 210.41225
Neighbor list builds = 6649
Dangerous builds = 0

#clear
#
#next RN
#
#jump SELF
Total wall time: 0:04:46
