
units lj                  # Use reduced LJ style units
atom_style atomic         # Uncharged point particles
atom_modify map hash      # Needed for indexing of clusters etc
                          # Used to be able to find where atoms are in relation to each other.

lattice fcc 1.0 spacing 1 1 1
Lattice spacing in x,y,z = 1.5874011 1.5874011 1.5874011
region box block 0 10 0 10 0 10 units lattice
create_box 2 box
Created orthogonal box = (0.0000000 0.0000000 0.0000000) to (15.874011 15.874011 15.874011)
  3 by 4 by 4 MPI processor grid
create_atoms 1 box
Created 4000 atoms
  using lattice units in orthogonal box = (0.0000000 0.0000000 0.0000000) to (15.874011 15.874011 15.874011)
  create_atoms CPU = 0.009 seconds
set type 1 type/fraction 2 0.08 78393
Setting atom values ...
  344 settings made for type/fraction
mass 1 1.0
mass 2 1.0
pair_style lj/cut  3.5
pair_modify tail  yes
pair_coeff 1  1  1.0  1.0   # Intearaction between 1 and 1 set with epsilon = 1 and sigma = 1
pair_coeff 1  2  1.5  0.8
pair_coeff 2  2  0.5  0.88

write_data data.0
System init for write_data ...
Neighbor list info ...
  update every 1 steps, delay 10 steps, check yes
  max neighbors/atom: 2000, page size: 100000
  master list distance cutoff = 3.8
  ghost atom cutoff = 3.8
  binsize = 1.9, bins = 9 9 9
  1 neighbor lists, perpetual/occasional/extra = 1 0 0
  (1) pair lj/cut, perpetual
      attributes: half, newton on
      pair build: half/bin/atomonly/newton
      stencil: half/bin/3d
      bin: standard
WARNING: Not all mixed pair coeffs generated from mixing. Use write_data with 'pair ij' option to store all pair coeffs. (../write_data.cpp:312)


#############################
#   M E L T   S Y S T E M   #
#############################

velocity all create 2.4 9580093 mom yes dist gaussian # Assign velocities
                                                    # Temperature 2.4, random number seed, zero linear momentum
                                                                                # Gaussian distribution

timestep 0.002   # simulation timestep
thermo 1000       # output thermodynamic data every 1000 steps bf 100

# Define a fix  in this case with index 1 applied to all
# particles in the simulation. This fix is for simulations
# in the anisotropic NPT ensemble. Note that we use the MTK
# correction.
fix 1 all npt temp 2.4 2.4 0.1 iso 5.68 5.68 0.5 mtk yes tchain 5 pchain 5 # Use NPT ensemble
                                                                         # Set temperature and pressure and damping
                                                                         # Numbers of thermostats in chain and in barostat
run 10000          # run for 10000 steps
Per MPI rank memory allocation (min/avg/max) = 3.642 | 3.644 | 3.648 Mbytes
Step Temp E_pair E_mol TotEng Press Volume 
       0          2.4   -7.8205278            0   -4.2214278   -2.8943486         4000 
    1000    2.3985212   -4.5279789            0  -0.93109657     5.892288    4899.6937 
    2000    2.4050278   -4.6531439            0   -1.0465041    5.2184932    4923.7545 
    3000    2.4123304   -4.5432688            0  -0.92567775    5.4774314    4949.1275 
    4000    2.4090931   -4.5826512            0  -0.96991496    5.4465645    4927.8883 
    5000    2.3677322   -4.5600688            0   -1.0093584    5.5443502    4918.1011 
    6000    2.4052653   -4.5165774            0  -0.90958137    5.8809047    4906.4528 
    7000    2.4210662   -4.5577329            0  -0.92704148    5.5313487     4939.765 
    8000      2.41728   -4.5472321            0  -0.92221852    5.5392109    4946.3341 
    9000     2.388292   -4.5992623            0   -1.0177199    5.4833358    4915.4652 
   10000    2.4191497   -4.5812034            0  -0.95338604    5.7231585    4900.4854 
Loop time of 2.22068 on 48 procs for 10000 steps with 4000 atoms

Performance: 778140.082 tau/day, 4503.125 timesteps/s
99.6% CPU use with 48 MPI tasks x no OpenMP threads

MPI task timing breakdown:
Section |  min time  |  avg time  |  max time  |%varavg| %total
---------------------------------------------------------------
Pair    | 0.91516    | 0.95596    | 1.0616     |   3.5 | 43.05
Neigh   | 0.18813    | 0.19903    | 0.2226     |   1.8 |  8.96
Comm    | 0.68726    | 0.77858    | 0.88806    |   5.6 | 35.06
Output  | 0.00024609 | 0.00025034 | 0.00030714 |   0.0 |  0.01
Modify  | 0.20967    | 0.27241    | 0.34208    |   8.0 | 12.27
Other   |            | 0.01445    |            |       |  0.65

Nlocal:        83.3333 ave          91 max          77 min
Histogram: 6 2 8 2 7 8 4 8 1 2
Nghost:        1429.25 ave        1466 max        1407 min
Histogram: 3 4 10 15 4 5 4 1 0 2
Neighs:        7761.98 ave        8655 max        6895 min
Histogram: 3 2 5 6 10 7 5 5 3 2

Total # of neighbors = 372575
Ave neighs/atom = 93.143750
Neighbor list builds = 908
Dangerous builds = 242

# Equilibrate just above the melting temperature to avoid step fn in T

fix 1 all npt temp 1.25 1.25 0.1 iso 5.68 5.68 0.5 mtk yes tchain 5 pchain 5
run 2000
Per MPI rank memory allocation (min/avg/max) = 3.642 | 3.644 | 3.648 Mbytes
Step Temp E_pair E_mol TotEng Press Volume 
   10000    2.4191497   -4.5812034            0  -0.95338604    5.7231585    4900.4854 
   11000    1.2464123   -6.0901406            0   -4.2209895    5.6536423    4068.9411 
   12000    1.2698747   -6.1378324            0   -4.2334966     5.742653    4046.0245 
Loop time of 0.47395 on 48 procs for 2000 steps with 4000 atoms

Performance: 729191.501 tau/day, 4219.858 timesteps/s
99.6% CPU use with 48 MPI tasks x no OpenMP threads

MPI task timing breakdown:
Section |  min time  |  avg time  |  max time  |%varavg| %total
---------------------------------------------------------------
Pair    | 0.21138    | 0.22255    | 0.23559    |   1.3 | 46.96
Neigh   | 0.031931   | 0.033245   | 0.036602   |   0.5 |  7.01
Comm    | 0.14443    | 0.16241    | 0.17754    |   1.8 | 34.27
Output  | 5.22e-05   | 5.3672e-05 | 6.6085e-05 |   0.0 |  0.01
Modify  | 0.046987   | 0.051173   | 0.056916   |   1.4 | 10.80
Other   |            | 0.004509   |            |       |  0.95

Nlocal:        83.3333 ave          92 max          76 min
Histogram: 2 7 6 4 6 7 9 3 2 2
Nghost:        1629.23 ave        1652 max        1604 min
Histogram: 1 2 2 10 5 10 6 9 1 2
Neighs:        9435.81 ave       10549 max        8280 min
Histogram: 1 3 4 9 6 5 13 3 1 3

Total # of neighbors = 452919
Ave neighs/atom = 113.22975
Neighbor list builds = 143
Dangerous builds = 8

#############################
# L I N E A R  Q U E N C H  #
#############################

# Define solid atoms. This closely follows ten Wolde  Ruiz-Montero and Frenkel  Faraday Discuss  1996  104  93-110
# Compute components of the per-atom q6 vector
compute q6 all orientorder/atom degrees 1 6 components 6 nnn NULL cutoff 1.3 # compute the Q6 parameter.
                                                                             # Use all neighbours within 1.3 unit cell.

# get number of connections
compute coord_number all coord/atom orientorder q6 0.5

# An atom is solid if it has 8 or more connections (of a possible 14)
variable is_solid atom c_coord_number>=8
group solid dynamic all var is_solid    # Must be dynamic to update
dynamic group solid defined

# do clustering
compute cluster solid cluster/atom 1.3 # Create a cluster where all atoms within are solid and max 1.3 units from another member

# define chunks one chunk per cluster
compute clus_chunks solid chunk/atom c_cluster nchunk every compress yes  # Says which atoms are in which chunk

# count the size of each chunk
compute size_chunks solid property/chunk clus_chunks count


# Find the maximum entry in the vector of chunk sizes
variable max_n equal max(c_size_chunks)


# Thermo style which includes this variable
# thermo_style custom step temp pe vol v_max_n

thermo ${N}  # Print the thermo information every 100 steps
thermo 1000  

# Reset the npt fix at a lower temperature (below freezing)
fix 1  all npt temp  ${temp} ${temp}  0.1  iso  5.68  5.68  0.5  mtk yes tchain  5  pchain  5
fix 1  all npt temp  0.45 ${temp}  0.1  iso  5.68  5.68  0.5  mtk yes tchain  5  pchain  5
fix 1  all npt temp  0.45 0.45  0.1  iso  5.68  5.68  0.5  mtk yes tchain  5  pchain  5

dump dmp2 all dcd ${N} traj.dcd
dump dmp2 all dcd 1000 traj.dcd


compute msd all msd com yes
variable twopoint equal c_msd[4]/6/(step*dt+1.0e-6)
fix 9 all vector 10 c_msd[4]
variable fit equal slope(f_9)/6/(10*dt)
thermo_style custom step temp pe c_msd[4] v_twopoint v_fit v_max_n

fix 1 all npt temp 1.25 ${temp} 0.1 iso 5.68 5.68 0.5 mtk yes tchain 5 pchain 5
fix 1 all npt temp 1.25 0.45 0.1 iso 5.68 5.68 0.5 mtk yes tchain 5 pchain 5
run 5000000 # 5000000  # Run for this many steps
Neighbor list info ...
  update every 1 steps, delay 10 steps, check yes
  max neighbors/atom: 2000, page size: 100000
  master list distance cutoff = 3.8
  ghost atom cutoff = 3.8
  binsize = 1.9, bins = 9 9 9
  4 neighbor lists, perpetual/occasional/extra = 1 3 0
  (1) pair lj/cut, perpetual
      attributes: half, newton on
      pair build: half/bin/atomonly/newton
      stencil: half/bin/3d
      bin: standard
  (2) compute orientorder/atom, occasional
      attributes: full, newton on
      pair build: full/bin/atomonly
      stencil: full/bin/3d
      bin: standard
  (3) compute coord/atom, occasional
      attributes: full, newton on
      pair build: full/bin/atomonly
      stencil: full/bin/3d
      bin: standard
  (4) compute cluster/atom, occasional
      attributes: full, newton on
      pair build: full/bin/atomonly
      stencil: full/bin/3d
      bin: standard
Per MPI rank memory allocation (min/avg/max) = 9.744 | 9.750 | 9.755 Mbytes
Step Temp PotEng c_msd[4] v_twopoint v_fit v_max_n 
   12000    1.2698747   -6.1378324 4.059281e-30 2.818945e-32 8.3333333e+20            2 
   13000    1.2511151   -6.1427462   0.57235049 0.0036689132  0.046253261            2 
   14000    1.2191038   -6.1505422    1.1105703 0.0066105375  0.046406431            2 
   15000    1.2237959   -6.1562989    1.6734201 0.0092967781  0.046059114            3 
   16000    1.2658829   -6.1123096    2.2225788  0.011575931  0.045937081            4 
   17000    1.2619923   -6.1745454    2.7963288  0.013707494  0.046169143            2 
   18000    1.2729152   -6.1529916    3.2999588  0.015277587  0.046177454            2 
   19000    1.2342485    -6.122662    3.8100003  0.016710527  0.045739196            2 
   20000    1.2333965   -6.1572551    4.3071041  0.017946267  0.045122527            7 
   21000    1.2737268   -6.1707764    4.9137419  0.019498975  0.044921728            3 
   22000    1.2531551   -6.1477283    5.4299055  0.020567824  0.044995929            4 
   23000    1.2255068   -6.1072477     6.013507  0.021788068  0.045109131            2 
   24000    1.2434987   -6.1338718    6.6428087  0.023065307  0.045406128            1 
   25000    1.2473458   -6.1482006    7.2902749  0.024300916  0.045740151            1 
   26000    1.2365514   -6.1254367    7.8199791  0.025064035   0.04609464            1 
   27000    1.2437359   -6.1522016    8.3339919  0.025722197  0.046246972            2 
   28000    1.2435669   -6.1224069    8.8342344  0.026292364  0.046248135            3 
   29000    1.2525959   -6.1450693    9.3502278   0.02686847  0.046152371            2 
   30000    1.2519668   -6.1488146    9.8820226  0.027450062  0.046018483            1 
   31000    1.2652096   -6.1640208     10.41799  0.028005349  0.045927411            4 
   32000    1.2484575   -6.1801887    10.953864  0.028525687  0.045847583            2 
   33000    1.2756248   -6.1691514    11.541249  0.029144568  0.045789235            3 
   34000     1.266273   -6.1529437    12.132431   0.02973635  0.045791402            3 
   35000    1.2149665   -6.1412658    12.750858  0.030359185  0.045839373            5 
   36000    1.2532761   -6.1484175    13.321038  0.030835736  0.045931306            3 
   37000    1.2364134   -6.1516674    13.811937  0.031107965   0.04597152            2 
   38000    1.2552979   -6.1716398    14.266519  0.031286225  0.045944686            2 
   39000    1.2349173   -6.1316151     14.74735  0.031511432  0.045862407            1 
   40000     1.232914   -6.1415942    15.302275  0.031879739  0.045785149            3 
   41000    1.2735816   -6.1461486    15.943082  0.032404637  0.045758836            1 
   42000    1.2275551   -6.1128527    16.381034  0.032502052  0.045710648            3 
   43000    1.2341116   -6.1016001    17.038544  0.033020433  0.045670406            3 
   44000    1.2500961   -6.1638147    17.529118  0.033199086  0.045673706            5 
   45000    1.2588972   -6.1559929    18.048566   0.03342327  0.045666865            3 
   46000    1.2102774   -6.1575437    18.582822  0.033664532  0.045637316            4 
   47000    1.2217683   -6.1726956    19.104389  0.033873029  0.045617811            6 
   48000    1.2684591   -6.1394972    19.796635  0.034369158  0.045605087            3 
   49000    1.2424813   -6.1131788    20.130082  0.034234833   0.04559109            1 
   50000    1.1963071   -6.1748373    20.591563  0.034319271  0.045531026            2 
   51000    1.2126972   -6.1574181    21.182037  0.034611171  0.045462724            2 
   52000    1.2577143   -6.1394937    21.458785  0.034389079  0.045385433            1 
   53000    1.2677274   -6.1001393    22.186856  0.034884993  0.045287979            2 
   54000    1.2558112   -6.1389927    22.596315  0.034870857  0.045207392            2 
   55000    1.2130051   -6.1415169    23.159927  0.035090799  0.045134957            6 
   56000     1.242032   -6.1344348    23.621042  0.035150359  0.045058638            2 
   57000    1.2591344   -6.1391048    24.033479  0.035136666  0.044981351            1 
   58000    1.2535504   -6.1353683    24.541063  0.035260147  0.044895007            3 
   59000    1.2457291   -6.1495956    25.187913  0.035576147  0.044827245            1 
   60000    1.2391025   -6.1533981    25.451385  0.035349145   0.04473893            1 
   61000    1.2352423   -6.1527015    26.000595  0.035519939  0.044640797            4 
   62000    1.2166488   -6.1749414    26.640841  0.035807581  0.044555084            6 
   63000    1.2077018   -6.1176012    27.263272  0.036062529  0.044502897            3 
   64000    1.2675647   -6.1630695    27.749058  0.036131586  0.044482591            2 
   65000    1.2372716   -6.1644014    28.241026  0.036206443  0.044437662            3 
   66000    1.2598394   -6.1469928     28.81401  0.036381325  0.044391013            2 
   67000    1.2269974   -6.1361477    29.327474  0.036476957  0.044350686            4 
   68000    1.2248559   -6.1621888    30.063771  0.036842856  0.044328674            4 
   69000    1.2658673    -6.169121    30.443681  0.036767731  0.044323878            2 
   70000     1.213405   -6.1810885    30.950846  0.036846245  0.044305434            5 
   71000     1.223344    -6.168832    31.554488  0.037035783  0.044289425            1 
   72000    1.2386456   -6.1573803    32.016349  0.037055959  0.044281019            2 
   73000    1.2317046   -6.1430682    32.688149  0.037315238  0.044287781            2 
   74000    1.2910811   -6.2170385    33.182411   0.03736758  0.044286641            4 
   75000    1.2799881   -6.1726225    33.584569  0.037316187  0.044274061            4 
   76000    1.2087829   -6.2015029    34.099293  0.037389575   0.04425138            3 
   77000    1.2385859   -6.1512821    34.737978  0.037595214  0.044220322            1 
   78000    1.2247982   -6.1605954    34.873161  0.037257651  0.044192699            2 
   79000      1.21174   -6.1661151    35.519289  0.037467604  0.044156074            2 
   80000    1.2651215   -6.1212514    36.049266  0.037551319  0.044128467            3 
   81000    1.2288763   -6.1771921    36.781503  0.037841053  0.044110925            3 
   82000    1.2443708   -6.1330931    37.106558  0.037709917  0.044084749            3 
   83000    1.2330511   -6.1422563    37.779984   0.03793171  0.044057299            3 
   84000    1.2151507   -6.1520021    38.179067  0.037876059  0.044036954            1 
   85000    1.2517746   -6.1137711    38.610309  0.037853244   0.04401453            4 
   86000    1.2614351   -6.1602175    39.316885  0.038097757  0.043999992            2 
   87000    1.2178476   -6.1503222    39.835192  0.038156314  0.043992121            2 
   88000    1.2222977   -6.1553078    40.536643  0.038386972  0.043985279            2 
   89000    1.2340978   -6.0834033    41.217996  0.038593629  0.043991257            2 
   90000    1.2483924   -6.1200475    41.647494  0.038562494  0.044004581            3 
   91000    1.2166828   -6.1498575    42.230641  0.038672748  0.044013307            4 
   92000    1.1999858   -6.1531761    42.876974  0.038837839  0.044031951            2 
   93000    1.2222105   -6.0808442    43.612975  0.039079727  0.044052859            3 
   94000    1.2551165   -6.1306753     44.06763  0.039067047  0.044073373            4 
   95000    1.2541829   -6.1624206    44.448102  0.038989563  0.044094251            2 
   96000    1.2360942   -6.1809502    44.908989  0.038983497  0.044109206            4 
   97000     1.272898   -6.1796565    45.635755  0.039205975   0.04412288            3 
   98000    1.2540855   -6.1943174    46.133025  0.039228763  0.044142096            4 
   99000    1.2291313   -6.1697686    46.612771  0.039236339   0.04415728            3 
  100000    1.2233144   -6.1423127    47.184384  0.039320319  0.044171561            2 
  101000    1.2148083   -6.1338842    47.558827  0.039239956  0.044186475            3 
  102000    1.2331275   -6.1968068    47.826873  0.039074243  0.044181094           10 
  103000    1.2745334    -6.175981    48.635398  0.039349028  0.044178292            3 
  104000    1.2399775     -6.17576    49.111721   0.03935234  0.044183335            5 
  105000     1.221703   -6.1711674    49.949227  0.039642244  0.044188983            2 
  106000     1.252555   -6.1704071    50.263127  0.039515037  0.044194852            3 
  107000    1.2246541   -6.1814581     50.70037  0.039486269  0.044200384            3 
  108000    1.2276524   -6.1995594    51.337294  0.039612109   0.04420798            3 
  109000     1.259383   -6.1937798    52.050367  0.039793858  0.044219091            2 
  110000    1.2343332   -6.1916509    52.443729  0.039730098  0.044228553            3 
  111000    1.2118944   -6.1119115    52.908942  0.039721428   0.04423596            3 
  112000    1.2284836    -6.155683    53.537091  0.039834145  0.044243683            2 
  113000     1.230129   -6.1039805    54.064279  0.039870412  0.044246238            2 
  114000    1.2282673   -6.1657302    54.389002  0.039758042   0.04425216            3 
  115000    1.2150905    -6.162546    55.204204  0.040003046  0.044256682            2 
  116000    1.2223786   -6.1576539    55.536894  0.039897194  0.044264001            3 
  117000    1.2372499   -6.1887242    56.430368  0.040192569  0.044272208            1 
  118000    1.2386358   -6.1734496    56.974434  0.040236182  0.044289361            4 
  119000    1.2233064   -6.1782571    57.422612  0.040211913  0.044303739            3 
  120000    1.2413556    -6.158312    58.107938  0.040352735   0.04432379            2 
  121000    1.2361277   -6.1650337    58.782824  0.040484039  0.044348671            7 
  122000     1.236251   -6.1803516    59.393912  0.040569612   0.04437939            3 
  123000    1.2510492   -6.1709063    60.154031  0.040754763  0.044406357            2 
  124000    1.2179317   -6.1667353    60.411088  0.040598849  0.044434115            2 
  125000     1.217665   -6.1555673    60.876578  0.040584385   0.04445355            3 
  126000    1.2206554   -6.1380339    61.492891  0.040669901  0.044468652            1 
  127000    1.2320181   -6.1818489    62.059562  0.040721497  0.044486756            4 
  128000    1.2183016   -6.1639874    62.633667  0.040777127  0.044502531            1 
  129000    1.2410448   -6.1662483    63.124389  0.040778029  0.044518692            3 
  130000    1.2473153   -6.1963221    63.541155  0.040731509  0.044533264            3 
  131000     1.223296    -6.171581    64.031262  0.040732355  0.044545672            2 
  132000    1.2312603   -6.1650983    64.501791  0.040720828   0.04455429            4 
  133000    1.2051172   -6.1651119    65.234379  0.040873671  0.044560776            3 
  134000     1.206764   -6.1959586    65.464512  0.040711761  0.044568412            3 
  135000    1.2412014   -6.1419878    66.059487  0.040777461  0.044575325            2 
  136000    1.2378322   -6.1771103    66.619113  0.040820535  0.044584135            3 
  137000     1.264866    -6.172637    67.172889  0.040859422  0.044592362            3 
  138000    1.2249228   -6.1640012    67.891696  0.040997401  0.044603066            3 
  139000    1.2273447   -6.1498174    68.772213  0.041230344  0.044617788            2 
  140000    1.2370294   -6.2007301    68.722613  0.040906317  0.044631048            2 
  141000    1.2193296   -6.1621651    69.697259  0.041192233  0.044643796            2 
  142000    1.2423083   -6.1356268    70.381607   0.04130376  0.044661664            4 
  143000     1.240538   -6.1920395    70.964777  0.041354765  0.044675218            4 
  144000    1.2302631   -6.1356023    71.069987  0.041128464  0.044688513            3 
  145000    1.2069592   -6.1482195     71.80243  0.041265764  0.044699037            2 
  146000    1.2373935   -6.1433825    72.253416  0.041240534  0.044703135            3 
  147000    1.2156651   -6.1778789    72.391154  0.041038069  0.044708209            2 
  148000    1.2418793   -6.1782818    73.141808   0.04118345  0.044710594            3 
  149000    1.2287524   -6.1177177    73.599152  0.041162836  0.044715583            3 
  150000    1.2254609    -6.189499    73.979368  0.041099649  0.044718646            2 
  151000    1.2350113   -6.2076358    75.027077  0.041405671  0.044721712            3 
  152000    1.2413363   -6.1434241     75.40418  0.041340011  0.044725667            2 
  153000    1.2306375   -6.1439839      75.5096  0.041127233  0.044725254            4 
  154000    1.2013822    -6.159722    76.047044  0.041150998  0.044721453            4 
  155000    1.2415027   -6.1666184    76.579402  0.041171722  0.044715454            3 
  156000    1.2231616   -6.2051725    77.467246  0.041382076  0.044717046            2 
  157000    1.2249424   -6.1330763    77.926954  0.041362502  0.044717545            2 
  158000    1.2168774   -6.1515453    78.201899  0.041245727  0.044716467            2 
  159000    1.2130226   -6.1887934    78.803798  0.041301781  0.044714963            2 
  160000    1.2217479   -6.1695242     79.58059  0.041448224  0.044715864            2 
  161000    1.2317324   -6.2039458    79.538804  0.041169153  0.044714348            2 
  162000    1.2128179   -6.2053354    80.353587   0.04133415  0.044707239            2 
  163000    1.2142584   -6.2024818    80.378558  0.041093332  0.044700119            4 
  164000    1.2041593   -6.1616874     81.29842  0.041310172   0.04469219            2 
  165000    1.2339158   -6.1913896    81.755813  0.041290815  0.044683269            2 
  166000    1.1898673   -6.1646321    82.326936  0.041328783  0.044676674            4 
  167000    1.2543363   -6.2094513     82.74272  0.041288782   0.04466898            2 
  168000    1.2234404   -6.1812837    83.188065  0.041263921  0.044660509            3 
  169000    1.2244307   -6.1914322     83.49384  0.041170533  0.044647962            2 
  170000    1.2211507   -6.1576634    84.168044  0.041258845  0.044635273           10 
  171000    1.2235088   -6.2110417    85.083568  0.041463727  0.044629848            2 
  172000    1.2153186   -6.2249884    85.199561  0.041278857  0.044624991            1 
  173000     1.240067     -6.20228    86.126864  0.041486929  0.044621226            3 
  174000    1.2218972   -6.1937067    86.766846  0.041555003  0.044620495            2 
  175000    1.2228617   -6.1738439       87.672  0.041748571  0.044625289            3 
  176000    1.2328391   -6.1722526    88.056282  0.041693315  0.044628444            2 
  177000    1.2257041   -6.1992071    88.164083  0.041508514   0.04462838            5 
  178000    1.2122478   -6.1913035    88.666435  0.041510503  0.044622323            3 
  179000    1.2517505   -6.1791475    88.801878  0.041341656  0.044613709            2 
  180000    1.2318359   -6.1572582    89.516503  0.041442826  0.044603989            3 
  181000     1.198956   -6.1744713     90.08697  0.041476505  0.044594884            1 
  182000    1.2251645   -6.1771947    90.816598  0.041582691  0.044586996            3 
  183000    1.2304321   -6.2253602    91.151619  0.041508023  0.044579009            2 
  184000    1.2135026    -6.173042    91.747081   0.04155212  0.044571557            2 
  185000    1.2468398   -6.2230736    91.802952  0.041352681  0.044559375            3 
  186000    1.2093616   -6.1533726    93.132819  0.041726173  0.044549382            2 
  187000    1.2198238   -6.1758789    93.025878  0.041455382  0.044542475            3 
  188000    1.2329066   -6.2065133    93.670892  0.041520785  0.044532151            4 
  189000    1.1992379   -6.1821088    94.400676  0.041622873  0.044519843            4 
  190000    1.2339709   -6.1596974    94.773733  0.041567427  0.044508236            1 
  191000    1.2128487   -6.1685886    95.001774   0.04144929  0.044496645            1 
  192000    1.2238104   -6.1726806    95.949229  0.041644631  0.044484715            1 
  193000    1.2007584   -6.2181052    96.093106  0.041490978  0.044476248            3 
  194000     1.224652   -6.1785641    96.778263  0.041571419  0.044467735            2 
  195000     1.231744   -6.1938385    97.231532  0.041551937   0.04446219            2 
  196000    1.2180539   -6.1715927    98.280344  0.041785861  0.044457422            2 
  197000    1.2168127   -6.1530881    98.252734   0.04156207  0.044450107            1 
  198000    1.2399871   -6.1715172    98.737707  0.041556274  0.044440802            2 
  199000    1.2366742   -6.1676478    99.471194  0.041654604  0.044433045            4 
  200000    1.2321636   -6.1755231    100.46191   0.04185913  0.044426361            2 
  201000    1.2115754   -6.2024578     100.5692  0.041695358  0.044421757            4 
  202000    1.2435063   -6.2007878     100.9829  0.041659611  0.044415022            1 
  203000    1.2015227   -6.1982112    101.63439  0.041721837  0.044410155            2 
  204000     1.226276    -6.198381    102.21771  0.041755601  0.044404401            3 
  205000    1.2067935    -6.182062    102.59223   0.04170416  0.044399666            2 
  206000    1.2251013    -6.206147    102.93215   0.04163922  0.044393023            2 
  207000    1.2111513   -6.2000977    103.73043  0.041759431  0.044386934            3 
  208000    1.2075373   -6.1892755    104.38741  0.041821878  0.044381706            5 
  209000    1.1741206   -6.2006205     104.5032  0.041667944  0.044372757            2 
  210000    1.2413144   -6.1936962    104.86795  0.041614264  0.044362138            2 
  211000    1.2148601   -6.2041236    105.41126  0.041631619   0.04435079            4 
  212000    1.2155117   -6.2189343    106.28381  0.041778225  0.044342612            3 
  213000    1.1998454   -6.1765102     106.7867  0.041778834  0.044334408            2 
  214000    1.1953302   -6.2156538    107.07578  0.041696175  0.044326868            4 
  215000    1.2083931   -6.1913752     107.7679  0.041770505  0.044317687            2 
  216000    1.1886964   -6.1929983    108.11851  0.041712389  0.044311367            5 
  217000     1.257084   -6.1640651    108.96244  0.041844255  0.044305132            2 
  218000    1.2328834   -6.1967018    109.22972  0.041754479   0.04429537            2 
  219000    1.2110168   -6.1964063    109.75081  0.041762104  0.044286031            2 
  220000     1.210847   -6.1934044    110.42342  0.041827052  0.044275269            3 
  221000    1.1905049   -6.2190013     110.4384  0.041643441  0.044266839            1 
  222000     1.224316   -6.2179081     111.2896  0.041775374  0.044260056            2 
  223000    1.2333269   -6.2160656    111.32067  0.041599654  0.044251402            7 
  224000    1.2117658   -6.1988526    112.07008  0.041692739    0.0442412            2 
  225000    1.2149344   -6.1813124    112.58672  0.041698786  0.044230904            1 
  226000    1.2268479   -6.2009211    112.99831  0.041666042  0.044221469            2 
  227000    1.2327263   -6.1963459    113.24907  0.041574549  0.044213311            3 
  228000    1.1995843   -6.2222805    114.11776  0.041709709  0.044204593            5 
  229000    1.2189629   -6.2268726    114.34283  0.041609471  0.044194932            1 
  230000    1.2291068   -6.1849873    114.85281  0.041613336  0.044185835            4 
  231000    1.1997711   -6.1808056    115.60267  0.041703706  0.044174736            3 
  232000    1.1900758   -6.1812962    115.83871  0.041608733   0.04416415            3 
  233000    1.2184043   -6.1996108    116.00559   0.04148984  0.044150591            2 
  234000     1.196954   -6.2246455    116.70529  0.041561714  0.044137432            4 
  235000    1.2502307   -6.2111968     116.9392    0.0414678  0.044121869            1 
  236000    1.2182602   -6.2082463    117.14419  0.041364473  0.044105429            2 
  237000    1.2370543   -6.1936373    117.58922  0.041346422  0.044088542            3 
  238000    1.2083038   -6.2411559    118.38321  0.041450703  0.044069957            2 
  239000    1.1701264   -6.1917983    118.90192   0.04145813  0.044053863            4 
  240000    1.1949816   -6.1791741    119.64115  0.041542066  0.044040587            5 
  241000    1.2113545   -6.2206959    119.47455  0.041312085  0.044024164            2 
  242000    1.1937267   -6.1983763    120.48539  0.041489461  0.044006859            1 
  243000    1.1896718   -6.1846228    121.02146  0.041502557  0.043990928            2 
  244000    1.2075702   -6.1860635    121.76897  0.041587762  0.043978018            3 
  245000    1.1933259   -6.1646035    122.19333  0.041562357  0.043964662            3 
  246000    1.1983266   -6.2168848    122.46118  0.041484138  0.043953272            4 
  247000    1.2464832   -6.1820038    123.02874  0.041507672  0.043937385            2 
  248000    1.2214628   -6.2008617    123.54449  0.041513607  0.043921759            2 
  249000    1.2410301   -6.2118399    124.08897  0.041529107  0.043906099            5 
  250000     1.231445   -6.2398896    124.15483  0.041384942    0.0438913            3 
  251000    1.2436434   -6.2220111    124.91943  0.041473916  0.043876914            3 
  252000    1.2213821   -6.1725765    125.65533  0.041552689  0.043864119            3 
  253000     1.229624   -6.2184667    126.49131  0.041663805  0.043852063            3 
  254000    1.1806592   -6.1997949    126.89339  0.041631689   0.04383965            2 
  255000    1.1994774   -6.2219168    127.32192  0.041608469  0.043827966            3 
  256000    1.2213418   -6.2397256    127.48723   0.04149975  0.043814595            4 
  257000    1.2208241   -6.2396805    127.84367  0.041453848  0.043802558            1 
  258000    1.2364698    -6.204439    128.69221   0.04156725  0.043789142            4 
  259000    1.2238744   -6.2024945    129.38576  0.041629909  0.043777356            2 
  260000    1.2203126   -6.2169582     129.8269  0.041611184   0.04376839            2 
  261000    1.1918199   -6.2039811    130.66807  0.041720329  0.043760695            3 
  262000    1.1872458   -6.2053956    131.25506  0.041747793  0.043753426            5 
  263000    1.2249861   -6.2097102    131.75393  0.041747126  0.043745141            5 
  264000    1.2081705   -6.2131668    132.44793  0.041808059  0.043737513            3 
  265000     1.218162   -6.1885685    132.36582  0.041624471  0.043728721            2 
  266000    1.2061377   -6.2154965    133.11008  0.041701153  0.043718848            3 
  267000    1.2418349   -6.2117496    133.33239  0.041614352  0.043709046            2 
  268000    1.2192326    -6.201638    134.09031  0.041694748  0.043699586            2 
  269000    1.1890673   -6.1985354    134.37586   0.04162821  0.043691346            3 
  270000    1.2046558   -6.1716246    134.90591  0.041637628  0.043682334            5 
  271000    1.1895802   -6.2228051    135.37977  0.041629695  0.043673841            3 
  272000    1.2134765   -6.1987707    136.76137  0.041899929  0.043666851            3 
  273000    1.2345893   -6.2209445    136.64845  0.041711982  0.043660494            2 
  274000    1.2083931   -6.2046146    137.60297  0.041850053   0.04365407            2 
  275000    1.2279211   -6.2241016    137.97389  0.041810268   0.04364764            4 
  276000    1.2368783   -6.2158827    138.47289  0.041809449  0.043641249            2 
  277000    1.1825411   -6.2228609    138.13736  0.041557569  0.043634039            2 
  278000     1.194027   -6.2107607    138.84494  0.041620185  0.043627116            2 
  279000    1.1730875   -6.1744003    139.53591  0.041677393  0.043619696            1 
  280000    1.1823828   -6.2191505    139.99662  0.041665659  0.043610477            2 
  281000     1.197736   -6.1917346    140.44017  0.041648924    0.0436004            2 
  282000    1.2196088     -6.20852    140.88614  0.041633019  0.043588705            3 
  283000    1.1986764   -6.2136373    141.18244  0.041573157  0.043578156            3 
  284000    1.2197747    -6.225991    141.95619  0.041653811   0.04356903            7 
  285000    1.2213578   -6.2125987    142.32033  0.041614131  0.043560783            6 
  286000    1.2123539   -6.2349995    142.49401  0.041519234  0.043552582            4 
  287000    1.2094689   -6.2143457    143.32204  0.041614995  0.043543667            3 
  288000     1.205612   -6.2328586    143.80118  0.041609137  0.043534054            2 
  289000    1.1994626   -6.1959002     143.8387   0.04147598  0.043523476            2 
  290000    1.2251836   -6.2580072     144.4258  0.041501668  0.043510806            5 
  291000    1.2316475   -6.1936688    145.05537  0.041539339  0.043497994            1 
  292000    1.2114338   -6.2369118    145.19584  0.041437168  0.043486419            2 
  293000    1.1975821   -6.2081458    146.37632   0.04163149  0.043475106            4 
  294000     1.199564    -6.231574    146.95984  0.041655284  0.043465505            2 
  295000    1.2262577   -6.2030843    146.98197   0.04152033   0.04345579            3 
  296000    1.2261116   -6.2219733    147.94669  0.041651659  0.043446611            3 
  297000    1.2188483   -6.1905085    148.47856  0.041660652   0.04343922            4 
  298000    1.1952672   -6.2260354    149.46819  0.041797593  0.043433121            2 
  299000    1.2048423   -6.2387501    150.07192  0.041826065  0.043429355            4 
  300000    1.2016174     -6.18761    150.51997  0.041811103   0.04342405            3 
  301000    1.2311698   -6.2314832    151.14145  0.041844254  0.043419317            5 
  302000    1.1947874   -6.2540929    151.25299  0.041736477  0.043413554            2 
  303000    1.2027299   -6.2215844    152.04247   0.04181586  0.043406526            2 
  304000    1.1987765   -6.2226874    152.58186  0.041826169  0.043401198            4 
  305000    1.2137736   -6.2488315    152.91003  0.041778696  0.043397038            1 
  306000    1.2114226     -6.27439    153.06628  0.041684717  0.043391481            3 
  307000    1.1876923   -6.2169316    153.72281  0.041727148   0.04338472            2 
  308000    1.2167445   -6.2559015    154.47799  0.041795992  0.043376739            1 
  309000    1.1954052   -6.2449518    155.06734  0.041819671  0.043369415            3 
  310000    1.1680084   -6.2390672    155.42098  0.041779833  0.043363675            5 
  311000    1.1984931   -6.2581998    155.59267  0.041691498  0.043357454            2 
  312000     1.195068   -6.1931529     156.4309  0.041781759  0.043352776            1 
  313000    1.1856644   -6.2134947    157.29832  0.041879211  0.043348753            4 
  314000    1.2136839   -6.2078567    157.88849  0.041902465  0.043346238            3 
  315000    1.1915162    -6.238328    158.03072  0.041807069  0.043343167            2 
  316000    1.1942826   -6.2191486    159.17761  0.041977217  0.043340788            3 
  317000    1.2051889   -6.2464358     159.2709  0.041869321  0.043337838            4 
  318000    1.1958441   -6.2057094    160.04533    0.0419406  0.043335463            3 
  319000    1.2000378    -6.243626    160.91224   0.04203559  0.043333885            5 
  320000    1.1975952   -6.2264336    161.08995  0.041950508  0.043330572            5 
  321000    1.2212891   -6.2176217    161.25022  0.041861428  0.043328383            2 
  322000    1.2221401    -6.206792    161.64606  0.041833868  0.043324485            5 
  323000    1.1902191   -6.2208085    162.03471  0.041804621   0.04332039            1 
  324000    1.1870073   -6.2688515    161.92727  0.041647961  0.043315123            3 
  325000    1.1897801   -6.2108833    162.78456   0.04173963   0.04330849            3 
  326000    1.2092348   -6.2280192    162.71725  0.041594389  0.043302697            5 
  327000    1.1922548   -6.2573049    163.37205   0.04163406  0.043296287            1 
  328000    1.1922878   -6.2745959    164.16598  0.041708837  0.043289577            4 
  329000     1.176553   -6.2769726    164.72353  0.041723285  0.043283193            3 
  330000    1.2066493    -6.239142    164.69682  0.041590107  0.043276031            2 
  331000    1.1827261     -6.23271    165.77375  0.041735588  0.043268959            2 
  332000    1.2097305   -6.2282837     166.0621  0.041682255  0.043262865            1 
  333000    1.2191367   -6.2133047    166.16875  0.041583771   0.04325588            5 
  334000    1.2041026   -6.2161017    166.89688  0.041640937  0.043248417            3 
  335000    1.2106334   -6.2318992    167.14374  0.041578045  0.043239695            4 
  336000    1.1925191   -6.2297755    167.63802   0.04157689  0.043231789            3 
  337000      1.20533   -6.2333346    168.76677  0.041732632  0.043224426            2 
  338000    1.2226287   -6.2279319    168.57263  0.041561299  0.043214925            3 
  339000    1.1789702   -6.2121343    169.42957  0.041649353  0.043206886            2 
  340000    1.2533287   -6.2164298    169.72707  0.041599772  0.043199523            3 
  341000    1.1834411   -6.2036226    170.55924  0.041681144    0.0431913            2 
  342000    1.2163367   -6.2418583    170.46298  0.041535815  0.043181187            3 
  343000    1.1895678   -6.1999041    171.05128  0.041557649  0.043171258            3 
  344000    1.2077283   -6.2341532     170.8909  0.041397989  0.043161684            2 
  345000    1.2076674   -6.2579756    171.24567  0.041363688  0.043151383            6 
  346000     1.173606   -6.2202585    171.53387  0.041313553  0.043139208            2 
  347000    1.1903217   -6.2412263    172.31478   0.04138203  0.043128105            4 
  348000    1.1871885   -6.1773163    173.07694  0.041445626  0.043117443            4 
  349000    1.2009903   -6.2393352    173.24153  0.041366171  0.043107607            2 
  350000    1.1829882   -6.2031701    174.04481   0.04143924  0.043097974            2 
  351000    1.2041127   -6.1953531    174.82987  0.041507566  0.043087796            3 
  352000    1.1753601   -6.1813134     174.3491  0.041275828  0.043077501            4 
  353000    1.1829724   -6.2346042    175.46727  0.041422868  0.043066418            4 
  354000    1.1716356   -6.2595926    175.44175  0.041299847   0.04305515            6 
  355000    1.2132741   -6.2196353    176.50332  0.041432704  0.043044049            4 
  356000    1.1919066   -6.2704898    176.57435  0.041332946  0.043032966            2 
  357000    1.2007777   -6.2412126     177.2024  0.041363773  0.043020793            4 
  358000     1.205882   -6.2170727    177.96368  0.041425437  0.043008027            2 
  359000    1.2001026   -6.2270669    178.03832  0.041327373  0.042997711            4 
  360000    1.1750979   -6.2455882    178.76005  0.041379641   0.04298647            2 
  361000    1.2113922   -6.2305036    179.06343  0.041335048  0.042975488            3 
  362000    1.1782241   -6.2803894    179.32608  0.041281327  0.042963439            3 
  363000    1.1946278   -6.2331701    179.85541   0.04128912  0.042951567            3 
  364000    1.1840627   -6.2484883    181.53124  0.041559351  0.042940444            2 
  365000    1.1753366   -6.1622121    181.70891  0.041486051  0.042931111            2 
  366000    1.2364291   -6.2088462    182.19804  0.041484072  0.042921333            4 
  367000    1.1671744   -6.2234663    182.29932  0.041394033   0.04291148            2 
  368000    1.1743233    -6.278753    182.05568  0.041226377  0.042900034            3 
  369000    1.1818079   -6.2394222    182.94911  0.041316421  0.042888439            3 
  370000    1.1975869   -6.2480787    182.83178  0.041178328  0.042875941            2 
  371000    1.1993438   -6.2116966    183.57861  0.041235088  0.042862823            3 
  372000     1.214174   -6.2634313    183.61336  0.041132026  0.042849887            3 
  373000    1.1982289   -6.2988165    184.03516  0.041115988  0.042836809            2 
  374000    1.1966946   -6.2595021     184.4267  0.041093294  0.042824486            2 
  375000    1.1888848   -6.2198073    185.34253  0.041187229  0.042811696            2 
  376000    1.1828257   -6.2244426    185.58656  0.041131772  0.042799948            2 
  377000    1.2027052    -6.275476    185.22574  0.040942914   0.04278663            2 
  378000    1.1903021    -6.259424    186.75747  0.041172281  0.042773597            2 
  379000    1.1970261   -6.2150683    186.81186  0.041075607   0.04276028            2 
  380000    1.1780551   -6.2526087    187.19687  0.041051946  0.042746271            3 
  381000    1.1895385   -6.2698237    187.14626  0.040933129  0.042732262            2 
  382000    1.1938793   -6.2584394    187.66229  0.040938545  0.042717081            4 
  383000    1.2021403   -6.2137123    187.33515  0.040760477  0.042701563            2 
  384000     1.185586   -6.2526045    188.21267  0.040844764  0.042684981            3 
  385000    1.1807223   -6.2653115    188.38428  0.040775819  0.042668381            4 
  386000    1.1797321   -6.2599707     188.7679     0.040753  0.042650788            5 
  387000    1.1910104   -6.1952767    189.80859  0.040871789  0.042634037            3 
  388000    1.1938939   -6.2434865    189.19462  0.040634584  0.042616902            4 
  389000    1.1810571   -6.2611831    190.19288  0.040743975  0.042598836            3 
  390000     1.173161   -6.2474201    190.70824  0.040749623  0.042580822            3 
  391000    1.1901648   -6.2835213    190.40069  0.040579856  0.042563786            3 
  392000    1.1899706   -6.2656472    191.17029  0.040639943  0.042547114            3 
  393000    1.1876777   -6.2601128    191.79981  0.040670018    0.0425306            7 
  394000    1.1831135   -6.2281735    192.86045  0.040791127  0.042515361            2 
  395000     1.181092   -6.3012776    192.99236  0.040715688  0.042500657            3 
  396000     1.192303    -6.223648    194.21179  0.040869483  0.042485836            2 
  397000    1.1923638   -6.2395744    193.85692  0.040692048  0.042471041            5 
  398000    1.1973013   -6.2631073    195.67024  0.040969481  0.042456838            3 
  399000    1.1791574   -6.2550646    195.91604  0.040918137   0.04244374            6 
  400000    1.1915044   -6.2460475    196.59951   0.04095823  0.042430773            4 
  401000      1.20376    -6.284369    196.50812    0.0408371  0.042418217            4 
  402000    1.1736075   -6.2527758    197.20782  0.040880561  0.042406223            2 
  403000    1.1943946   -6.2600035    198.14669   0.04097326  0.042394893            3 
  404000    1.1842115   -6.2557226    198.77138  0.041000696  0.042383866            3 
  405000     1.200331   -6.2401354    198.98097  0.040942586  0.042372923            2 
  406000    1.1933473   -6.2546763    200.32077  0.041116742  0.042363088            2 
  407000    1.1569313   -6.2690734    200.19683  0.040990341  0.042353549            2 
  408000    1.1883074   -6.2662216    200.71654  0.040996026  0.042343052            6 
  409000     1.181174   -6.2319662    201.15982  0.040986108  0.042333987            1 
  410000    1.2034065   -6.2599882    201.57933  0.040971409  0.042325369            3 
  411000    1.1758648   -6.2687706    202.03112  0.040963326  0.042316216            3 
  412000    1.1889614   -6.2499932    202.93632   0.04104699  0.042306758            4 
  413000    1.1845885   -6.2987455    203.26318  0.041013556  0.042298014            1 
  414000    1.1770976   -6.2483447    204.45182  0.041153749   0.04229037            1 
  415000    1.1756666   -6.2246032     204.6832  0.041101044  0.042282102            4 
  416000    1.1736932   -6.2287424    205.26495  0.041118781   0.04227352            3 
  417000     1.197043   -6.2033768    204.96413  0.040960058  0.042264389            1 
  418000    1.1789577    -6.256273    205.66665  0.041002123  0.042255726            2 
  419000    1.1961965   -6.2326127    206.75178  0.041120083  0.042247308            4 
  420000    1.2083291   -6.2416164    206.75635  0.041023085  0.042239853            3 
  421000    1.1736632    -6.284036    207.45878  0.041064683  0.042232007            3 
  422000    1.1694987   -6.2456905    207.93535  0.041061483  0.042224267            3 
  423000    1.1969728   -6.2380008    208.29149  0.041034573  0.042215664            1 
  424000     1.185752   -6.2880505    208.80326  0.041038376  0.042206805            2 
  425000    1.1440278   -6.2440467    209.55788  0.041089781  0.042198945            2 
  426000    1.1812788   -6.2177841    210.93381  0.041262483  0.042192238            3 
  427000    1.1925418   -6.2907714    210.37708  0.041057198  0.042185956            4 
  428000    1.1817824   -6.2821613     211.0731  0.041096788   0.04217919            3 
  429000    1.2046045    -6.246171    211.58822  0.041101053  0.042172233            3 
  430000    1.1762091   -6.2690314    211.70298   0.04102771  0.042165947            1 
  431000    1.1781282   -6.2426009    213.33712  0.041248476  0.042159343            5 
  432000    1.1423808   -6.2820891    213.03735  0.041095167    0.0421538            3 
  433000    1.1761718   -6.2588434    213.95238  0.041176362  0.042147432            3 
  434000    1.1943016   -6.2432072    214.16302  0.041121931  0.042140585            3 
  435000     1.189962   -6.2720421    214.57631  0.041106573  0.042134553            1 
  436000    1.1680274   -6.2391776    215.42625  0.041174741   0.04212932            4 
  437000    1.1868083   -6.2634709    216.57975  0.041300485  0.042124515            2 
  438000     1.171024   -6.2631577    216.94846  0.041276343  0.042120022            3 
  439000    1.1712032   -6.2504412    217.40768  0.041269491  0.042115458            4 
  440000    1.1716574   -6.2367602    218.98777  0.041474956  0.042111612            2 
  441000    1.1690879   -6.2704456    218.29187  0.041249408  0.042107959            2 
  442000    1.1565626   -6.2704929    219.07539  0.041303806  0.042103318            2 
  443000    1.1390585    -6.280324    219.00284  0.041196923  0.042098734            3 
  444000    1.1920156   -6.2932548    219.04112  0.041111321  0.042094018            3 
  445000    1.1943645   -6.2304558    220.60723  0.041312215  0.042090634            4 
  446000    1.1768897   -6.2844112    221.10749  0.041313058  0.042087744            2 
  447000    1.1744225   -6.2545733     220.8446  0.041171625  0.042084843            3 
  448000    1.1719845   -6.2348684    222.63405  0.041412583  0.042081519            3 
  449000    1.2011638   -6.2591347    222.79974  0.041351102  0.042077484            3 
  450000    1.1811129   -6.2726353    223.28454   0.04134899  0.042074723            2 
  451000    1.1836337   -6.2874284    223.86124  0.041363865  0.042071611            3 
  452000    1.1803558   -6.2682568    224.41158  0.041373816  0.042068482            4 
  453000    1.1662663    -6.272216    224.75361  0.041345404  0.042065229            2 
  454000    1.1771763    -6.222153    225.12641  0.041322763  0.042062464            5 
  455000    1.1925726   -6.2598292     225.8955  0.041372802  0.042059384            3 
  456000    1.1609595   -6.2733657    225.70509  0.041247274  0.042055923            2 
  457000    1.2084083   -6.2902802    226.16935  0.041241676  0.042052681            2 
  458000    1.1946917   -6.2890177    226.16012  0.041149949  0.042048184            3 
  459000    1.1726988   -6.2439463    228.13689  0.041419188  0.042044775            3 
  460000    1.1604841   -6.3299849    227.27784  0.041173522  0.042040806            2 
  461000    1.1420366   -6.2610878    229.06115  0.041406571  0.042037058            2 
  462000    1.1802672   -6.2464609    228.43845  0.041204627  0.042033961            3 
  463000    1.1787685   -6.2670442    228.99219  0.041215297  0.042030248            6 
  464000    1.1857302   -6.3036022    229.72684  0.041258413  0.042025492            3 
  465000    1.1519445   -6.2828391    229.64383  0.041154808  0.042020935            1 
  466000    1.1971593   -6.2959048    230.59991  0.041237466  0.042015866            2 
  467000    1.1731121   -6.2705976    230.21978  0.041081331  0.042011532            2 
  468000     1.194985   -6.2640599    231.09582  0.041149541  0.042007153            2 
  469000    1.1998813   -6.2780821    231.54603  0.041141796  0.042002233            2 
  470000     1.166162   -6.2787274    231.27267  0.041005792  0.041997028            4 
  471000    1.1582346   -6.2555103    231.43408  0.040947289  0.041991057            2 
  472000    1.1847239   -6.2943534    232.33116  0.041018919  0.041984501            5 
  473000    1.1691367   -6.2457751    232.66815   0.04099157  0.041978371            2 
  474000    1.1837441    -6.249431    233.31675   0.04101912  0.041971374            4 
  475000    1.2038223   -6.2660483    233.74658  0.041008171  0.041963792            2 
  476000    1.1917093   -6.2974258    233.26113  0.040837032  0.041956338            6 
  477000    1.1811329   -6.2717189     234.0077  0.040881848  0.041947442            3 
  478000    1.1538413    -6.246701    235.02008  0.040972818  0.041939161            5 
  479000    1.1610732   -6.2703098    235.02155  0.040887534  0.041931582            3 
  480000    1.1503074   -6.2729548    235.72369  0.040924253  0.041923984            3 
  481000    1.1833457   -6.2560042    235.33363  0.040771592  0.041916584            3 
  482000    1.2030772   -6.2935869    235.76173  0.040761018  0.041908798            3 
  483000    1.1749593   -6.2999067    236.71426  0.040840969  0.041900793            3 
  484000    1.1924093   -6.2598679    237.53493  0.040897888  0.041893351            5 
  485000    1.1910482   -6.2993929    238.28825  0.040942998  0.041886317            2 
  486000    1.1960943   -6.2517412    239.22908  0.041020075  0.041879672            2 
  487000    1.1899331   -6.2920963    238.84821  0.040870672  0.041872887            1 
  488000    1.1501671   -6.2303127    240.80056  0.041120314  0.041866512            7 
  489000    1.1939646   -6.2738473    240.32659  0.040955452  0.041859975            5 
  490000    1.1923696   -6.2822767    240.78568  0.040949946  0.041853937            3 
  491000    1.1587339   -6.2993052    241.86427  0.041049604  0.041848552            2 
  492000    1.1889554    -6.273941    242.57706    0.0410869  0.041843487            4 
  493000    1.1627567   -6.2591792    243.89539  0.041226402  0.041838432            1 
  494000    1.1549965   -6.2820825    243.17432  0.041021308   0.04183329            4 
  495000    1.1706724   -6.2866956    243.42895  0.040981305  0.041827994            4 
  496000    1.1508666   -6.3073153    244.72061  0.041115694  0.041822883            2 
  497000    1.1611403   -6.2491109    245.12456  0.041100698  0.041817815            2 
  498000     1.185359   -6.2940047    245.72214  0.041118162  0.041813012            2 
  499000    1.1675371   -6.2444943    245.67337  0.041027617  0.041808866            2 
  500000    1.1730853   -6.3158331    246.74201  0.041123668  0.041804384            2 
  501000    1.1802653   -6.2440714    247.22456  0.041121849   0.04180057            3 
  502000    1.2023777    -6.264889    248.09435  0.041184322  0.041797575            4 
  503000    1.1677588   -6.2538208    248.88129  0.041232818  0.041794718            3 
  504000      1.16671   -6.2979759    247.98582  0.041002946  0.041791315            3 
  505000    1.1584347    -6.292797    249.43626    0.0411611  0.041788571            5 
  506000    1.1876496   -6.3226145    249.42615  0.041078088  0.041785776            2 
  507000     1.177212    -6.261051    250.18002  0.041120976  0.041782145            5 
  508000    1.1652471    -6.267774    251.63138  0.041278114   0.04177917            3 
  509000    1.1419428   -6.3010125    251.02258  0.041097344  0.041775688            8 
  510000    1.1730637   -6.2770941    251.87501  0.041156047   0.04177209            5 
  511000    1.1724391   -6.2943665     252.6272  0.041198174  0.041768008            5 
  512000    1.1637941   -6.2690718     252.9928  0.041177214  0.041764737            4 
  513000    1.1527918    -6.238035    253.74854   0.04121971  0.041761135            3 
  514000    1.1725588   -6.2555502    254.12408  0.041200402  0.041757921            5 
  515000    1.1438417   -6.2938064    253.96294  0.041094327  0.041754398            2 
  516000     1.142973   -6.2688197    253.69492  0.040971403  0.041750913            6 
  517000    1.1561182    -6.288542    254.42319  0.041009541  0.041746463            7 
  518000    1.1672803   -6.2673007     255.1069  0.041040363  0.041741318            4 
  519000    1.1725132   -6.2773219    255.45697  0.041017496  0.041736741            3 
  520000    1.1613674   -6.2878259    254.90141  0.040849585  0.041731688            2 
  521000    1.1671986   -6.2800148     256.1103  0.040964539  0.041726778            3 
  522000    1.1893966   -6.2453647    256.66434  0.040974511  0.041722102            2 
  523000    1.1730693   -6.2512131    257.82353  0.041080869  0.041717226            3 
  524000    1.1578863   -6.2477014    257.93747   0.04102059  0.041713223            3 
  525000    1.1647981   -6.2652644     258.3415  0.041006587  0.041708136            4 
  526000    1.1731359   -6.2892955    257.87123  0.040854124  0.041703141            3 
  527000    1.1657568   -6.3030053    258.07209  0.040808363  0.041697325            2 
  528000    1.1642124   -6.2612364    258.51791  0.040801437  0.041691906            3 
  529000    1.1820744   -6.2750754    259.24485  0.040838823  0.041685784            6 
  530000    1.1769282   -6.3032151    259.63747  0.040823502  0.041680216            2 
  531000    1.1638762   -6.2847659    261.35169  0.041015645  0.041674856            2 
  532000    1.1607592   -6.3018343    261.49744  0.040961378   0.04166984            4 
  533000    1.1642394    -6.285637     261.4969  0.040884443  0.041664068            3 
  534000    1.1719913   -6.3037988    261.84408   0.04086206   0.04165795            5 
  535000     1.174139   -6.2853187    262.07992  0.040822418  0.041652367            2 
  536000    1.1543672   -6.2834439    263.14078  0.040911191  0.041646731            1 
  537000    1.1628281   -6.2668321    263.08381  0.040826166  0.041640366            2 
  538000    1.1829176   -6.2893169    263.88748  0.040874764  0.041634448            3 
  539000    1.1734823   -6.3067502    264.03281  0.040821399  0.041628511            2 
  540000    1.1452221   -6.2653536    264.63368   0.04083853  0.041623037            2 
  541000    1.1634323   -6.2874651    265.54818  0.040903909  0.041617435            5 
  542000    1.1788129   -6.2601217    266.30358  0.040944584  0.041612223            2 
  543000    1.1842331   -6.2872233    266.75786  0.040938898   0.04160772            4 
  544000    1.1786957   -6.2997285    267.02485  0.040904543  0.041602882            2 
  545000    1.1408534   -6.2667115    268.29557  0.041023787  0.041597803            2 
  546000     1.149173   -6.3098621    268.22898  0.040938489  0.041593156            1 
  547000     1.142715   -6.3139559    268.42276  0.040893168  0.041588548            3 
  548000    1.1535361   -6.2572998    269.02105  0.040909527  0.041584508            4 
  549000     1.177695   -6.2811107    269.71536  0.040940401  0.041580695            7 
  550000    1.1653983   -6.2862696    270.52202  0.040988184  0.041576569            3 
  551000    1.1468286   -6.3325353    270.72415  0.040944367  0.041572596            3 
  552000     1.178904   -6.3065252    270.91297  0.040898698  0.041569305            3 
  553000    1.1453546   -6.2804674    272.12412  0.041007251   0.04156584            3 
  554000    1.1567498   -6.2969954    272.39378  0.040973793  0.041562147            5 
  555000    1.1485661   -6.2891989    272.83591  0.040966353  0.041557849            2 
  556000    1.1738134   -6.2834778     273.0488   0.04092458  0.041554097            3 
  557000    1.1313202   -6.3146756    273.47451  0.040914798  0.041549751            3 
  558000    1.1666656   -6.2994919    274.44757  0.040986793  0.041545526            4 
  559000    1.1717859   -6.3228834     274.8065   0.04096698  0.041542076            3 
  560000    1.1750879   -6.2628411    274.54405  0.040854769  0.041538089            2 
  561000    1.1295971   -6.2570854    275.10984   0.04086599  0.041533856            5 
  562000    1.1610009   -6.3280646    275.97936  0.040922206  0.041530018            2 
  563000    1.1671182   -6.2710276    276.46571  0.040921508  0.041526226            2 
  564000    1.1565152   -6.2912438      276.319  0.040827275  0.041522847            2 
  565000    1.1768186   -6.2862424    277.33357  0.040904656  0.041519415            4 
  566000     1.161156   -6.2816139    277.31598  0.040829798  0.041515669            2 
  567000    1.1641258   -6.2769889    278.21724  0.040890247  0.041512229            1 
  568000    1.1562623   -6.3164731    277.87535  0.040768097  0.041508375            3 
  569000    1.1722025   -6.3046578    279.39767    0.0409194  0.041505016            4 
  570000    1.1701646   -6.2816335    280.12906  0.040954541  0.041501891            2 
  571000    1.1668187    -6.319402    279.97487  0.040860314  0.041498271            3 
  572000    1.1377878   -6.2932235     280.4042  0.040851427  0.041494432            3 
  573000    1.1538761   -6.2879057    280.96445  0.040861613  0.041490431            6 
  574000    1.1593356   -6.2856023    281.98623  0.040938767  0.041486531            3 
  575000    1.1605153   -6.2895103    281.62667   0.04081546  0.041482082            2 
  576000    1.1507563    -6.276987    282.39464  0.040855705   0.04147797            3 
  577000    1.1832918   -6.2703315    282.24103  0.040762714  0.041473218            4 
  578000    1.1607917   -6.3088287    282.68166  0.040755718  0.041468331            3 
  579000     1.184238   -6.3359262    282.59523  0.040672889  0.041463514            3 
  580000    1.1543338   -6.3063152    284.11581  0.040821236  0.041458573            4 
  581000    1.1787224   -6.2781201    284.48653   0.04080415  0.041454269            3 
  582000    1.1688546   -6.3135942    284.71487  0.040766734  0.041449413            3 
  583000    1.1483224   -6.3173181    284.74678   0.04070137  0.041444057            2 
  584000    1.1652278   -6.2620161    284.87715  0.040650278  0.041438474            2 
  585000    1.1889576   -6.3244493    286.46053  0.040806343  0.041433792            5 
  586000    1.1655225     -6.27177    287.05095   0.04082067  0.041428973            1 
  587000    1.1606528   -6.2933225    288.01801  0.040888417  0.041424616            7 
  588000    1.1675977    -6.297027    288.48253  0.040884712  0.041420715            3 
  589000    1.1955758   -6.3562463    288.17081  0.040771195  0.041416902            9 
  590000    1.1843417   -6.3249726    288.68298  0.040774433  0.041412551            5 
  591000    1.1814075   -6.3093035     289.1268  0.040768021  0.041408489            2 
  592000    1.1461128   -6.3000896    290.52962  0.040896624  0.041404886            3 
  593000    1.1774722    -6.292901     290.5347  0.040828373  0.041401124            2 
  594000    1.1694735   -6.2937444    291.25068  0.040860085  0.041397575            2 
  595000    1.1720788   -6.2918603    291.50277  0.040826718  0.041393865            3 
  596000    1.1383375   -6.3221733    292.14376  0.040847842  0.041390096            3 
  597000    1.1425991   -6.2730152    291.44275  0.040681568  0.041386065            3 
  598000    1.1362098   -6.2748234    293.18798  0.040856742  0.041382039            3 
  599000     1.148756   -6.2996919    293.47994  0.040829151  0.041378212            3 
  600000    1.1336324   -6.3651085    293.14487  0.040714566   0.04137382            5 
  601000    1.1477325   -6.3275426    294.12904  0.040783283  0.041369912            3 
  602000    1.1628556   -6.3267073    294.69356  0.040793682  0.041365803            5 
  603000    1.1636316    -6.264856    295.88158  0.040890213  0.041362599            2 
  604000    1.1443921   -6.2927784    296.56938  0.040917409  0.041359066            1 
  605000    1.1576367   -6.3082766    295.73747  0.040735189  0.041355055            3 
  606000    1.1794652   -6.3068411    296.12207  0.040720857   0.04134973            5 
  607000    1.1608629   -6.3335397    296.10736  0.040651751  0.041344527            3 
  608000    1.2078854    -6.312786    297.11165   0.04072254  0.041339988            3 
  609000    1.1509436    -6.286894    297.23576  0.040672655  0.041335276            4 
  610000    1.1697693   -6.2901402    298.79423  0.040818883  0.041330723            3 
  611000    1.1456541   -6.3107225    297.49925  0.040575457  0.041326087            3 
  612000    1.1655728   -6.3002531    299.42538   0.04077143  0.041321467            3 
  613000    1.1538407   -6.3374424    299.23609  0.040679185   0.04131653            2 
  614000    1.1814379   -6.3333899     298.6662  0.040535586  0.041311355            4 
  615000    1.1625943   -6.2886535    299.93778  0.040641975  0.041305726            1 
  616000      1.17938   -6.3031166      299.641  0.040535849  0.041300099            3 
  617000    1.1356701   -6.3504568    298.42619  0.040306076  0.041293468            2 
  618000    1.1480231   -6.3074475    300.92803  0.040578213  0.041287032            5 
  619000    1.1455689   -6.3212418    301.16071  0.040543984  0.041280877            2 
  620000     1.146436   -6.2723266     302.4303  0.040649233  0.041274954            2 
  621000    1.1519837   -6.2921643     301.8711  0.040508736  0.041269397            4 
  622000    1.1613191   -6.3052177    302.22504  0.040491029  0.041263798            3 
  623000    1.1320264   -6.3040041    302.04694  0.040402212  0.041257432            2 
  624000    1.1603202   -6.2940207     302.8792  0.040448611  0.041251244            8 
  625000    1.1366594   -6.2852082    303.61536  0.040482048  0.041245011            2 
  626000    1.1316225   -6.2863883    303.08834  0.040347223  0.041238482            4 
  627000    1.1634529   -6.2711193    305.27049  0.040572899  0.041231667            2 
  628000    1.1570045   -6.2727439    304.48604  0.040404198  0.041224789            1 
  629000    1.1254969   -6.3140728    304.49649  0.040341348  0.041217312            5 
  630000    1.1315773   -6.3284515     305.3589  0.040391388  0.041210085            4 
  631000    1.1249148   -6.3165099     305.1397  0.040298429  0.041202493            2 
  632000     1.148274   -6.3143908    306.43853  0.040405924  0.041195609            2 
  633000    1.1589824   -6.2840918    306.40504  0.040337683  0.041188984            2 
  634000    1.1673449   -6.3003962    308.53235  0.040553674  0.041182647            4 
  635000    1.1919467   -6.3004623    306.88827  0.040274051  0.041175553            2 
  636000    1.1558512   -6.3247909    306.73625  0.040190809  0.041167979            2 
  637000    1.1658661   -6.3260187     307.0635  0.040170525  0.041159883            2 
  638000    1.1401518   -6.3047535    308.51694  0.040297406   0.04115153            3 
  639000    1.1586251   -6.3364348    308.68336  0.040256046  0.041142936            3 
  640000     1.116662   -6.3187957    306.95035  0.039967493  0.041133314            2 
  641000    1.1444664     -6.30037     308.0091  0.040042785  0.041123606            4 
  642000    1.1562589   -6.3373492    309.10426  0.040122568  0.041114447            8 
  643000    1.1600956   -6.3233969    309.29798  0.040085275   0.04110521            2 
  644000    1.1458357   -6.3567384    310.47694  0.040175588  0.041096157            3 
  645000    1.1413121   -6.3578955    309.90428  0.040039313   0.04108751            2 
  646000     1.150196   -6.3242024    311.35201  0.040164088  0.041078315            3 
  647000    1.1718264   -6.2960818    311.43031  0.040112095  0.041069468            1 
  648000    1.1435996   -6.3210662    309.89182  0.039852343  0.041060093            2 
  649000    1.1381625     -6.30328    311.52638  0.040000819  0.041050322            2 
  650000    1.1502893    -6.310141    311.81184  0.039975877  0.041040873            3 
  651000    1.1428198    -6.343081    312.59282  0.040014442  0.041031463            3 
  652000    1.1455742   -6.3266796    312.91004  0.039993614  0.041021893            3 
  653000     1.163088   -6.2985581    313.60268  0.040020761  0.041012844            1 
  654000    1.1379888   -6.2879686    314.13739    0.0400277  0.041003744            6 
  655000    1.1332684   -6.3172225    313.56722  0.039894049  0.040994798            4 
  656000    1.1524083   -6.3014805      314.056  0.039895325  0.040985817            2 
  657000    1.1502984   -6.3159932    314.52246  0.039893767  0.040975982            2 
  658000    1.1806169   -6.3169481     314.8054  0.039868972  0.040965945            6 
  659000    1.1341591   -6.3105301    316.22202   0.03998761  0.040956419            3 
  660000     1.135094   -6.3286063     315.5627  0.039843775  0.040946832            4 
  661000    1.1604944   -6.3491971    315.62225  0.039791004  0.040937028            2 
  662000    1.1281903   -6.3310998    317.61285  0.039981477  0.040927332            2 
  663000       1.1501   -6.3620334    316.26358  0.039751582  0.040917545            4 
  664000    1.1437555   -6.3493984     317.8517  0.039891027  0.040907527            3 
  665000    1.1220583    -6.293976     318.4925   0.03991134  0.040898065            2 
  666000    1.1403385   -6.3132978    318.68449  0.039875436  0.040888536            4 
  667000    1.1569423   -6.3213465    318.50593  0.039793345  0.040879017            3 
  668000    1.1596165   -6.3028185    319.71535   0.03988465  0.040869548            7 
  669000    1.1383831   -6.3050434    320.72927  0.039951329  0.040860278            3 
  670000    1.1506926   -6.3453549    320.40344  0.039851174  0.040850918            4 
  671000    1.1435519   -6.3309889    320.80409  0.039841541  0.040841195            3 
  672000    1.1395252   -6.3409459    321.17731  0.039828536   0.04083112            1 
  673000    1.1406095   -6.2984212     321.9878  0.039869713  0.040821128            3 
  674000    1.1543696     -6.32064    321.01238  0.039689957  0.040811343            3 
  675000    1.1393416   -6.3618207    321.35105  0.039672969  0.040800888            6 
  676000    1.1383117   -6.3185726    321.92191  0.039684654  0.040789966            4 
  677000    1.1694607   -6.3355416     321.7549  0.039605478  0.040778915            3 
  678000    1.1492975   -6.3441054    322.02034  0.039579688  0.040767837            2 
  679000    1.1589665   -6.3283292    322.81683  0.039619149  0.040756756            5 
  680000    1.1279777   -6.3375904    322.51008  0.039523294  0.040745835            2 
  681000    1.1440917   -6.3911919    321.50811  0.039342647  0.040734318            2 
  682000    1.1342277    -6.334443    322.62258  0.039421136  0.040723017            3 
  683000    1.1355257   -6.3181679     324.1752  0.039552855   0.04071187            2 
  684000     1.137793   -6.3056067    325.07404  0.039604538  0.040700708            1 
  685000    1.1547231    -6.348106    324.38192  0.039462521  0.040689349            3 
  686000    1.1460339   -6.3318807    325.63793  0.039557572  0.040677868            4 
  687000    1.1335762    -6.327322    325.52334  0.039486092  0.040666475            2 
  688000    1.1186361   -6.3619336    326.43362  0.039538956  0.040655336            5 
  689000    1.1583575   -6.3443338    326.82145  0.039528477  0.040644193            6 
  690000    1.1470865   -6.3334865    327.95101   0.03960761  0.040633863            3 
  691000    1.1504704   -6.3380039    327.35503  0.039478417  0.040623049            1 
  692000    1.1706423   -6.3163192    327.80265  0.039475271  0.040612381            4 
  693000     1.110963   -6.3366384    328.95037  0.039556321  0.040602003            4 
  694000     1.140398   -6.3564967    328.73313  0.039473239  0.040591055            3 
  695000      1.14923   -6.3540604     327.9384  0.039321151  0.040580016            4 
  696000     1.160635   -6.3383235    329.68407  0.039473667  0.040569058            3 
  697000     1.119276   -6.3395775     329.9541  0.039449318  0.040558473            4 
  698000    1.1437215   -6.3330405    331.15926  0.039536683  0.040548327            2 
  699000    1.1332992   -6.3681983    332.09904  0.039592161    0.0405383            3 
  700000    1.1422271   -6.3277104    330.76387  0.039376651  0.040527965            7 
  701000    1.1417756   -6.3589351    331.51088  0.039409282  0.040517256            2 
  702000    1.1458917    -6.315871    332.47985  0.039468169  0.040506362            3 
  703000    1.1259795   -6.3165933    333.02274   0.03947638  0.040495865            5 
  704000    1.1526592   -6.3468764    333.33566  0.039457346  0.040485474            3 
  705000    1.1371032    -6.330473    334.01856  0.039482099  0.040475191            2 
  706000    1.1210955   -6.3279605    333.60438  0.039377287  0.040464498            2 
  707000    1.1118774   -6.3184535    333.93909  0.039361043  0.040454237            4 
  708000    1.1152865   -6.3155825    333.85471  0.039295516  0.040443588            4 
  709000    1.1347214   -6.3381319    335.48512  0.039431726  0.040432763            7 
  710000     1.127303   -6.3271484     334.9085  0.039308509  0.040421903            2 
  711000     1.125598   -6.3236656    334.12748  0.039161683  0.040410524            3 
  712000    1.1208269   -6.3225943    335.35145  0.039249936  0.040398935            3 
  713000     1.133089   -6.3339771    336.01846  0.039272844  0.040387707            3 
  714000    1.1608969    -6.297537    336.50243  0.039274327   0.04037634            3 
  715000     1.125115   -6.3489147    337.22279  0.039303356  0.040365253            3 
  716000    1.1135357   -6.3241858    337.84399  0.039320762  0.040354413            4 
  717000    1.1570636   -6.3188619    337.80378  0.039261248  0.040343798            3 
  718000    1.1328135    -6.359746    339.22938  0.039372027   0.04033324            1 
  719000    1.1329343   -6.3227691    338.74975  0.039261677  0.040322382            2 
  720000    1.1420108   -6.3302065    339.27357  0.039267775  0.040311712            2 
  721000    1.1426009   -6.3614948    338.61014  0.039136632  0.040301094            3 
  722000    1.1176913   -6.3840216    339.73929  0.039212753   0.04028996            3 
  723000    1.1175448   -6.3240259    340.34499   0.03922833  0.040278878            2 
  724000    1.1238412   -6.3639511    339.46619  0.039072996  0.040268227            2 
  725000    1.1110904   -6.3197245    342.06074  0.039317326  0.040257647            3 
  726000    1.1118643   -6.3321014    341.67293  0.039218656  0.040247318            3 
  727000    1.1607693   -6.3407163     342.2576  0.039231729  0.040237188            1 
  728000    1.1592147   -6.3421879    343.55067  0.039325855  0.040227282            4 
  729000     1.131978    -6.372625    343.45374   0.03926083  0.040218035            7 
  730000    1.1392879   -6.3357273    344.19879  0.039292099  0.040208554            5 
  731000    1.1032389   -6.3313406    344.59172  0.039283142  0.040199224            3 
  732000    1.1274012   -6.3388156    345.09523  0.039286797  0.040189468            3 
  733000    1.1148632   -6.3556156    346.90099  0.039438493  0.040180216            3 
  734000    1.1412979   -6.3232534    346.93904  0.039389082  0.040171015            2 
  735000    1.1348331   -6.3205681    347.11396  0.039355325  0.040162267            4 
  736000    1.1404651   -6.3068143    347.31863  0.039325026  0.040153472            2 
  737000    1.1094425   -6.3712403    347.19579  0.039257778  0.040144121            3 
  738000    1.1379061   -6.3275805    348.02426  0.039298132   0.04013501            4 
  739000    1.1558136   -6.3119348    348.53276  0.039302296  0.040126433            2 
  740000    1.0975714   -6.3328669    349.49739  0.039357814  0.040118053            3 
  741000    1.1330893   -6.3280906    349.55637  0.039311332  0.040109516            2 
  742000      1.13505   -6.3834439    348.91533  0.039186358  0.040101362            7 
  743000    1.1175855   -6.2902801    351.49475  0.039422919  0.040093239            4 
  744000    1.1571247   -6.3578068    351.63127  0.039385222  0.040085211            4 
  745000    1.1363451   -6.3431146    352.48132   0.03942744  0.040077299            3 
  746000    1.1310552   -6.3337178    353.24515  0.039459914  0.040069322            3 
  747000     1.130942   -6.3285867    354.03876  0.039495623  0.040061573            7 
  748000    1.1435018   -6.3554969    353.07346  0.039335278  0.040053888            3 
  749000    1.1124448   -6.3338581    353.88645  0.039373214  0.040046155            3 
  750000    1.1321553   -6.3626955    354.43212  0.039381346  0.040038419            2 
  751000    1.1410024   -6.3333086    354.22691  0.039306138  0.040030455            3 
  752000    1.1063195   -6.3722028    355.25065  0.039367315  0.040022083            2 
  753000    1.1229741   -6.3847292    354.64636  0.039248159  0.040013899            3 
  754000    1.1310198   -6.3301792    355.55473  0.039296499  0.040005443            4 
  755000    1.1321516   -6.3469972    354.13693  0.039087961  0.039996452            2 
  756000     1.133039   -6.3183483    356.00727  0.039242423  0.039987679            3 
  757000    1.1328149   -6.3575109    356.84133  0.039282401  0.039979034            1 
  758000    1.1054599   -6.3598059    355.55952  0.039089657  0.039970127            4 
  759000    1.1315582   -6.3807491     357.3097  0.039230314  0.039961542            3 
  760000    1.1374159   -6.3352744    357.49298  0.039198792  0.039953263            2 
  761000    1.1266722   -6.3004048    358.07521  0.039211039   0.03994513            4 
  762000     1.147718   -6.3336723    358.82637  0.039241729  0.039936805            2 
  763000    1.1154179   -6.3813773    358.31316  0.039134246  0.039928698            5 
  764000     1.124951   -6.3736982    360.68924  0.039342195  0.039920499            3 
  765000    1.1189672   -6.3473019    360.63044  0.039284362  0.039912704            2 
  766000    1.1221773   -6.3618626    359.39578  0.039098758  0.039904573            2 
  767000    1.1368748   -6.3642285    359.94776  0.039107753  0.039896281            4 
  768000    1.1355211   -6.3876904     361.4078  0.039215256   0.03988823            3 
  769000    1.1072005   -6.3406247    362.21073  0.039251271   0.03988018            5 
  770000    1.1244992   -6.3697051    361.98071  0.039175402  0.039871885            2 
  771000    1.1425393   -6.3733333    362.53385  0.039184376  0.039863376            8 
  772000    1.1323742   -6.3665691    363.10657  0.039195442  0.039855153            2 
  773000    1.1372615   -6.3592481    363.57283  0.039195001  0.039847326            4 
  774000    1.1350033   -6.3348867    362.81316  0.039062571  0.039839495            3 
  775000    1.1397427   -6.3558507    363.58834   0.03909552  0.039831218            3 
  776000    1.1250488    -6.375863    363.90843  0.039079513  0.039822913            5 
  777000     1.146168   -6.3516078    363.88939  0.039027176  0.039815026            4 
  778000    1.1208124   -6.3817405    365.16727  0.039113889  0.039806952            6 
  779000    1.1325806    -6.374511     365.7884  0.039130124  0.039798609            4 
  780000    1.1332814    -6.343329    365.03273  0.038999224  0.039790499            2 
  781000    1.1431664   -6.3384677    365.76314  0.039027223  0.039782237            2 
  782000       1.0995   -6.3709761    367.21584  0.039132122  0.039774297            3 
  783000    1.1485816   -6.3517932    367.71533  0.039135305  0.039766429            5 
  784000    1.1277574   -6.3613709    368.49187  0.039167928  0.039759287            3 
  785000     1.150622   -6.3692048    369.01162  0.039173208  0.039751946            2 
  786000    1.1199875   -6.3420563    370.38055  0.039268507  0.039744785            5 
  787000    1.1287003   -6.3631638    370.46104  0.039227132  0.039737342            7 
  788000    1.1107669   -6.3549717    370.25628  0.039155698  0.039730084            3 
  789000    1.1161239   -6.3389127    371.85816   0.03927526  0.039723164            2 
  790000    1.1478188   -6.4027912    370.15007  0.039045366  0.039716409            2 
  791000     1.131731   -6.3653822    371.29508  0.039116633  0.039709085            2 
  792000    1.1442534   -6.3092015    372.13988  0.039156132  0.039701901            3 
  793000    1.1103062   -6.3403264    372.84858  0.039181229  0.039694961            3 
  794000    1.1049875   -6.3656022    372.78266  0.039124964  0.039687885            2 
  795000    1.1307615   -6.3599461    373.64776  0.039166432  0.039681118            7 
  796000    1.1155096   -6.3336656    375.74182  0.039336455  0.039674561            2 
  797000    1.1097118   -6.3660385    374.92943  0.039202157  0.039668193            2 
  798000    1.1078213   -6.3734163    374.48724  0.039106855  0.039661381            6 
  799000    1.1143227   -6.3949634    375.53345  0.039167027  0.039654638            3 
  800000     1.131202   -6.3598425      376.463  0.039214895  0.039647958            4 
  801000    1.1123007   -6.3816122    375.60776  0.039076962  0.039641386            3 
  802000    1.1022406   -6.3852678    376.69836  0.039141558  0.039634596            4 
  803000     1.113463    -6.335229    377.55191  0.039181394  0.039628005            4 
  804000    1.1153653   -6.3717483    377.99524  0.039178611  0.039621477            5 
  805000    1.1361805   -6.3527928    378.28934  0.039160387   0.03961526            2 
  806000    1.1076135   -6.3659333    378.03077  0.039085067  0.039608463            2 
  807000    1.1268485   -6.3619765    377.42115  0.038973683  0.039601476            2 
  808000    1.0993493   -6.3689697    378.87532  0.039075425  0.039594481            5 
[...]
 4800000   0.48914418   -7.7501412    841.52697  0.014609843  0.013052565         2207 
 4801000   0.48927719   -7.7544451    842.80802  0.014629036  0.013048424         2160 
 4802000   0.48091638   -7.7530062    841.64476  0.014605802  0.013044282         2224 
 4803000   0.48867127    -7.752826    841.73473  0.014604323  0.013040145         2213 
 4804000    0.4890077   -7.7589267    842.61304  0.014616518  0.013036011         2177 
 4805000   0.49369733   -7.7594916    841.02927  0.014586009  0.013031876         2166 
 4806000   0.47631823   -7.7617625    840.80829  0.014579142  0.013027739         2173 
 4807000   0.48367106   -7.7683867    842.64749  0.014607993  0.013023605         2208 
 4808000    0.4797732   -7.7517415    842.15024  0.014596337  0.013019473         2185 
 4809000   0.48780966   -7.7502942    842.28894  0.014595705  0.013015343         2232 
 4810000   0.49007181   -7.7541663    841.19079  0.014573645  0.013011214         2226 
 4811000   0.48095835   -7.7447708    841.82106  0.014581533   0.01300709         2208 
 4812000   0.47381177   -7.7647493    841.16734  0.014567182  0.013002966         2258 
 4813000   0.47767396   -7.7788327    842.66191  0.014590032  0.012998842         2245 
 4814000   0.48383418   -7.7506403     841.8488  0.014572926  0.012994718         2203 
 4815000   0.48259776   -7.7664179    841.69564  0.014567249  0.012990601         2232 
 4816000   0.48320925   -7.7626368    840.06621  0.014536029  0.012986485         2245 
 4817000   0.49058763   -7.7635117    842.55264  0.014576027   0.01298237         2226 
 4818000   0.48301243   -7.7679227    841.88544  0.014561461  0.012978253         2243 
 4819000   0.49554037   -7.7753651    840.99964  0.014543122  0.012974141         2230 
 4820000   0.48167981   -7.7564479    842.00927   0.01455756  0.012970028         2213 
 4821000   0.47899169    -7.773961    842.16325  0.014557202  0.012965919         2167 
 4822000   0.47224814   -7.7682141    841.17076  0.014537031  0.012961808         2165 
 4823000   0.48497192   -7.7664292    841.89166  0.014546473  0.012957698         2182 
 4824000   0.48633815   -7.7593638    841.33322   0.01453381  0.012953588         2167 
 4825000   0.47342255   -7.7705608    842.14575  0.014544832  0.012949482         2166 
 4826000   0.47654516   -7.7655695    840.81717  0.014518876  0.012945378         2238 
 4827000   0.48668132   -7.7648408    841.94725  0.014535378  0.012941276         2250 
 4828000   0.46898146   -7.7642587    841.77897  0.014529463  0.012937173         2252 
 4829000   0.47843714   -7.7706706    841.73604  0.014525713  0.012933073         2204 
 4830000   0.48396663   -7.7635145    840.77465  0.014506119  0.012928975         2227 
 4831000   0.48581978   -7.7629606    841.81169  0.014521005  0.012924875         2245 
 4832000   0.47451408   -7.7603862    841.46682  0.014512052   0.01292078         2210 
 4833000   0.46769623   -7.7580134    842.34673  0.014524221  0.012916686         2219 
 4834000   0.47388624   -7.7746384    843.14714  0.014535015  0.012912596         2179 
 4835000   0.48216402   -7.7571436    841.81912   0.01450912  0.012908505         2246 
 4836000   0.48634183   -7.7695122    841.47741  0.014500231  0.012904417         2236 
 4837000   0.48467477   -7.7547044    840.76583  0.014484974   0.01290033         2221 
 4838000   0.49197956   -7.7696748    841.27188  0.014490697  0.012896243         2249 
 4839000   0.48639491   -7.7695057    841.58301   0.01449306  0.012892158         2191 
 4840000   0.46994459   -7.7609954    840.25826  0.014467257  0.012888074         2193 
 4841000   0.47817439   -7.7727529    840.38396  0.014466432  0.012883991         2151 
 4842000   0.47278662   -7.7679035    841.52792  0.014483132  0.012879916         2208 
 4843000   0.47767532   -7.7720479    841.26316  0.014475586   0.01287584         2179 
 4844000   0.47974465   -7.7785226    841.74969  0.014480968  0.012871765         2213 
 4845000   0.48149348   -7.7747309    840.91411  0.014463607  0.012867692         2226 
 4846000   0.47996924   -7.7631462    841.82176  0.014476231  0.012863621         2205 
 4847000   0.48013742    -7.771481    841.63186  0.014469979  0.012859548         2248 
 4848000   0.47748222   -7.7591736    841.00799   0.01445627  0.012855475         2272 
 4849000   0.47900856   -7.7631058    840.36152  0.014442179  0.012851407         2193 
 4850000   0.47112328   -7.7717688    841.94196  0.014466357   0.01284734         2198 
 4851000   0.46869117   -7.7621977    841.91678  0.014462942  0.012843275         2225 
 4852000   0.46507548   -7.7660252    841.54881  0.014453641   0.01283921         2229 
 4853000    0.4775563   -7.7670283    841.43236  0.014448663  0.012835147         2207 
 4854000   0.47336959    -7.771082    840.26209  0.014425596  0.012831084         2173 
 4855000   0.46649151    -7.773433    840.78182  0.014431545  0.012827019         2143 
 4856000   0.46407211   -7.7709295    839.42362  0.014405265  0.012822958         2197 
 4857000   0.47387643   -7.7681672     841.4431  0.014436948  0.012818901         2261 
 4858000   0.48076588   -7.7840687    840.33588  0.014414984  0.012814846         2243 
 4859000   0.47044861   -7.7689552    840.55264  0.014415734  0.012810793         2203 
 4860000    0.4762319   -7.7731522     841.6868  0.014432215  0.012806741         2233 
 4861000   0.47222886   -7.7604295    840.66165  0.014411672  0.012802688         2220 
 4862000   0.47429905   -7.7684276    841.71558  0.014426772  0.012798638         2240 
 4863000    0.4821829   -7.7622753    840.50311  0.014403028  0.012794593         2198 
 4864000   0.48483689   -7.7844428    840.31347  0.014396818  0.012790545         2253 
 4865000   0.48324539     -7.78234    841.29462  0.014410665  0.012786498         2205 
 4866000   0.47260279   -7.7731963    841.97576  0.014419368  0.012782453         2269 
 4867000   0.47724626   -7.7811692    841.47533  0.014407837   0.01277841         2211 
 4868000   0.47175195   -7.7677285    840.79896  0.014393299  0.012774367         2225 
 4869000   0.47033477   -7.7647642    839.94847  0.014375787  0.012770327         2243 
 4870000   0.47694501   -7.7835663    841.86067  0.014405556  0.012766288         2260 
 4871000   0.46729915   -7.7711936    841.10245  0.014389627   0.01276225         2206 
 4872000   0.47081454   -7.7734497    842.00995  0.014402195  0.012758218         2249 
 4873000   0.47993803   -7.7766148    840.78198   0.01437824  0.012754185         2266 
 4874000   0.47217494   -7.7652985    840.17136   0.01436485  0.012750152         2277 
 4875000   0.46562622   -7.7712846    841.35581  0.014382151   0.01274612         2211 
 4876000   0.47538507   -7.7568071    839.64217  0.014349914  0.012742091         2224 
 4877000   0.46928639   -7.7762333    840.78395  0.014366481  0.012738064         2254 
 4878000      0.46822   -7.7546883    840.12254  0.014352237  0.012734039         2246 
 4879000   0.46255029   -7.7855111    841.65677    0.0143755  0.012730016         2257 
 4880000   0.47909769   -7.7724332    842.19495  0.014381744   0.01272599         2246 
 4881000   0.46645316   -7.7802519    840.92876   0.01435718   0.01272197         2250 
 4882000   0.46859533   -7.7838678    840.74259  0.014351062   0.01271795         2228 
 4883000   0.46399428   -7.7784811     840.4258  0.014342716  0.012713932         2235 
 4884000   0.47347947   -7.7935698    841.37333  0.014355947  0.012709914         2224 
 4885000   0.47578044   -7.7606241    841.19609  0.014349985  0.012705901         2198 
 4886000     0.473564   -7.7895609    840.59429  0.014336784  0.012701887         2238 
 4887000   0.46621368   -7.7811696    839.79613   0.01432024  0.012697879         2256 
 4888000   0.46364543   -7.7571642      841.175  0.014340818  0.012693873         2162 
 4889000   0.46289119   -7.7798386    840.06199  0.014318913  0.012689866         2244 
 4890000   0.46513568   -7.7813687    841.23776  0.014336022  0.012685858         2196 
 4891000   0.46343518   -7.7726705    840.13696  0.014314335  0.012681853         2217 
 4892000   0.46991943   -7.7863069     841.1814  0.014329201  0.012677851         2221 
 4893000   0.46408622   -7.7855853    839.92657  0.014304901  0.012673846         2211 
 4894000   0.46231754   -7.7812083    841.30649  0.014325475  0.012669847         2231 
 4895000   0.46575743    -7.777155    841.24022   0.01432142  0.012665848         2195 
 4896000   0.46589802   -7.7882686    840.91893  0.014313026  0.012661851         2235 
 4897000   0.47041687   -7.7919508    840.99619  0.014311418  0.012657856         2201 
 4898000   0.46597383   -7.7917476    840.53553  0.014300659  0.012653861         2241 
 4899000   0.46798858   -7.7885521    839.35138  0.014277597   0.01264987         2233 
 4900000   0.46036639   -7.7769703    840.26288  0.014290185  0.012645879         2231 
 4901000   0.47337266   -7.7794754    839.64636  0.014276786   0.01264189         2214 
 4902000   0.46687891   -7.7965932    840.17694  0.014282894  0.012637899         2239 
 4903000   0.46941046   -7.7764747    839.96499  0.014276378  0.012633913         2219 
 4904000   0.46826777   -7.7832801    840.86293  0.014288726   0.01262993         2250 
 4905000   0.47694916   -7.7777209    839.74497  0.014266819  0.012625944         2224 
 4906000   0.46136519    -7.772073    840.86351  0.014282911  0.012621959         2237 
 4907000   0.47038996   -7.7821137    842.22722  0.014303159  0.012617981         2249 
 4908000    0.4633955    -7.778692      840.253  0.014266724  0.012614004         2189 
 4909000   0.46048923   -7.7811795     840.4628   0.01426738  0.012610027         2189 
 4910000   0.46850459   -7.7875666    840.77788  0.014269821  0.012606053         2237 
 4911000   0.46586412   -7.7997231    841.09448  0.014272288   0.01260208         2240 
 4912000   0.47255137   -7.7904456    841.59018  0.014277792  0.012598109         2180 
 4913000   0.45870966   -7.7892898    840.10399  0.014249678  0.012594137         2220 
 4914000   0.47542651   -7.7918109    840.69837  0.014256857  0.012590168         2197 
 4915000   0.46194592   -7.7781583    840.93767  0.014258014    0.0125862         2217 
 4916000   0.47460549   -7.7811035    839.84055  0.014236516  0.012582231         2243 
 4917000    0.4579742   -7.7869306    841.67729   0.01426475  0.012578267         2218 
 4918000   0.46402208   -7.7841093    840.20222  0.014236855  0.012574301         2201 
 4919000   0.47013644   -7.7974028     840.4214  0.014237674   0.01257034         2257 
 4920000   0.45655653   -7.7859771    839.04481  0.014211464  0.012566374         2224 
 4921000   0.46022044   -7.7965758    840.36866  0.014230994  0.012562411         2213 
 4922000   0.45613808    -7.802102    841.64384  0.014249693  0.012558452         2260 
 4923000   0.46037879     -7.78954    839.99345  0.014218861  0.012554496         2217 
 4924000    0.4646766   -7.8056657    841.43695  0.014240403  0.012550544         2201 
 4925000   0.45695249   -7.8040208    840.85673  0.014227694  0.012546592         2250 
 4926000   0.47134267   -7.7877019    839.61782  0.014203847  0.012542641         2229 
 4927000   0.46599589   -7.7793993     840.1334  0.014209685  0.012538691         2194 
 4928000    0.4698939   -7.7870635    841.53916  0.014230573  0.012534743         2230 
 4929000   0.47031278    -7.792606    839.96595  0.014201088  0.012530793         2294 
 4930000   0.45870126   -7.7876438    839.78332   0.01419512  0.012526847         2238 
 4931000   0.46071854   -7.7898347    840.31282   0.01420119  0.012522904         2242 
 4932000   0.46847268   -7.7945176    840.92608  0.014208673  0.012518962         2228 
 4933000   0.46926818   -7.7871212    840.17112  0.014193039   0.01251502         2191 
 4934000   0.46971041   -7.7981148    840.88265   0.01420218  0.012511083         2224 
 4935000   0.46628538   -7.8082051    840.94375  0.014200333  0.012507145         2236 
 4936000   0.46934713   -7.7906347    840.60404  0.014191721  0.012503209         2225 
 4937000   0.45539381   -7.8044921    840.52508  0.014187514  0.012499273         2241 
 4938000   0.45644457   -7.8112897    840.60989  0.014186072  0.012495337         2218 
 4939000   0.45779799   -7.7920053    839.37928  0.014162436  0.012491405         2278 
 4940000   0.45762083   -7.8019546    839.97171  0.014169563  0.012487475         2202 
 4941000    0.4555778   -7.7776116    838.73978  0.014145918  0.012483544         2243 
 4942000    0.4554184   -7.7928241      840.696  0.014176042  0.012479619         2216 
 4943000    0.4676735   -7.8031809    839.46367  0.014152399  0.012475689         2231 
 4944000   0.45712192   -7.8049594    839.43048  0.014148977  0.012471766         2221 
 4945000   0.45711651   -7.7979568    840.76094  0.014168536  0.012467844         2207 
 4946000   0.46586366   -7.7880873    841.07834  0.014171019  0.012463926         2234 
 4947000   0.46278888   -7.7894092    839.73825  0.014145581  0.012460002         2271 
 4948000   0.46450236   -7.7989164     838.9105  0.014128781  0.012456081         2256 
 4949000   0.45770836   -7.7974199    840.35587  0.014150264  0.012452162         2282 
 4950000   0.45878523   -7.8033957    839.64028  0.014135358  0.012448244         2246 
 4951000   0.45353485   -7.7957511    839.70346  0.014133567  0.012444329         2226 
 4952000   0.45479657   -7.7953473    840.05509   0.01413663  0.012440413         2236 
 4953000   0.46618588    -7.796096    839.56361  0.014125507  0.012436498         2244 
 4954000   0.45108333   -7.7983331    841.36641  0.014152981  0.012432586         2211 
 4955000   0.45151008   -7.7993369    841.03515  0.014144554  0.012428677         2218 
 4956000   0.45896526   -7.8039148    840.50551  0.014132794  0.012424766         2259 
 4957000   0.46683651   -7.7927061    839.80208  0.014118117  0.012420862         2186 
 4958000   0.45935894   -7.8000381    840.02504  0.014119017  0.012416954         2261 
 4959000   0.45865481   -7.8031357    839.25814  0.014103283  0.012413052         2248 
 4960000    0.4515489   -7.8029106    839.99795  0.014112869  0.012409149         2249 
 4961000   0.44720603   -7.7952947    839.28515  0.014098051  0.012405244         2258 
 4962000   0.45839102   -7.7968712     839.1032  0.014092154  0.012401342         2265 
 4963000   0.44384492   -7.8060302    840.51867  0.014113081  0.012397446         2250 
 4964000   0.45963967   -7.8045887    839.07503  0.014086003  0.012393549         2273 
 4965000   0.45879847    -7.797366    839.80489  0.014095416  0.012389654         2248 
 4966000   0.46168946   -7.8053346    840.30795  0.014101019  0.012385758         2178 
 4967000   0.46612129   -7.7931136    839.27515  0.014080853  0.012381866         2269 
 4968000   0.46567084    -7.794494    839.86148  0.014087854  0.012377974         2255 
 4969000   0.45346707   -7.7906547    839.20946  0.014074084  0.012374086         2296 
 4970000   0.44487651   -7.8063087    840.33766  0.014090169    0.0123702         2261 
 4971000   0.44739113    -7.799252    839.57596  0.014074565  0.012366313         2257 
 4972000   0.45452696   -7.8038305    840.50572  0.014087318  0.012362429         2228 
 4973000   0.45537459   -7.7932686    839.65496  0.014070229  0.012358546         2219 
 4974000   0.46907476   -7.8085591    838.28979  0.014044528  0.012354659         2270 
 4975000   0.45323809   -7.8003084    839.49135  0.014061832  0.012350777         2265 
 4976000    0.4571917   -7.8183556    839.90803  0.014065984  0.012346896         2280 
 4977000   0.44898584   -7.8057187    840.04857  0.014065511  0.012343019         2290 
 4978000   0.46421828    -7.789633     839.5489  0.014054321  0.012339143         2257 
 4979000   0.46170246   -7.8049636    840.87181  0.014073639  0.012335267         2259 
 4980000   0.46051357   -7.7973053     839.5456  0.014048621  0.012331391         2271 
 4981000   0.46353094     -7.82388    839.35028  0.014042533  0.012327517         2245 
 4982000   0.44478684   -7.8081761    840.09796  0.014052221  0.012323642         2282 
 4983000   0.45997119   -7.7828408    840.27702  0.014052395  0.012319773         2220 
 4984000   0.46045696   -7.7985429    840.07062  0.014046125  0.012315905         2275 
 4985000   0.45345521   -7.8065272    840.49717  0.014050437  0.012312036         2253 
 4986000   0.44669332   -7.8050078    839.73369  0.014034859   0.01230817         2279 
 4987000   0.46362249   -7.7886009    841.13503  0.014055461  0.012304305         2235 
 4988000   0.46413472   -7.8007793    840.23986  0.014037688  0.012300447         2264 
 4989000   0.45753306   -7.7992119    838.40752  0.014004268  0.012296586         2266 
 4990000   0.45390833   -7.8181411    840.49098  0.014036256  0.012292725         2278 
 4991000   0.45606248   -7.7964459     839.2264  0.014012329  0.012288865         2282 
 4992000   0.45286989    -7.797258    839.27016  0.014010252  0.012285009         2288 
 4993000   0.45784551   -7.8076481     839.8625  0.014017333  0.012281157         2267 
 4994000   0.44240706   -7.8061754    840.93364    0.0140324  0.012277304         2254 
 4995000   0.45247947   -7.8097419    838.87011  0.013995164  0.012273454         2265 
 4996000   0.45424663   -7.8163108    839.97474  0.014010788  0.012269602         2244 
 4997000   0.44850569   -7.7996624    838.20996  0.013978553  0.012265753         2270 
 4998000   0.45877127   -7.8030828    839.87304  0.014003485  0.012261907         2279 
 4999000   0.45072327   -7.8113196    839.06006  0.013987132  0.012258063         2264 
 5000000     0.454511   -7.8270757    839.30715  0.013988453  0.012254218         2281 
 5001000   0.45657476   -7.8064041     839.7367  0.013992813  0.012250372         2276 
 5002000   0.44332808   -7.7886313    840.21772  0.013998029  0.012246531         2246 
 5003000   0.45045057   -7.8109391    839.48844  0.013983084   0.01224269         2278 
 5004000   0.44199945   -7.8180934    840.08546  0.013990232   0.01223885         2266 
 5005000   0.45612985   -7.8011021    839.90201  0.013984383  0.012235014         2286 
 5006000   0.44250541   -7.8109447    840.08451  0.013984627   0.01223118         2252 
 5007000   0.45355488   -7.8113186    839.57904  0.013973421  0.012227344         2270 
 5008000   0.45739787   -7.8289534    839.23361  0.013964883  0.012223511         2233 
 5009000   0.45171412   -7.8046715    839.34415  0.013963934  0.012219678         2294 
 5010000   0.46858896   -7.8235171    838.93376  0.013954321  0.012215847         2267 
 5011000   0.44337166   -7.8213542    839.74609  0.013965045  0.012212018         2269 
 5012000   0.44998445   -7.8377813    838.86045  0.013947533  0.012208192         2294 
Loop time of 10843 on 48 procs for 5000000 steps with 4000 atoms

Performance: 79682.997 tau/day, 461.128 timesteps/s
99.4% CPU use with 48 MPI tasks x no OpenMP threads

MPI task timing breakdown:
Section |  min time  |  avg time  |  max time  |%varavg| %total
---------------------------------------------------------------
Pair    | 704.76     | 735.36     | 764.91     |  60.4 |  6.78
Neigh   | 68.069     | 69.086     | 71.051     |   7.4 |  0.64
Comm    | 597.49     | 635.22     | 672.6      |  63.4 |  5.86
Output  | 14.775     | 14.78      | 14.872     |   0.3 |  0.14
Modify  | 9229.9     | 9266.2     | 9305.8     |  19.6 | 85.46
Other   |            | 122.3      |            |       |  1.13

Nlocal:        83.3333 ave          92 max          78 min
Histogram: 6 4 12 7 5 5 1 4 3 1
Nghost:        1808.67 ave        1831 max        1792 min
Histogram: 4 5 9 4 8 5 6 3 1 3
Neighs:        11081.8 ave       13061 max        9912 min
Histogram: 5 4 6 13 12 2 3 2 0 1
FullNghs:      22164.3 ave       24818 max       20527 min
Histogram: 3 10 7 11 5 4 1 3 2 2

Total # of neighbors = 1063885
Ave neighs/atom = 265.97125
Neighbor list builds = 269553
Dangerous builds = 0

#clear
#
#next RN
#
#jump SELF
Total wall time: 3:00:45
