
units lj                  # Use reduced LJ style units
atom_style atomic         # Uncharged point particles
atom_modify map hash      # Needed for indexing of clusters etc
                          # Used to be able to find where atoms are in relation to each other.

# Define a lattice with which to populate the simulation cell. With units
# set to 'lj' the second argument to the lattice command is the reduced
# density rho* and the spacings are multiples of that required to acheive
# that density. Also define a simulation cell called 'box' in lattice units
# and fill it with atoms. Here we're creating a box which is ten lattice
# constants in each direction.
lattice fcc 1.0 spacing 1 1 1                 # All equal sizes - gives the right reduced density.
Lattice spacing in x,y,z = 1.5874011 1.5874011 1.5874011

region box block 0 10 0 10 0 10 units lattice # Defines a region, "box", in lattice units
create_box 1 box                              # Creates a simulation box as specified above,
Created orthogonal box = (0.0000000 0.0000000 0.0000000) to (15.874011 15.874011 15.874011)
  2 by 2 by 5 MPI processor grid
                                              # with one type of atom
create_atoms 1 box                            # Creates particles on lattice points
Created 4000 atoms
  using lattice units in orthogonal box = (0.0000000 0.0000000 0.0000000) to (15.874011 15.874011 15.874011)
  create_atoms CPU = 0.001 seconds


# Set the mass of the first (and only) atom type.
mass 1 1.0

# Lennard-Jones interactions between particles, 3.5 sigma cut-off. Apply
# long range tail corrections to energy and pressure and set all coefficients
# to unity since we work in reduced units here. Note that this doesn't shift
# the potential such that it goes to zero at the cutoff. That would require
# pair_modify('shift', 'yes').
pair_style lj/cut  3.5      # non-GPU version
pair_modify tail  yes
pair_coeff 1  1  1.0  1.0   # Intearaction between 1 and 1 set with epsilon = 1 and sigma = 1

write_data data.*
System init for write_data ...
Neighbor list info ...
  update every 1 steps, delay 10 steps, check yes
  max neighbors/atom: 2000, page size: 100000
  master list distance cutoff = 3.8
  ghost atom cutoff = 3.8
  binsize = 1.9, bins = 9 9 9
  1 neighbor lists, perpetual/occasional/extra = 1 0 0
  (1) pair lj/cut, perpetual
      attributes: half, newton on
      pair build: half/bin/atomonly/newton
      stencil: half/bin/3d
      bin: standard

#############################
#   M E L T   S Y S T E M   #
#############################

velocity all create 2.4 5833274 mom yes dist gaussian # Assign velocities
                                                    # Temperature 2.4, random number seed, zero linear momentum
						                                                        # Gaussian distribution

timestep 0.002   # simulation timestep
thermo 100       # output thermodynamic data every 100 steps

# Define a fix  in this case with index 1 applied to all
# particles in the simulation. This fix is for simulations
# in the anisotropic NPT ensemble. Note that we use the MTK
# correction.
fix 1 all npt temp 2.4 2.4 0.1 iso 5.68 5.68 0.5 mtk yes tchain 5 pchain 5 # Use NPT ensemble
                                                                         # Set temperature and pressure and damping
                                                                         # Numbers of thermostats in chain and in barostat
run 1000         # run for 10000 steps
Per MPI rank memory allocation (min/avg/max) = 3.681 | 3.682 | 3.682 Mbytes
Step Temp E_pair E_mol TotEng Press Volume 
       0          2.4   -8.3859253            0   -4.7868253   -2.2405722         4000 
     100    1.2560543   -6.5166947            0   -4.6330842    5.4738617     4090.264 
     200    1.4620147   -6.2944328            0    -4.101959    6.0489469    4141.8953 
     300    1.5805517   -6.0148662            0   -3.6446313    5.8775706    4268.7287 
     400    1.6834669   -5.7107066            0   -3.1861375    5.9071358    4403.4982 
     500    1.7905016   -5.4263411            0   -2.7412601    5.8268731    4549.0839 
     600    1.8978346    -5.162881            0   -2.3168407    5.7228626    4703.0892 
     700    1.9845484    -4.865807            0   -1.8897287     6.002426    4840.6855 
     800    2.1384022    -4.696791            0   -1.4899895    5.9101296    4967.4306 
     900    2.2534752   -4.5516747            0    -1.172307    5.7523082    5085.8653 
    1000    2.3409821   -4.4247023            0  -0.91410702    5.7016656    5179.7126 
Loop time of 0.480281 on 20 procs for 1000 steps with 4000 atoms

Performance: 359789.681 tau/day, 2082.116 timesteps/s
99.8% CPU use with 20 MPI tasks x no OpenMP threads

MPI task timing breakdown:
Section |  min time  |  avg time  |  max time  |%varavg| %total
---------------------------------------------------------------
Pair    | 0.26288    | 0.28072    | 0.30118    |   2.0 | 58.45
Neigh   | 0.050289   | 0.053303   | 0.056415   |   0.7 | 11.10
Comm    | 0.097157   | 0.11922    | 0.13824    |   3.4 | 24.82
Output  | 0.0002024  | 0.00020879 | 0.00026325 |   0.0 |  0.04
Modify  | 0.0218     | 0.02352    | 0.025963   |   1.1 |  4.90
Other   |            | 0.003306   |            |       |  0.69

Nlocal:        200.000 ave         214 max         185 min
Histogram: 1 1 2 4 1 2 4 2 2 1
Nghost:        2060.35 ave        2080 max        2025 min
Histogram: 1 0 0 1 4 0 5 5 0 4
Neighs:        17663.0 ave       19553 max       16156 min
Histogram: 1 3 2 3 4 1 1 4 0 1

Total # of neighbors = 353260
Ave neighs/atom = 88.315000
Neighbor list builds = 87
Dangerous builds = 21

# Equilibrate just above the melting temperature to avoid step fn in T

fix 1 all npt temp 1.25 1.25 0.1 iso 5.68 5.68 0.5 mtk yes tchain 5 pchain 5
run 1000
Per MPI rank memory allocation (min/avg/max) = 3.682 | 3.683 | 3.683 Mbytes
Step Temp E_pair E_mol TotEng Press Volume 
    1000    2.3409821   -4.4247023            0  -0.91410702    5.7016656    5179.7126 
    1100    1.9394202   -4.6489983            0   -1.7405953    5.7043192    5010.4975 
    1200    1.7538302   -4.9709308            0   -2.3408432    5.7068483    4807.0107 
    1300    1.5722219   -5.1950829            0   -2.8373396    5.6802724    4673.3381 
    1400    1.4568845   -5.4057081            0   -3.2209276    5.5567683    4573.8845 
    1500    1.3503547   -5.5212706            0   -3.4962449    5.7302676    4490.7966 
    1600    1.3147643   -5.6482764            0   -3.6766229    5.6898925    4434.2315 
    1700    1.2716924   -5.7297408            0   -3.8226791    5.6958397    4391.1098 
    1800    1.2648862   -5.7893213            0   -3.8924664    5.8003465    4355.9343 
    1900    1.2354209   -5.8175189            0   -3.9648509     5.800932    4342.1233 
    2000    1.2349334    -5.850737            0      -3.9988    5.7262948    4335.4701 
Loop time of 0.470474 on 20 procs for 1000 steps with 4000 atoms

Performance: 367289.114 tau/day, 2125.516 timesteps/s
100.0% CPU use with 20 MPI tasks x no OpenMP threads

MPI task timing breakdown:
Section |  min time  |  avg time  |  max time  |%varavg| %total
---------------------------------------------------------------
Pair    | 0.25851    | 0.27805    | 0.29668    |   2.1 | 59.10
Neigh   | 0.043855   | 0.046473   | 0.048823   |   0.7 |  9.88
Comm    | 0.097218   | 0.11866    | 0.13918    |   3.6 | 25.22
Output  | 0.00020353 | 0.00021124 | 0.00026459 |   0.0 |  0.04
Modify  | 0.021293   | 0.023344   | 0.025952   |   1.0 |  4.96
Other   |            | 0.003728   |            |       |  0.79

Nlocal:        200.000 ave         208 max         193 min
Histogram: 3 2 2 0 3 2 4 1 0 3
Nghost:        2288.05 ave        2299 max        2264 min
Histogram: 1 0 0 2 0 3 2 3 5 4
Neighs:        21066.1 ave       22634 max       19412 min
Histogram: 1 2 3 1 3 1 2 4 2 1

Total # of neighbors = 421322
Ave neighs/atom = 105.33050
Neighbor list builds = 76
Dangerous builds = 7


# Small amount of linear quench

fix 1 all npt temp 1.25 ${temp} 0.1 iso 5.68 5.68 0.5 mtk yes tchain 5 pchain 5
fix 1 all npt temp 1.25 1.87 0.1 iso 5.68 5.68 0.5 mtk yes tchain 5 pchain 5
run 2000
Per MPI rank memory allocation (min/avg/max) = 3.683 | 3.683 | 3.684 Mbytes
Step Temp E_pair E_mol TotEng Press Volume 
    2000    1.2349334    -5.850737            0      -3.9988    5.7262948    4335.4701 
    2100    1.2668731   -5.8395936            0    -3.939759    5.5644886    4354.1701 
    2200    1.2808884   -5.7968739            0   -3.8760216    5.5755492    4371.7687 
    2300    1.3241757   -5.7787341            0   -3.7929672    5.4734074    4393.1633 
    2400    1.3222764   -5.7026344            0   -3.7197157    5.5432547    4421.1579 
    2500    1.4018136   -5.6905335            0   -3.5883388     5.740417    4416.2664 
    2600    1.4169957   -5.5882507            0   -3.4632885    6.1385865    4427.0538 
    2700    1.4430594    -5.573647            0    -3.409599    5.6713117    4476.2896 
    2800    1.4742904   -5.5596685            0   -3.3487858    5.5046086    4503.5592 
    2900    1.4918321   -5.4600187            0     -3.22283    5.8427007     4513.957 
    3000      1.52921   -5.4559181            0   -3.1626766    5.5838337     4544.419 
    3100     1.571498   -5.4098481            0   -3.0531904    5.5986181    4569.9681 
    3200    1.5984074   -5.3621608            0   -2.9651491    5.7401576    4580.8593 
    3300     1.652407   -5.3410888            0   -2.8630979    5.7800739    4590.1973 
    3400    1.6527659   -5.2985922            0   -2.8200631     5.384788    4656.6686 
    3500    1.6767899   -5.2144715            0   -2.6999155    5.6036604    4671.6786 
    3600    1.7194937   -5.1806888            0   -2.6020931    5.4743922    4707.7848 
    3700    1.7691162   -5.1461217            0   -2.4931109    5.7240505    4706.9507 
    3800    1.7746392   -5.0698323            0   -2.4085389    5.8889887    4726.6081 
    3900    1.8351548   -5.0591439            0   -2.3070999    5.7382695    4752.2322 
    4000    1.8326342   -5.0033486            0   -2.2550845     5.737524    4787.8622 
Loop time of 0.928523 on 20 procs for 2000 steps with 4000 atoms

Performance: 372204.094 tau/day, 2153.959 timesteps/s
100.0% CPU use with 20 MPI tasks x no OpenMP threads

MPI task timing breakdown:
Section |  min time  |  avg time  |  max time  |%varavg| %total
---------------------------------------------------------------
Pair    | 0.51749    | 0.55723    | 0.58842    |   2.7 | 60.01
Neigh   | 0.088252   | 0.091792   | 0.095093   |   0.6 |  9.89
Comm    | 0.19187    | 0.22522    | 0.26249    |   4.4 | 24.26
Output  | 0.00038736 | 0.00040254 | 0.00049813 |   0.0 |  0.04
Modify  | 0.041241   | 0.046449   | 0.052031   |   1.6 |  5.00
Other   |            | 0.007434   |            |       |  0.80

Nlocal:        200.000 ave         209 max         196 min
Histogram: 7 2 2 4 1 0 1 1 1 1
Nghost:        2153.50 ave        2170 max        2136 min
Histogram: 2 0 3 3 3 2 1 3 0 3
Neighs:        19077.4 ave       20499 max       17418 min
Histogram: 1 1 2 2 2 4 3 1 2 2

Total # of neighbors = 381548
Ave neighs/atom = 95.387000
Neighbor list builds = 148
Dangerous builds = 0

#############################
# F R E E Z E  S Y S T E M  #
#############################

# Define solid atoms. This closely follows ten Wolde  Ruiz-Montero and Frenkel  Faraday Discuss  1996  104  93-110
# Compute components of the per-atom q6 vector
compute q6 all orientorder/atom degrees 1 6 components 6 nnn NULL cutoff 1.3 # compute the Q6 parameter.
                                                                             # Use all neighbours within 1.3 unit cell.

# get number of connections
compute coord_number all coord/atom orientorder q6 0.5

# An atom is solid if it has 8 or more connections (of a possible 14)
variable is_solid atom c_coord_number>=8
group solid dynamic all var is_solid    # Must be dynamic to update
dynamic group solid defined

# do clustering
compute cluster solid cluster/atom 1.3 # Create a cluster where all atoms within are solid and max 1.3 units from another member

# define chunks one chunk per cluster
compute clus_chunks solid chunk/atom c_cluster nchunk every compress yes  # Says which atoms are in which chunk

# count the size of each chunk
compute size_chunks solid property/chunk clus_chunks count


# Find the maximum entry in the vector of chunk sizes
variable max_n equal max(c_size_chunks)


# Thermo style which includes this variable
thermo_style custom step temp pe vol v_max_n

thermo ${N}  # Print the thermo information every 100 steps
thermo 100  

# Reset the npt fix at a lower temperature (below freezing)
fix 1  all npt temp  ${temp} ${temp}  0.1  iso  5.68  5.68  0.5  mtk yes tchain  5  pchain  5
fix 1  all npt temp  1.87 ${temp}  0.1  iso  5.68  5.68  0.5  mtk yes tchain  5  pchain  5
fix 1  all npt temp  1.87 1.87  0.1  iso  5.68  5.68  0.5  mtk yes tchain  5  pchain  5

dump dmp2 all dcd ${N} traj_${rand}.dcd
dump dmp2 all dcd 100 traj_${rand}.dcd
dump dmp2 all dcd 100 traj_462431.dcd


# fix rnuntil all halt ${N} v_max_n >= 3980 error soft message no   # Stop when solidified


run 100000 # 5000000  # Run for this many steps
Neighbor list info ...
  update every 1 steps, delay 10 steps, check yes
  max neighbors/atom: 2000, page size: 100000
  master list distance cutoff = 3.8
  ghost atom cutoff = 3.8
  binsize = 1.9, bins = 9 9 9
  4 neighbor lists, perpetual/occasional/extra = 1 3 0
  (1) pair lj/cut, perpetual
      attributes: half, newton on
      pair build: half/bin/atomonly/newton
      stencil: half/bin/3d
      bin: standard
  (2) compute orientorder/atom, occasional
      attributes: full, newton on
      pair build: full/bin/atomonly
      stencil: full/bin/3d
      bin: standard
  (3) compute coord/atom, occasional
      attributes: full, newton on
      pair build: full/bin/atomonly
      stencil: full/bin/3d
      bin: standard
  (4) compute cluster/atom, occasional
      attributes: full, newton on
      pair build: full/bin/atomonly
      stencil: full/bin/3d
      bin: standard
Per MPI rank memory allocation (min/avg/max) = 9.488 | 9.492 | 9.495 Mbytes
Step Temp PotEng Volume v_max_n 
    4000    1.8326342   -5.0033486    4787.8622            2 
    4100    1.8533738   -4.9732058    4832.9355            1 
    4200    1.9022887   -4.9626249    4811.4766            1 
    4300    1.8394723   -4.9679014    4794.8514            1 
    4400    1.8803601   -4.9753688     4821.826            1 
    4500    1.8815296   -4.9369261    4825.4977            1 
    4600    1.8587622   -4.9443786    4825.3141            1 
    4700    1.8469606   -4.9286264    4818.9512            1 
    4800    1.9018549   -4.9764745    4820.7977       -1e+20 
    4900    1.8812638   -4.9459788    4846.6362            1 
    5000     1.867704   -4.9692858    4828.1853            1 
    5100    1.8666899   -4.9642424     4808.982            2 
    5200     1.888623   -4.9813502    4828.1557            1 
    5300    1.8467911   -4.9619077    4803.1953            1 
    5400    1.8942949   -4.9509118     4821.909            2 
    5500    1.8771735   -4.9584704    4842.8449            2 
    5600    1.8666205   -5.0160933    4803.0344            1 
    5700    1.8729301   -4.9612257    4808.0217            1 
    5800    1.8615719   -4.9932744    4814.0222            1 
    5900    1.8813759   -4.9249279    4810.0552            2 
    6000    1.8866442   -4.9311928    4828.9465            1 
    6100    1.8544117   -5.0076359    4834.4805            1 
    6200     1.855467   -4.9607053    4791.3918            1 
    6300    1.8320249   -4.9400909    4792.9092            2 
    6400    1.8891265   -4.9748653    4840.9858            1 
    6500    1.8429061   -4.9644242    4832.4422            1 
    6600    1.8801694    -4.952295    4790.3157            1 
    6700    1.8619168   -4.9222593    4848.4121            3 
    6800    1.8972603   -5.0152601    4824.8318            1 
    6900     1.849151   -4.9669905    4805.2279            1 
    7000    1.8770625   -4.9200188    4824.2191            1 
    7100    1.8974417   -4.9377132     4841.024            1 
    7200    1.8512135   -4.9613667    4829.4886            2 
    7300    1.8995396   -4.9428564    4817.5155            1 
    7400    1.8576531   -4.9885606    4825.1456       -1e+20 
    7500    1.8802214   -4.9732402    4808.7453            1 
    7600     1.886036   -4.9723012    4824.4208       -1e+20 
    7700    1.8701088   -4.9459304    4843.7548            1 
    7800    1.8670962   -4.9904434    4816.5716            1 
    7900    1.8567934   -4.9564151    4806.3039            1 
    8000    1.8500453   -4.9296168    4843.1864            1 
    8100    1.8622967   -4.9559413    4794.7796            1 
    8200    1.8625198   -4.9691246    4805.0553            2 
    8300    1.8381002   -4.9225846    4812.2565            1 
    8400    1.8617586   -4.9450539    4806.3325            1 
    8500    1.8730879   -4.9865054    4804.4007            2 
    8600     1.862867   -4.9458373    4854.9436            1 
    8700     1.893238   -4.9115904    4833.9164            1 
    8800    1.8966261   -4.9747435    4819.4302            2 
    8900    1.8437987   -4.9857362    4813.9567       -1e+20 
    9000     1.869952   -4.9513836    4818.4015            1 
    9100    1.8589689   -4.9571194    4819.1748       -1e+20 
    9200    1.8778299   -4.9996361    4794.8579            3 
    9300    1.8235838   -4.9647909    4825.8378            1 
    9400    1.9194569    -4.974305    4801.2833            1 
    9500    1.8913338   -5.0149212    4814.8707            1 
    9600    1.8468634   -5.0003045    4795.7221            1 
    9700    1.8521221   -4.9371047    4799.2048            2 
    9800     1.880081   -4.9719222    4811.3425            2 
    9900    1.8299713   -4.9140554    4816.7499            1 
   10000    1.8773322   -4.9276405    4847.5307            1 
   10100    1.9023056   -4.8927164    4840.6207       -1e+20 
   10200    1.8726698   -4.9530935    4829.4718            2 
   10300    1.8648387   -5.0058814    4824.6472       -1e+20 
   10400    1.8758611   -4.9437267    4816.4241            1 
   10500    1.8407298   -4.9187677    4811.1653            1 
   10600    1.8816897   -4.8866463    4828.9529            1 
   10700    1.8951151   -4.9544062    4849.3385            1 
   10800    1.8533771   -4.9646016    4803.8755            1 
   10900    1.8824139   -4.9273108    4811.2201            1 
   11000    1.8668107   -4.9597871    4832.8596            1 
   11100    1.8787707   -4.9762066    4816.2869            1 
   11200    1.8629384   -4.9772693    4789.1399            1 
   11300    1.8720524   -4.9528619    4821.4226            2 
   11400    1.8967717   -4.9687045    4832.2348            1 
   11500    1.8551297    -4.967202    4817.5662            1 
   11600    1.8305364   -4.9315625    4817.7079            2 
   11700    1.8690624   -4.9003646    4830.0519            1 
   11800     1.886599   -4.8939438    4826.0477            1 
   11900    1.8428568    -4.933603    4831.5721            1 
   12000    1.9084257   -4.9941579    4824.6932            1 
   12100    1.8435258   -4.9720455     4804.759            1 
   12200    1.9068901   -4.9830402    4835.8748            2 
   12300    1.8948595   -4.9076111    4834.7383            1 
   12400    1.8386696   -4.9633646    4847.5537            1 
   12500    1.8625741    -5.000209    4817.7119            1 
   12600     1.898203    -4.996971    4765.9467            2 
   12700     1.799181   -4.9981902    4800.4463            1 
   12800    1.8648222   -4.9990337    4825.3673            1 
   12900     1.859574   -4.9162303    4830.9324       -1e+20 
   13000    1.9035786   -4.8899316    4834.7341            1 
   13100    1.8513523   -4.9102489      4858.47            1 
   13200    1.8825685   -4.9493949    4828.7916            1 
   13300    1.8818353   -5.0064185    4804.8475            1 
   13400    1.8325564   -5.0052243    4805.0892            2 
   13500    1.8595192   -4.9438323    4820.4692            1 
   13600    1.8746121   -4.9025241    4810.1529            1 
   13700    1.8637295   -4.9437452    4836.2781            1 
   13800    1.8656066    -5.001627    4812.5087            1 
   13900    1.9136941   -5.0110546    4802.6108            3 
   14000    1.8710679   -4.9542937    4826.2766            1 
   14100    1.8467014   -4.9611194    4821.1376            1 
   14200    1.8886993   -4.9452499    4809.4496            1 
   14300    1.8516706   -4.9755002    4810.7264            1 
   14400    1.8525684   -4.9553415    4801.7556            3 
   14500    1.8808347   -4.9633646    4807.7143            1 
   14600    1.9035875   -4.9567871    4822.9866            2 
   14700    1.8483578   -4.9881973    4820.0917            1 
   14800    1.8938601   -4.9832116    4799.4723            4 
   14900    1.8201834   -4.9774471    4807.0391            1 
   15000    1.8823596   -4.9723969    4826.3582            1 
   15100    1.8860586   -4.9446405    4817.1075            1 
   15200    1.8575003   -4.9130027    4842.3002            1 
   15300    1.8547904   -4.8718992    4835.9087            2 
   15400    1.8801077   -4.9400979    4815.3081            2 
   15500    1.8340988   -4.9647325    4819.8505            2 
   15600    1.9117328    -4.976579    4810.7766            3 
   15700    1.8508509   -4.9522131    4811.6379            1 
   15800    1.9087404   -4.9460122     4822.446            1 
   15900    1.8324309   -4.9246066    4855.2622            1 
   16000    1.8920774   -4.9366056    4841.2527            1 
   16100    1.8854553   -4.9119223    4830.0912            1 
   16200     1.860497   -4.9626616     4855.814            1 
   16300    1.8997809   -4.9447837    4826.7061            3 
   16400    1.9016215   -4.9374386     4806.975            1 
   16500     1.817184    -4.975147    4855.2062            3 
   16600    1.9098016   -4.9736332     4821.957            2 
   16700     1.922441   -4.9292694    4836.1529            1 
   16800    1.8516948   -4.9053751    4870.8637            1 
   16900    1.8613285   -4.9087903    4823.3488            1 
   17000    1.8787001   -4.9804669    4829.5577            1 
   17100    1.8628829   -4.9785916    4813.4605            1 
   17200    1.8664398   -4.9411528    4811.7399            1 
   17300    1.9131379   -4.9598589    4840.4772            1 
   17400    1.8570293   -4.9678695     4818.532            1 
   17500    1.8908336   -4.9941356    4821.4708            1 
   17600    1.8305358   -4.9656791    4808.8837            1 
   17700    1.8792797   -4.9388429    4814.5467            1 
   17800    1.8798559   -4.9274856    4840.4874            2 
   17900    1.8540586   -4.9713094    4844.7089            1 
   18000    1.8457401   -4.9124047    4806.8272            1 
   18100      1.87914   -4.9041696    4840.7603            1 
   18200    1.8600461   -4.9511924    4840.1752            1 
   18300    1.8630178   -4.9889429      4800.08            2 
   18400    1.8328851   -5.0229523    4781.3399            1 
   18500    1.8614901   -5.0042013    4813.6541            1 
   18600    1.8736709   -4.9389682    4820.9946            1 
   18700    1.8931897   -4.9666075    4834.6233            3 
   18800    1.8438117   -4.9552719    4806.3943            1 
   18900    1.8504481   -4.9362032    4810.5778            1 
   19000    1.8605191    -4.905937    4820.8472            1 
   19100    1.8421662   -4.9553025    4831.4875            1 
   19200    1.9012698    -4.923253    4845.2693            1 
   19300    1.9019525   -4.9060743    4841.1566            1 
   19400    1.8479181   -4.9592271    4830.5919            1 
   19500    1.8917428   -4.9715306    4819.0348            2 
   19600    1.9168425   -4.9473252    4837.5915            1 
   19700    1.8833882   -4.9829531    4823.4876            1 
   19800    1.8391346   -4.9794148    4820.5417            2 
   19900    1.8993837   -4.9470937    4816.6238            2 
   20000    1.9032851   -4.9654178    4838.8393            1 
   20100    1.8434411   -4.9973371    4825.5194       -1e+20 
   20200    1.9024447   -4.9809381    4792.8978            1 
   20300    1.8621583   -4.9751132    4826.9647            1 
   20400    1.8706054   -4.9624591    4824.3523            1 
   20500    1.8832714   -4.9528532    4818.3132            2 
   20600    1.8692772   -4.9877601    4807.2968            1 
   20700    1.8721126   -5.0080847    4804.5834            1 
   20800    1.8830019   -5.0009213    4812.3732            2 
   20900    1.8527227   -4.9419496    4810.1067            1 
   21000    1.8583467   -4.9052477    4849.5168            1 
   21100    1.8918817   -4.9735827    4805.6677            1 
   21200    1.8371013   -4.9728828    4847.3664            1 
   21300    1.8788144   -4.9143958    4815.1992            1 
   21400    1.8472019   -4.9305775    4809.3747            1 
   21500    1.7973428   -4.9470128    4837.6943            1 
   21600    1.8752957   -4.9055795    4813.6026            1 
   21700    1.8824751   -4.9742739    4842.1392            1 
   21800    1.8824352   -4.9741653    4846.3599            1 
   21900    1.8894417   -4.9611267    4797.8605            1 
   22000    1.8555279   -5.0223153    4820.9141            1 
   22100    1.8649564   -4.9767547    4811.3648            1 
   22200    1.9052173   -4.9663121    4817.4952            2 
   22300    1.8493525   -4.9203294      4842.16            1 
   22400    1.8110822   -4.9507256    4816.8883            1 
   22500    1.8852179   -4.9590023       4819.3            1 
   22600     1.896114   -4.9791652    4823.5966            1 
   22700    1.8201304   -4.9595473    4806.5133            1 
   22800    1.8872568   -4.9665914    4811.3933            1 
   22900     1.842666   -4.9259032    4844.8591       -1e+20 
   23000     1.896329   -4.9367697    4819.5789            1 
   23100    1.8827432   -4.9643377     4801.877            1 
   23200    1.8228688   -4.9730339    4816.5107            1 
   23300    1.8765331   -4.9199944    4830.0706            2 
   23400    1.8589814   -4.9452302    4847.4886            1 
   23500    1.8710723   -4.9798883    4812.3818            1 
   23600    1.8469238   -4.9123107    4833.5373            1 
   23700    1.8709105   -4.9800969    4792.5185            3 
   23800    1.8386939   -4.9679432     4812.822            1 
   23900    1.8679715   -4.9601425    4801.2875            1 
   24000    1.8657287   -4.9077468    4824.5551            1 
   24100    1.8762699    -4.986487    4843.7764            1 
   24200    1.8677224    -4.995266     4805.891            1 
   24300    1.9104566   -4.9644204    4790.1486            1 
   24400    1.8156125   -4.9443445    4838.6498            1 
   24500    1.8688026   -4.9330025    4815.9841            1 
   24600     1.936482    -4.939658    4827.2999            1 
   24700    1.8675437   -4.9617326    4863.8107            2 
   24800     1.880111   -4.9223661    4832.0839            1 
   24900    1.8329776   -4.9330422    4799.3052            1 
   25000    1.8622563   -4.9303819    4827.6942            1 
   25100     1.880011   -4.9449232    4831.3545            1 
   25200    1.8689902   -4.9624922     4821.557            1 
   25300    1.8783678   -4.9658085    4827.7689            1 
   25400    1.9025015   -4.9412202    4854.7756            1 
   25500     1.861455   -4.9123893    4841.7875            2 
   25600    1.8624554    -4.929488    4797.2525            1 
   25700    1.8620151   -4.9496612    4812.1921            1 
   25800    1.8521426   -5.0040491    4848.7142            1 
   25900     1.886257   -4.9689284    4784.4238            1 
   26000    1.8726378   -4.9088346    4833.7368            2 
   26100    1.8891821   -4.9494499    4853.4539            1 
   26200    1.8735298   -5.0005015    4802.5456            1 
   26300    1.9012994   -4.9982335    4804.9989            1 
   26400    1.8501731   -4.9518364    4836.9778            1 
   26500    1.8996246   -4.9389993    4811.8835            1 
   26600    1.8734605    -4.988287    4804.6641            2 
   26700     1.827713    -5.045408    4795.4527            2 
   26800    1.8737622   -5.0046287    4783.4814            1 
   26900    1.8842678   -4.9761336    4817.5596            2 
   27000    1.8616784   -5.0049863    4828.7198            1 
   27100    1.8991958   -4.9372801    4816.3362            2 
   27200    1.8704335   -4.9367746    4831.5838            1 
   27300     1.846863   -4.9664847    4804.1848            2 
   27400    1.8863643   -4.9873788    4819.6067            1 
   27500    1.8853596   -4.9562761    4830.8898            1 
   27600    1.8812761   -4.9747594    4854.6373            1 
   27700    1.8667951   -4.9476556    4823.6527            1 
   27800    1.8618265   -4.9764694    4792.2621            1 
   27900    1.9077463   -4.9945497    4834.8644            1 
   28000    1.8688239   -4.9840531      4824.07            2 
   28100    1.8941815   -4.9983247    4830.8358            3 
   28200    1.8759761   -4.9749481    4814.0757       -1e+20 
   28300    1.8679426   -4.9864712    4787.1443            1 
   28400    1.9092096   -4.9716748    4823.0218            1 
   28500    1.8580582   -4.9607437    4829.8193            1 
   28600    1.8645029   -4.9816383    4791.9743            2 
   28700     1.891493   -4.9874987    4794.5899            2 
   28800    1.8589018   -5.0057279    4832.1577            2 
   28900    1.9036844   -4.9969394    4815.4243            1 
   29000    1.8831076   -4.9165527    4841.6357            1 
   29100    1.8556465   -4.9760942    4812.5528       -1e+20 
   29200    1.8415497   -4.9601657    4824.1604       -1e+20 
   29300     1.902087   -4.9594672    4820.1327            1 
   29400    1.8700417   -4.9729176    4838.7239            1 
   29500    1.8820776   -4.9827319    4813.0082            1 
   29600    1.8213809   -4.9210017    4782.0433            1 
   29700    1.8727501   -4.9930183    4797.9983            1 
   29800     1.824005   -4.9176257    4845.8994            1 
   29900    1.8825697   -4.9202296    4842.7844            3 
   30000     1.881749   -4.9783727    4837.3469            1 
   30100    1.8391109   -4.9934167    4802.8535            1 
   30200    1.8459627    -5.020949    4788.1573            1 
   30300    1.8575579   -4.9494017    4811.9687            1 
   30400    1.8742504   -4.9309663    4826.0973            1 
   30500    1.8396053   -4.9232482    4833.5917            2 
   30600    1.9067208   -4.9715268    4796.2778            1 
   30700    1.8306981     -4.96205    4851.5405            1 
   30800    1.9193406   -4.9972478    4786.1356            1 
   30900    1.8936567   -5.0421913    4821.9161            1 
   31000    1.8839727   -5.0140113    4805.7587            1 
   31100    1.8755135   -5.0068676    4785.6814            1 
   31200    1.8686838   -5.0073025    4807.7757            2 
   31300    1.8554772   -4.9410273     4833.967            1 
   31400    1.8890892   -4.9102159    4849.5383       -1e+20 
   31500     1.853564   -4.9093343     4836.025            1 
   31600    1.8844268   -4.9562322    4826.6446            2 
   31700    1.8137642   -4.9634905    4814.1094            1 
   31800    1.8993538   -5.0194783    4769.9449            4 
   31900    1.8528492   -4.9592171    4821.6782            1 
   32000     1.863426   -4.9622109    4838.5207            1 
   32100    1.9070181   -4.8998446    4812.2572            2 
   32200     1.887141   -4.9914889    4821.8722            1 
   32300    1.8624492   -5.0029799    4842.7303            2 
   32400    1.9052397   -4.9362505    4819.9748            4 
   32500    1.8770855   -4.9544263    4819.2805            2 
   32600    1.8428757   -5.0041141    4803.3379       -1e+20 
   32700    1.8768635   -4.9383683     4818.905            1 
   32800    1.8894022   -5.0140161    4811.9238            2 
   32900    1.8794998   -5.0135782    4804.4757            1 
   33000     1.896046   -4.9683653    4816.6625            1 
   33100    1.8785836   -4.9044032    4845.0517       -1e+20 
   33200    1.8457493   -4.9444083     4818.679            1 
   33300    1.8653119    -4.989293    4775.7555            2 
   33400    1.8872174   -4.9844382    4809.4068            1 
   33500    1.8303071   -4.9352046    4872.6144            1 
   33600    1.9024045   -4.9505901    4828.6307            1 
   33700    1.9017674   -4.9315676    4829.1847            1 
   33800    1.8432967   -4.9530431    4835.1358            1 
   33900    1.8625276   -4.9469849    4802.1379            1 
   34000    1.8598419   -4.9834481    4788.1129            2 
   34100    1.8561649   -4.9801988    4823.1942            1 
   34200    1.8128988   -4.9831632    4791.3804            1 
   34300    1.8732798   -4.9745214    4819.7044            1 
   34400    1.8803225   -4.9395884    4811.7861            1 
   34500    1.8403452   -4.9346687    4825.0935            1 
   34600     1.832329   -4.9079755    4818.7341       -1e+20 
   34700    1.8887255    -4.890742    4813.9114            1 
   34800     1.864296   -4.9416718    4835.9924            2 
   34900    1.8603549   -4.9634534     4822.113            1 
   35000    1.8697578   -4.9536282    4822.8397            2 
   35100    1.8801305   -4.9842143    4824.7399            3 
   35200    1.8523655   -5.0099359    4795.1043            1 
   35300    1.8655124   -4.9628713    4815.4224            1 
   35400    1.8245052   -4.9248387    4832.3046            2 
   35500    1.9130402   -4.9268865     4829.445            1 
   35600     1.860733   -4.9731727    4833.9477            1 
   35700    1.8700308   -4.9622746     4802.834            1 
   35800    1.8815032   -4.9755492    4800.0791            3 
   35900    1.8697082   -4.9787439    4831.4261            1 
   36000    1.8840416   -4.9756494    4817.4186            1 
   36100    1.8726966   -4.9711991    4815.5246            1 
   36200    1.8990328   -4.9358977    4813.7628            1 
   36300    1.8036658   -4.9216896    4844.1545            1 
   36400     1.875663   -4.9204719    4832.5367            1 
   36500    1.8584296   -4.9443098    4825.6809            1 
   36600    1.8331834   -4.9825337    4801.9484            3 
   36700    1.9111673   -5.0099118    4818.7738            2 
   36800    1.8876054   -4.9854703    4818.1978            1 
   36900    1.8798122    -4.946407    4830.3341            1 
   37000    1.9063016   -4.9450195    4864.2526            1 
   37100    1.8824421   -4.9735301    4821.5845            1 
   37200    1.8772497   -4.9609197    4808.0518            1 
   37300    1.8613362   -4.9544785    4825.2641            1 
   37400    1.8801969   -4.9426752    4839.0826            1 
   37500     1.843783   -4.9318716    4805.4464            1 
   37600    1.8738616   -4.9324452    4805.3631            1 
   37700     1.847305   -4.9703107    4843.5358            1 
   37800    1.8562916   -4.9462805    4804.9825            2 
   37900    1.8771646   -4.9322829    4819.2571            1 
   38000    1.8693974   -4.9162155    4845.3712            2 
   38100    1.8798106   -4.9384711    4838.8361            2 
   38200    1.8372953   -4.9364262    4816.9715            1 
   38300    1.8613788   -4.9043248     4820.233            1 
   38400    1.8622539   -4.9600353    4817.6998            2 
   38500    1.8610199   -5.0048122    4787.5918       -1e+20 
   38600    1.8621788   -4.9579423    4810.9519            1 
   38700    1.8967309    -4.963536    4815.9212       -1e+20 
   38800    1.8168553   -4.9806288    4823.9927            1 
   38900    1.8669062   -4.9655363    4809.8864            1 
   39000      1.91265   -4.9633035    4820.0151       -1e+20 
   39100    1.8228365   -4.9255829    4862.1938            1 
   39200    1.8674162   -4.9629976    4796.8079            1 
   39300    1.8723209   -4.9567837    4802.5295            2 
   39400    1.8642544   -4.9865301    4824.0694            1 
   39500    1.8549188   -4.9873561     4789.342            1 
   39600    1.9156896   -5.0088741    4796.7645       -1e+20 
   39700    1.7953729   -4.9118172    4830.6121            2 
   39800    1.8721898    -4.907916    4824.3899            1 
   39900    1.8716354   -4.9651758    4831.8076            2 
   40000    1.8541395   -5.0147747    4782.4706            1 
   40100     1.843792   -4.9750821    4805.9423            1 
   40200    1.8351427   -4.9280492    4842.3675            1 
   40300    1.9155002   -4.9654559    4828.5254            1 
   40400    1.8847264   -4.9859053    4838.6686            1 
   40500    1.8716773   -4.9262314    4833.3458            1 
   40600    1.8928486   -4.8871244    4834.1724       -1e+20 
   40700    1.8539196   -4.9237187    4813.3661            1 
   40800    1.8710195   -5.0169403    4827.6042            2 
   40900    1.8644769   -5.0536473    4771.1257            2 
   41000    1.8477119   -4.9635536    4795.7963            1 
   41100     1.851658    -4.913507    4824.6671            1 
   41200    1.8767909   -4.9106282    4853.9455            2 
   41300    1.8520941   -4.9532526    4826.2519            1 
   41400     1.886872   -4.9308786    4813.9261            1 
   41500    1.8469315   -4.9700292     4828.524            1 
   41600    1.8193974   -4.9810431    4801.6177            2 
   41700     1.907668   -4.9847223    4779.0353            1 
   41800    1.8747296   -5.0124643    4813.8237            1 
   41900    1.8482911   -4.9965138    4816.8079            1 
   42000    1.8958132   -4.9367287    4814.6224            1 
   42100    1.8803834   -4.9477597    4829.6503            1 
   42200     1.837968   -4.9836966    4828.7595            2 
   42300    1.8932166   -4.9641891    4802.4002       -1e+20 
   42400    1.8476157   -5.0070743    4816.1186            1 
   42500    1.8700321   -5.0104711    4799.0383            1 
   42600    1.8826985   -4.9556292    4820.8324            2 
   42700    1.8534941     -4.95805    4831.6827            1 
   42800    1.8859698   -4.9187019    4844.4272            1 
   42900    1.8718807    -4.944248    4827.4953            1 
   43000    1.8701178   -4.9857239    4809.2122            1 
   43100    1.9110624     -4.97562    4840.2793            1 
   43200    1.8798336   -4.9515738    4829.6254            1 
   43300    1.8425217   -4.9221614    4814.9017       -1e+20 
   43400    1.8786473   -4.9065071    4871.9517       -1e+20 
   43500    1.8800056   -4.9410317    4828.1694            2 
   43600    1.8661691   -4.9372091    4800.1788            2 
   43700    1.8322962    -4.986516    4802.2421            1 
   43800    1.8600811   -4.9562956    4811.1703            1 
   43900    1.8714599   -4.9195733    4834.1321       -1e+20 
   44000      1.85027   -4.9664623     4840.618            1 
   44100    1.8905504   -5.0023997    4785.5953            1 
   44200    1.8552586   -4.9071494    4815.1329            2 
   44300    1.8528717   -4.9526659    4852.1658            3 
   44400    1.9071427   -4.9358205    4808.4237            1 
   44500     1.893326   -5.0020719    4815.7301            1 
   44600    1.8147611   -4.9897698    4821.0356            1 
   44700    1.9070195   -4.9651272    4772.4165            2 
   44800    1.8700598   -4.9607304    4825.9762            2 
   44900    1.8763391   -4.9757604     4847.562            1 
   45000    1.8774673   -4.9480935    4820.2201       -1e+20 
   45100    1.8829784   -4.9648812     4823.292            2 
   45200    1.8253636   -4.9479467    4804.6001            1 
   45300    1.9167905   -4.9932235    4816.0212            1 
   45400    1.8757352   -4.9853528    4825.2845            1 
   45500    1.8129749   -4.9335557    4825.2851            1 
   45600    1.9019475   -4.9309771    4821.9613            1 
   45700    1.8377287   -4.9358128    4814.5235            2 
   45800    1.8851072   -4.9253336      4816.54            1 
   45900    1.8538915   -4.9605249    4840.6528            2 
   46000    1.8712251   -5.0126521    4786.8102            1 
   46100     1.862146   -4.9845361     4798.711            1 
   46200    1.8709067   -5.0007847    4827.7547            1 
   46300     1.929827   -4.9450197    4826.7986            1 
   46400    1.9009485    -4.938368    4842.0275       -1e+20 
   46500    1.8465371   -4.9600884    4838.7935            1 
   46600    1.8839738   -4.9366834    4812.9375            2 
   46700    1.8760562   -4.9664984    4820.5824            2 
   46800    1.8640574   -4.9715297    4823.0936            1 
   46900    1.8646154    -5.013508    4789.5459            1 
   47000    1.8843681   -4.9345758    4822.6592            2 
   47100    1.8959185   -4.9198697    4836.5465            1 
   47200    1.8093345   -4.9138059    4831.1131            2 
   47300    1.9056503   -4.9554004    4801.2742            1 
   47400    1.8224827   -4.9554572    4800.1857            2 
   47500    1.8606248   -5.0075103    4798.4276            1 
   47600    1.8701943   -4.9316296    4800.5098            2 
   47700    1.8754845    -4.975594    4818.2507            5 
   47800     1.865711   -5.0096432    4789.4417            2 
   47900     1.898127   -4.9640313    4826.0635            1 
   48000    1.8736988   -4.9324582    4830.1944            1 
   48100    1.8361884   -4.9724606     4803.368            2 
   48200    1.8860212   -4.9902428    4809.5932            3 
   48300    1.8266555   -4.9901961    4805.8441            1 
   48400    1.8897131   -4.9805482    4796.4435       -1e+20 
   48500    1.8606723   -4.9050469    4832.9247            1 
   48600     1.835138   -4.9909682    4842.3424            2 
   48700     1.915067   -4.9954336    4778.1978       -1e+20 
   48800    1.8448688    -4.967023    4815.4422            1 
   48900    1.8490639   -4.9701097    4854.0442            1 
   49000    1.9069696   -4.9311608    4833.0347       -1e+20 
   49100    1.8658737   -4.9275508    4831.4021            1 
   49200    1.8892325   -4.9435727    4836.8123            1 
   49300    1.8280949   -4.9375193    4821.3181            1 
   49400    1.8943433   -4.9581117    4811.8022            1 
   49500    1.8809017   -4.9526243    4835.2817            1 
   49600    1.8682056   -4.9652034    4857.1793            1 
   49700    1.8534438   -4.9598112    4792.0305            2 
   49800    1.9009216   -5.0026774    4818.6472            1 
   49900    1.8552255   -4.9935965    4827.2389            1 
   50000    1.9215905   -4.9567767    4829.0163            1 
   50100    1.8547959   -4.8964831    4837.4891            1 
   50200    1.9230495   -4.9291221    4844.1786            2 
   50300    1.8738982   -4.9808211    4826.9984            2 
   50400    1.8578259   -4.9411687    4810.2129            1 
   50500    1.8951686   -4.9302406    4839.2754            1 
   50600    1.8482232   -4.9319367    4831.4575       -1e+20 
   50700    1.8444879   -4.9654565    4810.0875            1 
   50800    1.9250544   -4.9716706    4811.5703            1 
   50900    1.8502393   -4.9427752    4839.5826            1 
   51000    1.8811664   -4.9199752    4829.6425            1 
   51100    1.8402833     -4.94412    4792.6346            1 
   51200    1.8744891   -4.9662891    4820.8671            1 
   51300    1.8769101    -4.954574    4820.6096            1 
   51400    1.8831107   -5.0004344    4808.5118            2 
   51500    1.8816911   -4.9619045    4829.1033            1 
   51600     1.886289   -4.9611301    4844.6416            1 
   51700    1.8783254   -4.9979283    4801.8453            1 
   51800    1.8363775   -4.9610838     4797.558            1 
   51900     1.863718   -4.9445566    4833.3444            2 
   52000    1.8732956    -4.929284    4824.0861       -1e+20 
   52100    1.8392586   -4.9591448    4809.9733            2 
   52200    1.8871776   -4.9589393    4836.1977            1 
   52300    1.8601926   -4.9608851    4808.7492            2 
   52400    1.8801789   -5.0074305    4801.3707            1 
   52500    1.8729681    -4.959377    4849.7235            1 
   52600    1.8495397   -4.9313574    4809.7259            1 
   52700    1.9015248     -4.95659    4796.0498            1 
   52800    1.8482634   -4.9764727     4836.395            2 
   52900    1.8548418   -4.9956633    4796.9882            1 
   53000    1.8795524   -4.9577922    4799.1798            1 
   53100     1.905375   -4.9862671    4846.4456            1 
   53200    1.8689084   -4.9896831    4823.6447       -1e+20 
   53300    1.9018595   -4.9763771    4805.2787            1 
   53400    1.8522267   -4.9697424    4830.9944            1 
   53500    1.8538005   -4.9929434    4820.0716            2 
   53600      1.89227   -4.9375856    4818.6296            1 
   53700     1.858219   -4.9351149    4844.1947            1 
   53800    1.8883721   -4.9618339    4826.3444            3 
   53900    1.8648047   -4.9869336    4804.1413            3 
   54000    1.9280585   -4.9720579      4832.71            2 
   54100    1.8408139   -4.9033454    4840.6139            2 
   54200    1.9094426   -4.9566411    4810.6503            1 
   54300    1.8649626   -4.9892648    4827.7778            1 
   54400    1.8326539    -4.938112    4824.8789            1 
   54500    1.9022473   -4.9147693    4820.2315            2 
   54600     1.875547   -4.9294257    4840.7339            1 
   54700    1.8161605   -4.9295049     4835.535            1 
   54800    1.8904907   -4.9413555    4828.8738            1 
   54900    1.8729272   -4.9436855    4840.6624            1 
   55000    1.9052534   -4.9331165    4845.0041            1 
   55100    1.8628478   -4.9164691     4816.198            1 
   55200    1.8541104   -4.9458744    4821.7359            1 
   55300    1.8820172   -4.9821781    4818.4987            1 
   55400    1.8469313   -4.9538315    4816.6898            1 
   55500    1.8688046   -5.0011502    4791.7677            1 
   55600    1.8562208   -4.9484424    4817.3201            1 
   55700    1.8944409   -4.9250828     4828.857            2 
   55800    1.8147283    -4.937606    4836.3463            1 
   55900    1.8894366   -4.9971913    4835.0834            1 
   56000    1.8798772    -4.949914    4818.6247            1 
   56100    1.8420756   -4.9705474    4801.0298            3 
   56200    1.8770746   -4.9758374    4812.4916            1 
   56300    1.8709159   -4.9461321    4841.7987            1 
   56400    1.9041292   -4.9738481    4818.9354            1 
   56500    1.8291836    -4.923092    4826.9396            1 
   56600    1.9069118   -4.9380695    4820.6289            2 
   56700    1.8463744   -4.9513834    4812.7024            1 
   56800    1.8588542   -4.9679268    4819.2656            1 
   56900    1.9064015   -4.9384219    4847.0433            1 
   57000    1.8738212   -4.9337029    4816.6687            1 
   57100    1.8710638    -4.996505    4804.3593            1 
   57200    1.8894494   -5.0112825    4798.2579            1 
   57300    1.8700629   -4.9400053    4840.2203            1 
   57400    1.8789448   -4.9466195    4836.4117            1 
   57500    1.8712059   -4.9765326    4811.5555            1 
   57600    1.8918053    -4.991617    4806.3042            1 
   57700    1.8762829   -4.9531859    4839.0543            1 
   57800    1.9056597   -4.9406915     4828.612            1 
   57900    1.8520096   -4.9361963     4815.372            1 
   58000    1.8596277   -4.9972205    4810.6798            1 
   58100    1.8508213   -4.9737795    4791.5426            1 
   58200    1.8753617   -4.9641209    4825.9267            1 
   58300    1.8725338   -4.9993739    4831.8714            1 
   58400    1.8927222   -5.0152692    4780.1461            1 
   58500    1.8259653   -4.9795455     4809.468            1 
   58600    1.8793145   -4.9812543     4775.372            1 
   58700    1.8704185   -4.9871424    4784.5758            1 
   58800    1.8078336   -4.9492471    4828.2991            1 
   58900    1.8872512   -4.9210972    4826.4226            1 
   59000    1.8486186   -4.9464424    4824.8456            1 
   59100    1.8743822   -4.9468567    4830.6742            2 
   59200    1.8692378    -4.907664      4836.55       -1e+20 
   59300    1.8677637   -4.9484528    4805.9679            1 
   59400    1.8532233   -4.9890288    4824.6167            1 
   59500     1.878441   -4.9809857    4845.7629            2 
   59600     1.903835   -4.9165829    4816.7724            1 
   59700    1.8617616   -4.9641557    4848.4686            2 
   59800    1.8562083   -5.0160092    4797.8455            3 
   59900    1.8763742   -4.9755649      4781.98            1 
   60000    1.8858484   -4.9500473    4850.8526            1 
   60100    1.8629625   -4.9392772      4851.25            1 
   60200    1.8694226   -4.9308449    4790.9646            2 
   60300    1.8283193   -4.9386862    4828.9763            1 
   60400    1.8798847   -4.9771696    4843.6255            1 
   60500    1.8723779   -4.9663291    4812.0689            2 
   60600    1.8568813   -4.9683756    4796.1536       -1e+20 
   60700    1.8608537   -4.9173154     4839.597            1 
   60800    1.8762166   -4.9242108    4838.0572            3 
   60900    1.8389075   -4.9691706    4816.1737            1 
   61000    1.8839459   -4.9712537     4803.475            1 
   61100    1.8319637   -4.9597197     4797.188            1 
   61200    1.8886993   -4.9675853    4822.6213            1 
   61300    1.8670013   -4.9630819    4821.1434            1 
   61400    1.8724424   -4.9387561    4811.5572            1 
   61500    1.8812556    -4.958371    4843.9226            1 
   61600    1.8710079   -4.9594106    4828.8415            1 
   61700    1.8710136   -4.9298143    4806.4421            1 
   61800     1.868347   -4.8872413    4860.8812            1 
   61900    1.8743842   -4.9203505     4839.683            1 
   62000    1.8958533   -4.9470567    4819.1011            1 
   62100    1.8177214   -4.9677798    4831.0803            2 
   62200     1.900829   -5.0279632    4817.5828            1 
   62300    1.8954738   -4.9024059    4805.9049            1 
   62400    1.8462145   -4.9141957    4844.6585            1 
   62500    1.8605681   -5.0127165    4803.5218            1 
   62600    1.8715295   -4.9748367    4794.6981            1 
   62700    1.8801425   -4.9566937    4837.5355            1 
   62800    1.8682589   -4.9791498    4826.7447            2 
   62900    1.8920116   -4.9731434    4786.5112            1 
   63000    1.8477206   -4.9570496    4833.8554            1 
   63100    1.8227326   -4.9095435    4858.3585            1 
   63200     1.925197    -4.915812    4823.9309            1 
   63300    1.8791702   -4.9449807    4832.4904            1 
   63400    1.8593266   -4.9936027    4837.8098            1 
   63500    1.8964225   -4.9610921    4799.2274            1 
   63600    1.8323639   -4.9310309    4809.3708            1 
   63700     1.877905   -4.9629918    4825.2768            5 
   63800    1.8760591   -4.9548643    4810.1152            1 
   63900     1.844164   -4.9810744      4794.66            1 
   64000    1.8281963   -5.0111511     4796.809            2 
   64100    1.8724058   -4.9806187     4807.076            1 
   64200    1.8632283   -4.9547096    4824.7584            1 
   64300    1.9005253   -4.9654048    4810.1595            1 
   64400    1.8498807   -4.9564028    4785.5556            1 
   64500    1.8592843   -4.9768257    4830.3345            1 
   64600     1.844422   -4.9577316    4820.0697            1 
   64700     1.894748    -4.892981    4803.4175            1 
   64800    1.8550717   -4.9155052    4832.1341            2 
   64900    1.8673717   -4.9287226    4868.7839       -1e+20 
   65000     1.892983   -4.9168899    4840.4757            1 
   65100    1.8943595   -4.9495957    4812.0163            1 
   65200    1.8712675   -4.9915799    4830.9136            1 
   65300    1.8988753   -4.9757492    4829.3798            1 
   65400    1.8954242   -4.9315965    4842.0482       -1e+20 
   65500    1.8419358   -4.9480272    4833.7895            1 
   65600    1.8979751   -4.9745407    4829.4942            3 
   65700    1.8593248   -4.9303551    4827.5665            3 
   65800    1.8895961   -4.9651479    4833.0911            1 
   65900    1.8932906   -4.9644948    4823.6407            1 
   66000    1.8452275   -4.9564162    4815.8147            1 
   66100    1.8854844   -4.9513792    4825.3879            1 
   66200    1.8707482   -4.9628983    4834.3601            1 
   66300    1.8789774   -4.9351118    4814.9147            1 
   66400    1.8583391   -4.9546508    4825.3577       -1e+20 
   66500    1.8478232   -4.9230016    4826.1285            2 
   66600     1.917535    -4.898878    4823.2787       -1e+20 
   66700     1.881841   -4.9337335     4859.939            1 
   66800     1.858681   -4.9604214    4857.1264            1 
   66900    1.8931978   -4.9555149    4826.5038            1 
   67000    1.9045229   -4.9770299    4822.1715            1 
   67100    1.8460735   -4.9904051    4818.8967            1 
   67200    1.8813999   -4.9779011    4804.8164            2 
   67300    1.8986299   -4.9639264    4814.6541            1 
   67400    1.8428328   -4.9269681      4842.57            1 
   67500    1.9086322    -4.964211    4809.4344            1 
   67600    1.8636515   -5.0234234    4826.0129            1 
   67700    1.8820385   -4.9576943     4832.185            2 
   67800    1.8981102   -4.8810341    4838.1654            1 
   67900    1.8543337   -4.9287081    4813.0038            1 
   68000    1.8840175   -4.9993703    4832.0844            1 
   68100    1.8704436   -4.9618127    4835.4205            1 
   68200    1.8959763   -4.9230733    4818.5063            1 
   68300    1.8394934   -4.9348018    4809.6307            1 
   68400    1.8905175   -4.9463181    4845.6194            1 
   68500    1.8734924   -4.9428131    4816.0796            1 
   68600    1.8652511   -4.9531769    4801.6948            1 
   68700    1.9040106   -4.9422294     4827.489            1 
   68800     1.878698   -4.9707512    4833.9734            1 
   68900    1.8789273   -4.9819011    4808.4232            1 
   69000    1.8560124   -4.9663779    4789.3803            2 
   69100    1.8676665   -4.9971107    4822.7586            1 
   69200    1.8563649   -4.9174443     4835.039            2 
   69300    1.9543311   -4.9160875    4839.6549            1 
   69400    1.8717682   -4.9541001    4850.6007            1 
   69500    1.8660699   -4.9572412    4813.5457            1 
   69600    1.8577232   -4.9998265    4776.7819            1 
   69700    1.8474349   -5.0151072    4816.2224       -1e+20 
   69800    1.8762014   -4.9563043    4815.9174            1 
   69900    1.8906174   -4.9548308    4838.8601            2 
   70000    1.8709113    -4.930415     4850.999            1 
   70100    1.9038306   -4.9767226     4797.211            1 
   70200    1.8109098   -4.9487809    4825.6781       -1e+20 
   70300    1.8521636   -4.9152212    4838.8499            2 
   70400    1.9026216   -4.9054018     4845.042            2 
   70500    1.8514519   -4.9272827    4835.5611            1 
   70600    1.9099891   -4.9665471    4824.9666            1 
   70700    1.8609523   -4.9733778    4847.8192            1 
   70800    1.8462774   -4.9691728    4775.5821            1 
   70900     1.855699   -4.9730242    4812.4437            1 
   71000    1.8649205   -4.9922152    4812.9069            1 
   71100    1.8814662   -4.9762089    4783.4897            1 
   71200    1.8829818   -4.9379776    4853.7419            1 
   71300    1.8853273    -4.938436    4824.3949            1 
   71400    1.8835459   -4.9738605     4821.096            1 
   71500    1.8601547   -4.9972574    4814.9374            1 
   71600    1.8653584   -4.9566217    4811.8375            1 
   71700    1.8795379   -4.9166749    4832.9279            1 
   71800    1.8307489   -4.9126175     4819.224            1 
   71900    1.8629944   -4.9603947    4808.0801            1 
   72000    1.8646915   -4.9519924    4803.1487            2 
   72100    1.8718347   -5.0349285    4812.1894            3 
   72200     1.882301    -5.009834    4812.7716            1 
   72300     1.887162   -4.9740119     4801.407            1 
   72400    1.8482901   -4.9927129    4806.4894            1 
   72500    1.8642942   -4.9776461    4819.9027            1 
   72600     1.879936   -4.9094686     4815.204            1 
   72700    1.8408539   -4.9628721     4822.146            1 
   72800    1.8903409   -4.9884391    4784.9038            1 
   72900    1.8700797   -5.0009284     4807.525            1 
   73000    1.8476918   -4.9839802    4820.9378            2 
   73100    1.8645891   -4.9849134    4794.7999            1 
   73200    1.9130527   -4.9687474    4835.8348            1 
   73300    1.8560036   -4.9739283    4859.0635            3 
   73400    1.8502306   -4.9729309    4787.0884            1 
   73500    1.8613604   -4.9643017    4802.6548            2 
   73600    1.8660718   -4.9310775    4855.3061            2 
   73700    1.8862773     -4.95542    4852.4083            1 
   73800    1.8754495   -4.9719818    4795.3514            2 
   73900    1.8786528    -4.985445    4818.3883            1 
   74000    1.8548075   -4.9494306    4833.5683       -1e+20 
   74100    1.8900788   -4.9869387     4799.852            1 
   74200     1.826206   -4.9742362    4792.4116            1 
   74300    1.8775146    -4.957159    4808.5929            1 
   74400    1.8778147   -4.9686243    4819.6994            2 
   74500     1.855417   -4.9755188    4824.2705            1 
   74600    1.9149057     -4.99404    4775.0471            1 
   74700     1.825446   -4.9874576    4818.9916            1 
   74800    1.8560649   -4.9720232    4838.4462            2 
   74900    1.9353859   -4.9546282    4823.8982            1 
   75000    1.8686282   -4.9728432    4839.3251            1 
   75100    1.8805968   -5.0163104    4802.7816            2 
   75200    1.8422484     -4.97818     4779.302            2 
   75300    1.8801209   -4.9786309    4814.7965            1 
   75400    1.8562186   -4.9751576    4812.3036            1 
   75500    1.8776935   -4.9995251     4793.821            1 
   75600    1.8703491   -4.9586558    4847.1762            1 
   75700    1.9090611   -4.9306059    4821.4059            1 
   75800    1.8625973   -4.9725414    4841.3588            1 
   75900     1.832575   -4.9451993    4840.7886       -1e+20 
   76000    1.9002774   -4.9004846    4818.1228            1 
   76100    1.8765148   -4.9567375    4813.5208            1 
   76200    1.8581444    -4.989245    4810.1527            2 
   76300    1.8577222   -5.0120149    4778.0128            1 
   76400    1.8529536   -4.9942645    4810.6877            1 
   76500    1.8743994   -4.9605621    4801.4659            1 
   76600     1.858816   -4.9430151    4825.2538            1 
   76700    1.8779881   -4.9474721    4847.8515            2 
   76800    1.8373275   -4.9619822    4811.5379            2 
   76900    1.8479299   -4.9536371    4788.8547            1 
   77000    1.8671228   -4.9441492    4835.4964            1 
   77100    1.8622794   -4.9779715    4863.2001            1 
   77200    1.8834719   -4.9766476     4775.652            1 
   77300    1.8571973   -4.9792208    4778.3482            2 
   77400    1.8629989   -4.9812562    4807.6469            1 
   77500    1.8328803    -4.987311    4802.9336            2 
   77600    1.8729817   -4.9411631    4810.7939            1 
   77700    1.8666799   -4.9372008    4806.8414            1 
   77800    1.8441888   -4.9804059    4834.7525            3 
   77900    1.9019441   -4.9882161    4830.7401            2 
   78000    1.8735015   -4.9382901    4825.7734       -1e+20 
   78100    1.8501854   -4.9340746    4833.0805            1 
   78200    1.8888656   -4.9455066    4794.4267            1 
   78300    1.8526645   -4.9399202     4838.764       -1e+20 
   78400    1.8701435   -4.9532451     4833.413            1 
   78500    1.8955868   -4.9793464    4789.1575       -1e+20 
   78600     1.845205   -5.0172388    4816.8303            1 
   78700    1.8440527   -4.9658617    4845.6355            3 
   78800    1.8723489   -4.8839003    4814.0468            1 
   78900     1.886811    -4.961601    4826.0863            1 
   79000    1.8329558   -4.9606838    4823.3567            1 
   79100    1.8832905   -4.9395012    4829.9237            2 
   79200    1.9018799   -4.9494006    4813.9676            2 
   79300    1.8353252    -4.956249    4822.6704            1 
   79400    1.8963705   -4.9583791    4812.9359            1 
   79500    1.8449526   -4.9910724    4820.8309            1 
   79600    1.8811355   -4.9596487    4846.9716            3 
   79700    1.8835924   -4.9428572    4801.7826            1 
   79800    1.8577337   -4.9636239    4819.7927            1 
   79900    1.8598471   -4.9194058     4834.509            1 
   80000    1.9170603   -4.9391708    4817.7241            1 
   80100    1.8722292   -4.9859112    4815.1451       -1e+20 
   80200    1.8451528   -4.9595056    4828.9573            1 
   80300    1.8924198   -4.9443185    4816.3699            2 
   80400    1.8748509   -5.0098332    4803.7396       -1e+20 
   80500    1.8442886   -5.0017844    4829.1791            2 
   80600    1.8938901   -4.9435507    4803.9795            1 
   80700    1.8531358   -4.9514946    4817.2897            1 
   80800    1.8728046   -4.9642143    4826.8523            1 
   80900    1.8461688   -4.9453426    4777.8616            2 
   81000    1.8378987   -4.9470694     4839.324            1 
   81100    1.8815013   -4.9620754    4807.7991            1 
   81200    1.8559033   -4.9713249    4781.1781            1 
   81300    1.8330184    -4.988075    4807.9681            1 
   81400    1.8494739   -4.9572513    4818.7378            1 
   81500    1.9100084   -4.9576942    4814.3694            1 
   81600    1.8565787   -4.9419003    4840.6708            1 
   81700    1.8406242   -4.9846563    4787.9819            1 
   81800    1.8887923   -4.9929521    4800.5075            1 
   81900    1.8653844   -4.9683448    4819.0448       -1e+20 
   82000    1.8616811   -4.9619821    4817.4334            2 
   82100    1.8501068   -4.9870961    4794.6221            1 
   82200    1.8882127   -4.9744319    4823.3392            2 
   82300    1.8722215   -4.9366902    4808.8979       -1e+20 
   82400    1.8667826   -4.8997161    4816.2343            1 
   82500    1.8435711   -4.9479199    4846.1981            1 
   82600    1.8749568   -4.9424164    4817.5005       -1e+20 
   82700    1.9156488   -4.9687165     4820.362            1 
   82800    1.8459973   -4.9718628    4791.3838            1 
   82900    1.8770538   -4.9577424    4810.3635            1 
   83000    1.8619303   -4.9768998    4826.8632            2 
   83100    1.8889807   -4.9268624    4804.8649            1 
   83200    1.8441184   -4.9904117    4820.3474            2 
   83300    1.8329353   -5.0184994    4797.9829            1 
   83400    1.8652741   -4.9539533    4777.7847            2 
   83500    1.8669792   -4.9665432    4820.4521            1 
   83600    1.8646233   -4.9325207    4833.8502            1 
   83700     1.866466   -4.9402671    4813.2566            1 
   83800    1.8183577   -4.9741375    4795.5085            1 
   83900    1.8393662    -4.988887    4817.4196            2 
   84000    1.8757026   -4.9401521    4810.2083            1 
   84100    1.8739444   -4.9621977    4827.3288            3 
   84200    1.8024891   -4.9258659    4810.1136            1 
   84300    1.8818793   -4.9529804    4811.0517            1 
   84400    1.8531114   -4.9832752    4811.0466            1 
   84500      1.86147   -4.9830504    4800.4806       -1e+20 
   84600    1.8859465   -4.9416726    4795.3068            2 
   84700    1.8519072   -4.9629407    4826.1695            1 
   84800    1.8817651   -4.9510459    4840.5794            2 
   84900    1.8647791   -4.9344744    4815.8532            1 
   85000    1.8582751   -4.9617482    4805.7662            1 
   85100    1.8620121   -4.9411705    4825.9402            1 
   85200    1.8703627   -4.9285619    4794.5395            1 
   85300    1.8780534   -4.9560187    4839.0458       -1e+20 
   85400    1.8272336   -4.9465843    4819.8924            1 
   85500    1.8900057   -4.9419244    4800.5062            1 
   85600    1.8686256   -4.9732638    4819.1296            1 
   85700    1.8788455   -4.9595349    4827.6848            1 
   85800    1.8802761   -4.9256599    4831.8106            1 
   85900    1.8917975    -4.925113    4853.1908            1 
   86000    1.8839417   -4.9324792    4865.2478            1 
   86100    1.8886756    -4.966643    4790.6839            1 
   86200    1.8581667   -4.9965667    4800.1362            2 
   86300    1.9036991   -5.0071077    4825.2214            1 
   86400    1.8635192   -5.0188998    4810.8544            1 
   86500    1.8837151   -5.0329427    4789.6721            2 
   86600    1.8651593   -4.9855803    4788.6707            3 
   86700    1.8910035   -4.9656566    4819.7305            1 
   86800    1.8421179   -4.9140872    4849.5018            1 
   86900    1.9247903   -4.9417759    4843.4059            1 
   87000    1.8759809   -4.9537019    4858.4863            1 
   87100    1.9241722   -4.9329348    4840.3138            2 
   87200    1.8509133   -4.9264162    4806.1261            1 
   87300    1.8604297   -4.9802865    4841.2115            2 
   87400    1.9019056   -4.9441958    4821.1304            1 
   87500    1.8295978   -4.9065777    4812.3259            1 
   87600    1.8699786   -5.0069079    4832.3718            2 
   87700    1.9094287   -4.9755953    4821.1842            1 
   87800    1.8579023   -4.9857014    4804.1142            1 
   87900    1.8517015   -4.9766161    4834.6475            1 
   88000    1.9096633   -4.9493801    4793.9898            1 
   88100    1.8308232   -4.9519601    4823.5847            3 
   88200    1.8816529   -4.9682705     4835.661            1 
   88300    1.9046217   -4.9549313    4810.3634            1 
   88400    1.8554998   -4.9709365    4822.4448            1 
   88500    1.9155454   -5.0062881    4834.9461            1 
   88600    1.8647696   -4.9978512    4819.4568            2 
   88700    1.8806559   -4.9457776    4846.1225            1 
   88800    1.8804937   -4.9262242    4797.3204       -1e+20 
   88900    1.8587217   -4.9861776    4819.7972            2 
   89000    1.8915754   -4.9744134    4841.1029            2 
   89100    1.8526428   -4.9682013    4799.5968            1 
   89200    1.8658104   -4.9609232    4808.8804            1 
   89300    1.8590792   -4.9170375    4841.6764            1 
   89400    1.8751043   -4.9622431    4816.0711            1 
   89500    1.8747838   -4.9640805    4805.5053            1 
   89600    1.9015499   -4.9578545    4841.3971            1 
   89700    1.8765182   -4.9941702    4792.8221            1 
   89800    1.8640398   -5.0349169    4791.7389            2 
   89900    1.8927935   -4.9950896    4816.0461            1 
   90000    1.8889032   -4.9878037    4821.1701            1 
   90100    1.8426092   -4.9924945    4794.7513            2 
   90200    1.8747253    -4.991992     4821.159            2 
   90300    1.8731886   -4.9586444    4818.1655            1 
   90400    1.9343049   -4.9549322    4807.2489            1 
   90500    1.8138477   -4.9361385    4856.8202            2 
   90600    1.8812871   -4.9136474    4822.6476            2 
   90700    1.8742809   -4.9651184    4816.1568            2 
   90800    1.8302755   -4.9895352    4798.5153            1 
   90900    1.8709857   -4.9815359    4827.6535            1 
   91000    1.8906827   -4.9286236    4819.3271            1 
   91100    1.8291445   -4.9496481    4833.6214            1 
   91200    1.9226066   -4.9821766    4835.6546            1 
   91300    1.8862214   -4.9247291    4838.0786            1 
   91400     1.833371   -4.9198691    4846.0843            1 
   91500      1.88618   -4.9806136    4787.2926            2 
   91600    1.8415322   -4.9701893    4797.9009            1 
   91700    1.8761602   -4.9692655    4838.8291            1 
   91800    1.8935754   -4.9630395    4836.8068            1 
   91900    1.8577764   -4.9708706    4798.3366            2 
   92000    1.7978454   -4.9694218    4811.0924            2 
   92100     1.909995   -5.0088285    4808.9984            1 
   92200    1.8594706   -4.9702451    4829.1863            1 
   92300    1.8932443    -4.922784     4842.738            1 
   92400     1.876336   -4.9491048     4834.841            2 
   92500     1.848534   -4.9857721    4801.4994            5 
   92600     1.877166   -5.0048927     4805.264       -1e+20 
   92700    1.8930473   -4.9659107    4829.0797            1 
   92800    1.8682908   -4.9354476    4830.0175       -1e+20 
   92900    1.8666964   -4.9403167    4829.5942            1 
   93000    1.8651177   -4.9745576    4804.4908            2 
   93100     1.824295   -4.9813512    4774.7008            1 
   93200    1.8396925    -4.981211    4787.1149            3 
   93300    1.8710676   -4.9345516    4822.9051            1 
   93400    1.8470734   -4.9276931    4856.7742            1 
   93500    1.9108205   -4.9711978    4825.6227            2 
   93600    1.8885461   -5.0019738    4805.7662            1 
   93700    1.8479248   -4.9792759    4801.8366       -1e+20 
   93800    1.8381388   -4.9685166    4797.7414            2 
   93900    1.8765625   -4.9622712    4827.2872       -1e+20 
   94000    1.8430088   -4.9816772    4792.0753            1 
   94100    1.8789358   -4.9708867     4810.297            1 
   94200    1.8736518   -4.9683123    4819.1478            2 
   94300     1.867945   -4.9600565    4831.8769            2 
   94400    1.8799963   -4.9606175    4813.6446            1 
   94500    1.8814423   -4.9700523    4810.6926            1 
   94600    1.8464306   -4.9906969    4841.6573            1 
   94700    1.9058229   -4.9358585    4801.2011            1 
   94800    1.8646097   -4.9441987    4825.4253            1 
   94900    1.8242815   -4.9843637    4827.8075            1 
   95000    1.8793159   -4.9412508    4815.0877            3 
   95100    1.8425187   -4.9462696    4799.9692            1 
   95200    1.8473424   -5.0243519    4786.3513            1 
   95300    1.8423325   -4.9798906    4821.5987            1 
   95400     1.893089   -4.9548854    4810.6122            1 
   95500    1.8337796   -4.9367956     4835.156            2 
   95600    1.8893977    -4.940253    4823.6849            4 
   95700    1.8598705   -4.9637153    4800.6843            1 
   95800    1.8454081   -5.0174177    4786.8746            1 
   95900    1.8447642    -4.962412    4817.1559            1 
   96000    1.8941685   -4.9340698     4811.904            1 
   96100    1.8223173   -4.9461188    4841.6606            2 
   96200    1.8937661   -4.9299994    4832.7402            1 
   96300     1.871198   -4.9537689    4816.6785            1 
   96400    1.8903239   -4.9761813    4812.4487            1 
   96500    1.8564184   -5.0102743    4823.5671            2 
   96600    1.8888997   -5.0000901    4815.7436            1 
   96700     1.851632   -4.9321177    4775.9916            1 
   96800    1.8833268   -4.9547915    4844.2055            1 
   96900    1.8645353   -4.9877189    4833.4725            1 
   97000    1.8658532   -5.0251875    4780.6445            1 
   97100    1.8520664   -4.9905547    4789.3817            1 
   97200    1.8804362   -4.9664265    4802.3129            1 
   97300    1.8445807   -4.9615865    4824.0211            1 
   97400     1.886307   -4.9430456    4830.0388            2 
   97500    1.8626715   -4.9207126    4804.4533            2 
   97600     1.851971   -4.9913826    4804.7407            1 
   97700     1.862835   -4.9409428    4814.6268            1 
   97800    1.8694778   -4.9647453    4825.7869            1 
   97900    1.8487023   -4.9535162    4811.1971            1 
   98000    1.9033873   -4.9741046    4796.5174            1 
   98100    1.8228315   -4.9691071    4828.9238            1 
   98200    1.9168844   -5.0058621    4809.5502            1 
   98300    1.8599118    -4.946246    4802.2883            1 
   98400    1.8196308   -4.9783597    4808.5548            1 
   98500    1.8586482    -4.944293    4802.0304            1 
   98600     1.901379    -4.972069    4822.9051       -1e+20 
   98700    1.8272027   -4.9753186    4814.4736            1 
   98800    1.9062597    -4.989722    4796.6781       -1e+20 
   98900    1.8341651   -4.9610037    4814.8254            2 
   99000    1.8866639   -5.0394941    4808.5739            2 
   99100    1.8680239   -4.9243275    4833.1351            1 
   99200    1.9055357   -4.9703311    4828.6646            2 
   99300    1.8573801   -4.9657823    4811.5212            1 
   99400    1.7828045   -4.9292264    4814.2472       -1e+20 
   99500      1.90007   -4.9413768    4801.2534            1 
   99600     1.859578   -4.9896507    4832.3259            1 
   99700    1.8838777   -4.9703581    4822.2401       -1e+20 
   99800    1.8846265   -4.9728578    4809.0014            2 
   99900    1.8287877   -4.9677617     4794.604            3 
  100000    1.8666669   -4.9543824    4843.7446            1 
  100100    1.8711696   -4.8913837    4830.9321            1 
  100200     1.855465   -4.9702973    4807.4319            1 
  100300    1.8478874   -5.0009468    4824.6592            2 
  100400    1.8818292   -4.9320585    4838.5681            1 
  100500    1.8839514   -4.9336065    4805.9868            1 
  100600    1.8553074   -4.9701095    4821.7446            2 
  100700    1.8849982    -4.976371    4850.0999            1 
  100800    1.8939996   -4.9859581    4801.4005            2 
  100900    1.8684971   -4.9520441    4832.9423            1 
  101000    1.8475223   -4.9446428     4829.781            1 
  101100    1.9353297   -4.9402104     4810.655            1 
  101200    1.8728312   -4.9475087    4821.9915       -1e+20 
  101300    1.8319396    -4.930622    4849.3444            1 
  101400    1.8753047   -4.9143659    4832.2656            1 
  101500    1.8759896   -4.9473271    4789.0603            1 
  101600    1.8547463   -4.9849466    4796.8076            1 
  101700    1.8541426   -4.9477678    4835.6569            1 
  101800    1.8902276   -4.9211053    4830.5264            1 
  101900    1.8760435   -4.9754958    4798.9599            1 
  102000    1.8448582   -4.9953505    4786.2574            1 
  102100    1.8455531   -4.9197315    4812.7138            1 
  102200    1.8923441   -4.9483337    4832.1671            1 
  102300    1.8385647   -4.9401089    4824.5172            1 
  102400    1.9026907   -4.9904042    4808.1607            1 
  102500    1.8299051   -4.9703275    4835.4204            1 
  102600    1.8988943    -4.957464    4800.6252            1 
  102700    1.8734906   -4.9356982     4808.386            1 
  102800    1.8277474   -4.9402742     4858.483            1 
  102900    1.9216871   -4.9426117    4827.8398            3 
  103000    1.8918669     -4.96565    4816.2017            1 
  103100    1.8779747   -5.0130518    4806.6421            2 
  103200    1.8253796    -4.952458     4808.958            1 
  103300    1.9252469   -4.9925489    4802.6897            1 
  103400    1.8530819   -4.9603801    4830.6844            1 
  103500    1.8702215   -4.9249195    4813.0207            1 
  103600    1.8699176   -4.9568752    4821.7647            2 
  103700    1.8688691    -4.987934    4820.9607            1 
  103800    1.8620078   -4.9848568    4790.5172            2 
  103900    1.9023996   -4.9982068    4816.3804            1 
  104000    1.8668596   -4.9420626     4831.234            1 
Loop time of 323.392 on 20 procs for 100000 steps with 4000 atoms

Performance: 53433.609 tau/day, 309.222 timesteps/s
99.9% CPU use with 20 MPI tasks x no OpenMP threads

MPI task timing breakdown:
Section |  min time  |  avg time  |  max time  |%varavg| %total
---------------------------------------------------------------
Pair    | 25.339     | 27.159     | 28.757     |  19.5 |  8.40
Neigh   | 4.6899     | 4.9195     | 5.3602     |   7.3 |  1.52
Comm    | 13.8       | 15.864     | 19.201     |  38.7 |  4.91
Output  | 5.6412     | 5.6424     | 5.6577     |   0.1 |  1.74
Modify  | 265.28     | 267.25     | 268.8      |   6.1 | 82.64
Other   |            | 2.555      |            |       |  0.79

Nlocal:        200.000 ave         210 max         191 min
Histogram: 2 1 0 6 4 1 2 0 3 1
Nghost:        2145.60 ave        2162 max        2121 min
Histogram: 1 1 1 4 1 2 2 2 1 5
Neighs:        18895.7 ave       21056 max       17049 min
Histogram: 2 1 2 3 3 3 4 1 0 1
FullNghs:      37792.8 ave       39915 max       35844 min
Histogram: 3 0 2 3 3 3 0 3 2 1

Total # of neighbors = 755855
Ave neighs/atom = 188.96375
Neighbor list builds = 8090
Dangerous builds = 123

#clear
#
#next RN
#
#jump SELF
Total wall time: 0:05:25
