
units lj                  # Use reduced LJ style units
atom_style atomic         # Uncharged point particles
atom_modify map hash      # Needed for indexing of clusters etc
                          # Used to be able to find where atoms are in relation to each other.

# Define a lattice with which to populate the simulation cell. With units
# set to 'lj' the second argument to the lattice command is the reduced
# density rho* and the spacings are multiples of that required to acheive
# that density. Also define a simulation cell called 'box' in lattice units
# and fill it with atoms. Here we're creating a box which is ten lattice
# constants in each direction.
lattice fcc 1.0 spacing 1 1 1                 # All equal sizes - gives the right reduced density.
Lattice spacing in x,y,z = 1.5874011 1.5874011 1.5874011

region box block 0 10 0 10 0 10 units lattice # Defines a region, "box", in lattice units
create_box 1 box                              # Creates a simulation box as specified above,
Created orthogonal box = (0.0000000 0.0000000 0.0000000) to (15.874011 15.874011 15.874011)
  2 by 3 by 3 MPI processor grid
                                              # with one type of atom
create_atoms 1 box                            # Creates particles on lattice points
Created 4000 atoms
  using lattice units in orthogonal box = (0.0000000 0.0000000 0.0000000) to (15.874011 15.874011 15.874011)
  create_atoms CPU = 0.001 seconds


# Set the mass of the first (and only) atom type.
mass 1 1.0

# Lennard-Jones interactions between particles, 3.5 sigma cut-off. Apply
# long range tail corrections to energy and pressure and set all coefficients
# to unity since we work in reduced units here. Note that this doesn't shift
# the potential such that it goes to zero at the cutoff. That would require
# pair_modify('shift', 'yes').
pair_style lj/cut  3.5      # non-GPU version
pair_modify tail  yes
pair_coeff 1  1  1.0  1.0   # Intearaction between 1 and 1 set with epsilon = 1 and sigma = 1

write_data data.*
System init for write_data ...
Neighbor list info ...
  update every 1 steps, delay 10 steps, check yes
  max neighbors/atom: 2000, page size: 100000
  master list distance cutoff = 3.8
  ghost atom cutoff = 3.8
  binsize = 1.9, bins = 9 9 9
  1 neighbor lists, perpetual/occasional/extra = 1 0 0
  (1) pair lj/cut, perpetual
      attributes: half, newton on
      pair build: half/bin/atomonly/newton
      stencil: half/bin/3d
      bin: standard

#############################
#   M E L T   S Y S T E M   #
#############################

velocity all create 2.4 6229865 mom yes dist gaussian # Assign velocities
                                                    # Temperature 2.4, random number seed, zero linear momentum
						                                                        # Gaussian distribution

timestep 0.002   # simulation timestep
thermo 100       # output thermodynamic data every 100 steps

# Define a fix  in this case with index 1 applied to all
# particles in the simulation. This fix is for simulations
# in the anisotropic NPT ensemble. Note that we use the MTK
# correction.
fix 1 all npt temp 2.4 2.4 0.1 iso 5.68 5.68 0.5 mtk yes tchain 5 pchain 5 # Use NPT ensemble
                                                                         # Set temperature and pressure and damping
                                                                         # Numbers of thermostats in chain and in barostat
run 1000         # run for 10000 steps
Per MPI rank memory allocation (min/avg/max) = 3.680 | 3.683 | 3.691 Mbytes
Step Temp E_pair E_mol TotEng Press Volume 
       0          2.4   -8.3859253            0   -4.7868253   -2.2405722         4000 
     100    1.2536957    -6.512639            0   -4.6325656     5.478955    4089.9923 
     200    1.4643499   -6.2844612            0   -4.0884856    6.2225923    4132.6721 
     300    1.5613501   -5.9933187            0    -3.651879    5.8912714    4272.8847 
     400    1.6731008   -5.7064704            0   -3.1974466    5.7980079    4409.8935 
     500    1.7993987   -5.4325725            0   -2.7341491    5.8329956     4543.536 
     600    1.8982906   -5.1495669            0   -2.3028429    5.9004247    4690.6414 
     700    1.9845076   -4.8772598            0   -1.9012426    5.8338611    4846.8673 
     800    2.1343222   -4.6883289            0   -1.4876459    5.9300075    4961.2015 
     900    2.2685415   -4.5564143            0   -1.1544528    5.7429537    5072.3143 
    1000    2.3671174   -4.4804745            0  -0.93068614    5.6609343    5154.7975 
Loop time of 0.557437 on 18 procs for 1000 steps with 4000 atoms

Performance: 309990.102 tau/day, 1793.924 timesteps/s
99.6% CPU use with 18 MPI tasks x no OpenMP threads

MPI task timing breakdown:
Section |  min time  |  avg time  |  max time  |%varavg| %total
---------------------------------------------------------------
Pair    | 0.31978    | 0.34335    | 0.36124    |   2.1 | 61.59
Neigh   | 0.062137   | 0.064413   | 0.067605   |   0.6 | 11.56
Comm    | 0.10388    | 0.12154    | 0.14411    |   3.4 | 21.80
Output  | 0.00022718 | 0.00023445 | 0.00029456 |   0.0 |  0.04
Modify  | 0.021752   | 0.024985   | 0.028654   |   1.4 |  4.48
Other   |            | 0.002916   |            |       |  0.52

Nlocal:        222.222 ave         231 max         210 min
Histogram: 3 0 0 2 1 3 2 2 2 3
Nghost:        2031.00 ave        2048 max        2016 min
Histogram: 5 0 1 2 1 2 2 0 3 2
Neighs:        19717.1 ave       21073 max       18338 min
Histogram: 2 1 0 3 2 3 4 0 2 1

Total # of neighbors = 354908
Ave neighs/atom = 88.727000
Neighbor list builds = 86
Dangerous builds = 21

# Equilibrate just above the melting temperature to avoid step fn in T

fix 1 all npt temp 1.25 1.25 0.1 iso 5.68 5.68 0.5 mtk yes tchain 5 pchain 5
run 1000
Per MPI rank memory allocation (min/avg/max) = 3.680 | 3.684 | 3.691 Mbytes
Step Temp E_pair E_mol TotEng Press Volume 
    1000    2.3671174   -4.4804745            0  -0.93068614    5.6609343    5154.7975 
    1100    1.9173858   -4.6307779            0   -1.7554183    5.8554728    4996.3129 
    1200    1.7477579   -4.9829542            0   -2.3619728    5.5796831    4810.9499 
    1300    1.5893104   -5.2408705            0   -2.8575008    5.3451318    4689.7353 
    1400    1.4556711   -5.4006503            0   -3.2176895    5.5642329    4570.8156 
    1500     1.383129   -5.5543358            0   -3.4801609    5.7098519    4482.8499 
    1600    1.3162446   -5.6665882            0    -3.692715    5.5319197    4440.3115 
    1700      1.25084   -5.7143969            0    -3.838606    5.6852524    4398.4145 
    1800    1.2626026   -5.7931589            0   -3.8997285    5.8005288    4354.9947 
    1900    1.2551594   -5.8434232            0   -3.9611548    5.6726084    4344.7346 
    2000    1.2750099   -5.8609224            0   -3.9488856     5.652703    4341.0224 
Loop time of 0.541053 on 18 procs for 1000 steps with 4000 atoms

Performance: 319377.061 tau/day, 1848.247 timesteps/s
99.7% CPU use with 18 MPI tasks x no OpenMP threads

MPI task timing breakdown:
Section |  min time  |  avg time  |  max time  |%varavg| %total
---------------------------------------------------------------
Pair    | 0.32618    | 0.34349    | 0.36041    |   1.8 | 63.49
Neigh   | 0.055028   | 0.056703   | 0.057836   |   0.4 | 10.48
Comm    | 0.096652   | 0.11228    | 0.12733    |   2.8 | 20.75
Output  | 0.00023188 | 0.00024156 | 0.00030048 |   0.0 |  0.04
Modify  | 0.022996   | 0.025085   | 0.029064   |   1.3 |  4.64
Other   |            | 0.003253   |            |       |  0.60

Nlocal:        222.222 ave         236 max         215 min
Histogram: 4 1 4 4 1 1 2 0 0 1
Nghost:        2242.33 ave        2259 max        2218 min
Histogram: 1 1 0 3 1 1 4 3 1 3
Neighs:        23367.4 ave       25065 max       22106 min
Histogram: 2 2 3 2 3 3 0 0 2 1

Total # of neighbors = 420613
Ave neighs/atom = 105.15325
Neighbor list builds = 75
Dangerous builds = 5


# Small amount of linear quench

fix 1 all npt temp 1.25 ${temp} 0.1 iso 5.68 5.68 0.5 mtk yes tchain 5 pchain 5
fix 1 all npt temp 1.25 0.79 0.1 iso 5.68 5.68 0.5 mtk yes tchain 5 pchain 5
run 2000
Per MPI rank memory allocation (min/avg/max) = 3.680 | 3.684 | 3.691 Mbytes
Step Temp E_pair E_mol TotEng Press Volume 
    2000    1.2750099   -5.8609224            0   -3.9488856     5.652703    4341.0224 
    2100     1.210205   -5.8329515            0   -4.0180979    5.8279442    4332.2295 
    2200    1.2280955   -5.8845831            0   -4.0429003    5.7856791    4314.1356 
    2300    1.1899152    -5.885502            0   -4.1010755    5.7514783    4313.8439 
    2400    1.1640059   -5.9339241            0   -4.1883517    5.7165431    4296.7569 
    2500    1.1421742   -5.9478152            0   -4.2349823    5.8010682    4280.8723 
    2600    1.1475871   -6.0381004            0   -4.3171501    5.5619013    4264.2961 
    2700    1.1029291   -6.0650249            0   -4.4110448    5.6460055    4245.0123 
    2800    1.0852303   -6.0884707            0   -4.4610322    5.7762446    4225.0746 
    2900    1.0757984   -6.1141701            0   -4.5008759    6.0040949    4195.3515 
    3000    1.0449816   -6.1547179            0   -4.5876373    5.8246517     4191.033 
    3100    1.0114166   -6.1890402            0   -4.6722946     5.702009    4183.3746 
    3200   0.99042683   -6.2312995            0   -4.7460307    5.6333394    4168.7587 
    3300   0.97360982   -6.2685411            0   -4.8084915    5.6634123    4151.3595 
    3400   0.94070141   -6.2999531            0   -4.8892537    5.5891472    4143.5154 
    3500   0.94070438    -6.354152            0   -4.9434481    5.7094644    4116.6806 
    3600   0.91465314   -6.4000034            0   -5.0283667    5.6299185    4104.3193 
    3700   0.88300462     -6.42289            0   -5.0987142    5.6939569    4088.1146 
    3800   0.84843649   -6.4438233            0   -5.1714867    5.7273922     4076.008 
    3900   0.84766125    -6.509006            0    -5.237832    5.6818334    4054.9979 
    4000   0.82095828   -6.5430608            0   -5.3119313    5.7531372    4037.6482 
Loop time of 1.11704 on 18 procs for 2000 steps with 4000 atoms

Performance: 309388.474 tau/day, 1790.443 timesteps/s
99.8% CPU use with 18 MPI tasks x no OpenMP threads

MPI task timing breakdown:
Section |  min time  |  avg time  |  max time  |%varavg| %total
---------------------------------------------------------------
Pair    | 0.70559    | 0.74741    | 0.77595    |   2.6 | 66.91
Neigh   | 0.090924   | 0.093553   | 0.095644   |   0.4 |  8.38
Comm    | 0.1904     | 0.2185     | 0.25423    |   4.1 | 19.56
Output  | 0.00043559 | 0.00044978 | 0.00057742 |   0.0 |  0.04
Modify  | 0.043576   | 0.049599   | 0.059297   |   2.1 |  4.44
Other   |            | 0.007524   |            |       |  0.67

Nlocal:        222.222 ave         230 max         215 min
Histogram: 1 0 3 1 6 1 2 1 2 1
Nghost:        2343.28 ave        2356 max        2325 min
Histogram: 2 1 0 3 0 3 0 4 1 4
Neighs:        25236.6 ave       26839 max       23389 min
Histogram: 1 1 2 3 1 2 1 5 0 2

Total # of neighbors = 454259
Ave neighs/atom = 113.56475
Neighbor list builds = 119
Dangerous builds = 0

#############################
# F R E E Z E  S Y S T E M  #
#############################

# Define solid atoms. This closely follows ten Wolde  Ruiz-Montero and Frenkel  Faraday Discuss  1996  104  93-110
# Compute components of the per-atom q6 vector
compute q6 all orientorder/atom degrees 1 6 components 6 nnn NULL cutoff 1.3 # compute the Q6 parameter.
                                                                             # Use all neighbours within 1.3 unit cell.

# get number of connections
compute coord_number all coord/atom orientorder q6 0.5

# An atom is solid if it has 8 or more connections (of a possible 14)
variable is_solid atom c_coord_number>=8
group solid dynamic all var is_solid    # Must be dynamic to update
dynamic group solid defined

# do clustering
compute cluster solid cluster/atom 1.3 # Create a cluster where all atoms within are solid and max 1.3 units from another member

# define chunks one chunk per cluster
compute clus_chunks solid chunk/atom c_cluster nchunk every compress yes  # Says which atoms are in which chunk

# count the size of each chunk
compute size_chunks solid property/chunk clus_chunks count


# Find the maximum entry in the vector of chunk sizes
variable max_n equal max(c_size_chunks)


# Thermo style which includes this variable
thermo_style custom step temp pe vol v_max_n

thermo ${N}  # Print the thermo information every 100 steps
thermo 100  

# Reset the npt fix at a lower temperature (below freezing)
fix 1  all npt temp  ${temp} ${temp}  0.1  iso  5.68  5.68  0.5  mtk yes tchain  5  pchain  5
fix 1  all npt temp  0.79 ${temp}  0.1  iso  5.68  5.68  0.5  mtk yes tchain  5  pchain  5
fix 1  all npt temp  0.79 0.79  0.1  iso  5.68  5.68  0.5  mtk yes tchain  5  pchain  5

dump dmp2 all dcd ${N} traj_${rand}.dcd
dump dmp2 all dcd 100 traj_${rand}.dcd
dump dmp2 all dcd 100 traj_462431.dcd


# fix rnuntil all halt ${N} v_max_n >= 3980 error soft message no   # Stop when solidified


run 100000 # 5000000  # Run for this many steps
Neighbor list info ...
  update every 1 steps, delay 10 steps, check yes
  max neighbors/atom: 2000, page size: 100000
  master list distance cutoff = 3.8
  ghost atom cutoff = 3.8
  binsize = 1.9, bins = 9 9 9
  4 neighbor lists, perpetual/occasional/extra = 1 3 0
  (1) pair lj/cut, perpetual
      attributes: half, newton on
      pair build: half/bin/atomonly/newton
      stencil: half/bin/3d
      bin: standard
  (2) compute orientorder/atom, occasional
      attributes: full, newton on
      pair build: full/bin/atomonly
      stencil: full/bin/3d
      bin: standard
  (3) compute coord/atom, occasional
      attributes: full, newton on
      pair build: full/bin/atomonly
      stencil: full/bin/3d
      bin: standard
  (4) compute cluster/atom, occasional
      attributes: full, newton on
      pair build: full/bin/atomonly
      stencil: full/bin/3d
      bin: standard
Per MPI rank memory allocation (min/avg/max) = 9.508 | 9.510 | 9.514 Mbytes
Step Temp PotEng Volume v_max_n 
    4000   0.82095828   -6.5430608    4037.6482           14 
    4100   0.80261055   -6.5705575    4027.9585           12 
    4200   0.79124295   -6.5978294     4020.777           13 
    4300   0.78519991   -6.6082322    4016.7621           13 
    4400   0.79960989    -6.581679    4017.3077           11 
    4500   0.79120862   -6.6151476    4019.2746            9 
    4600   0.78856931   -6.6557099    4031.9614            7 
    4700   0.78189304   -6.6318423    4023.2358           11 
    4800   0.80013722   -6.6215658    4023.2958           14 
    4900   0.79810907   -6.6147339    4018.6283            8 
    5000   0.77974476   -6.6302146    4018.0884           18 
    5100   0.78482618   -6.6080697    4008.5274           15 
    5200     0.802386   -6.5961881    4004.3695           13 
    5300   0.78499216   -6.6292628    4006.1869           15 
    5400   0.78676357   -6.6232174    4020.2576           13 
    5500    0.7884093   -6.6221837    4019.8358            7 
    5600   0.77608361   -6.6366331    4015.0901           11 
    5700   0.78924146   -6.6544472     4009.776           12 
    5800   0.78152232   -6.6677805    3996.3801           25 
    5900   0.80129991   -6.6556943    4005.6536           21 
    6000   0.79486691   -6.6447046    3996.0056           22 
    6100   0.78325914   -6.6505333     3992.436           26 
    6200   0.79747149    -6.635016    4003.4518           21 
    6300   0.79386081   -6.6588211    4004.0666           22 
    6400   0.78791198    -6.663796    4002.7266           17 
    6500   0.79820145   -6.6549578    3993.5945           15 
    6600   0.79566025   -6.6584247    3996.7312            6 
    6700   0.79437269   -6.6649809    4003.3473           10 
    6800   0.77424094   -6.6845128    4005.9926           17 
    6900   0.79657992    -6.687318    3997.0077           15 
    7000    0.7748949   -6.6569346     3991.334           13 
    7100   0.79778215   -6.6591244    3998.6577           12 
    7200   0.79207824   -6.6840631    3992.7294           24 
    7300   0.79555909   -6.6762915    3993.6745           27 
    7400   0.78356923   -6.6535046    3995.7065           23 
    7500   0.78688105   -6.6979715    3993.3741           18 
    7600   0.79711964   -6.6705909    3993.7625           26 
    7700   0.78156385   -6.6731278    3992.1764           40 
    7800   0.79827451   -6.6984247    4002.7428           55 
    7900   0.78730625    -6.662739    4009.5472           72 
    8000   0.79812681   -6.6506481    4005.0949           35 
    8100   0.77928487   -6.6665632    3987.8687           33 
    8200   0.78716981   -6.6549126    3997.3061           51 
    8300   0.80865999   -6.6539915    3995.1738           35 
    8400   0.78297502   -6.6342427    3990.8197           81 
    8500   0.80945585    -6.656485    3996.6319           73 
    8600   0.79012387   -6.6687748    3994.6806           42 
    8700   0.79831634     -6.65346    3985.9641           36 
    8800    0.7977092   -6.6674596    3985.1545           14 
    8900   0.78244411   -6.6746041    3988.5072           26 
    9000   0.78893055   -6.6642986    3995.6207           50 
    9100   0.78093316   -6.6785483    4000.2446           29 
    9200   0.78611649   -6.6546958    4002.3193           29 
    9300   0.79817984   -6.6601689    4001.6142           18 
    9400   0.78557994   -6.6534021    4000.9379           15 
    9500   0.78495261   -6.6573444     3994.394           13 
    9600   0.77382826   -6.6682121    3985.4712           13 
    9700   0.79454923   -6.6666573    3991.6643           19 
    9800   0.80192563    -6.663408     4004.258           13 
    9900   0.78540434   -6.6614394     4003.791           17 
   10000   0.79204695   -6.6806545    4001.0714           15 
   10100   0.78274367   -6.6867067    4003.4434           23 
   10200   0.79351878   -6.6599073    3994.8816           16 
   10300   0.78382038   -6.6865049    3993.7754           22 
   10400   0.78963523   -6.6556527    3992.3758           16 
   10500   0.79415339   -6.6510813    3994.5234           16 
   10600   0.79059323   -6.6479353    4005.1283           20 
   10700    0.7817192   -6.6738458    4007.1802           18 
   10800   0.77172638   -6.6792074     3999.305           23 
   10900   0.78808019   -6.6580184    4004.9508           30 
   11000   0.79043834   -6.6559108    3995.4089           29 
   11100   0.77386039   -6.6759254     3992.722           35 
   11200   0.79786866   -6.6739612    4001.9458           57 
   11300   0.77421596   -6.6580746    4006.9759           21 
   11400   0.79142594   -6.6676072    3997.8902           13 
   11500   0.79802703   -6.6743344     3984.206           26 
   11600   0.77984276   -6.6650141    3989.0979           22 
   11700   0.80307582    -6.671461    3995.6907           24 
   11800   0.79902406   -6.6714976    3999.2917           16 
   11900   0.78490975   -6.6688504    3985.7151           17 
   12000   0.80131175   -6.6718165    3995.2289           25 
   12100     0.794689   -6.6450773    3998.2425           34 
   12200   0.79337115   -6.6815994    3992.7833           12 
   12300   0.79585392   -6.6718275    3994.6778           14 
   12400   0.80006171   -6.6553653    4000.7084           22 
   12500   0.78358986   -6.6630127    4002.4069           18 
   12600   0.79257351   -6.6634253    4003.0811           31 
   12700   0.77646953   -6.6667562    3985.9123           25 
   12800   0.79732429   -6.6565597    3985.4865           20 
   12900   0.80101141   -6.6600016    3998.5512           17 
   13000   0.78983818   -6.6624095    4004.4315           19 
   13100   0.76808747   -6.6572785    4005.6814           23 
   13200   0.78867631   -6.6516525    4010.0725           17 
   13300   0.79452202   -6.6587115    3998.3536           21 
   13400   0.78440546   -6.6454967    3997.5768           18 
   13500   0.78265888   -6.6416336    3998.7958            9 
   13600   0.79453956   -6.6586517    3986.5071           10 
   13700   0.79127583   -6.6706475    3993.4239           12 
   13800   0.78990743   -6.6561709    3998.5316            9 
   13900   0.79444542   -6.6615888    4011.1199           10 
   14000   0.78828006   -6.6773774     4003.165           18 
   14100   0.76248467   -6.6654062    3993.9338           22 
   14200   0.79381106   -6.6710797     4003.514           10 
   14300   0.78052309   -6.6381528     4000.227           13 
   14400   0.77427565   -6.6505625     4008.863           14 
   14500   0.80514344   -6.6687207    4008.0839           17 
   14600   0.77748612   -6.6498721    3984.2759           15 
   14700   0.79350994   -6.6810049    3983.3885           20 
   14800   0.80613351   -6.6549548    3983.8232            9 
   14900   0.78175523   -6.6690332    3981.4677           10 
   15000   0.79642378   -6.6705731    4001.0591           23 
   15100   0.78216342   -6.6613512    4000.6593           17 
   15200   0.76978432    -6.685141    3993.9943           13 
   15300   0.79131991   -6.6942356    3990.5398           16 
   15400   0.79222067   -6.6853693    4007.0193           23 
   15500     0.783105   -6.6642756    4005.9635           21 
   15600   0.77895328   -6.6656643    3996.5268           21 
   15700   0.77047921   -6.6853116     3992.666           15 
   15800   0.79520135   -6.6836074    4000.4945           26 
   15900   0.78116953   -6.6498791    4000.7114            9 
   16000    0.7821773   -6.6625278    3997.8545           25 
   16100   0.79175039    -6.687586    3995.9446           30 
   16200   0.80069654   -6.6508342    4006.4559           24 
   16300   0.79289571   -6.6640324    4000.1999           27 
   16400   0.78560384   -6.6788259    3995.1889           23 
   16500   0.80653073   -6.6623997    4000.0091           23 
   16600   0.79184514   -6.6664555    3999.7257           25 
   16700   0.78285344   -6.6842243    3991.0863           25 
   16800    0.8050018   -6.6823408    3992.8199           27 
   16900   0.79493027   -6.6613834    3998.8659           22 
   17000   0.78921916   -6.6931623    3996.6778           33 
   17100   0.77309187   -6.6896327    3983.1539           41 
   17200   0.79059116   -6.6661978    3973.0924           34 
   17300   0.79614544   -6.6847314    3991.5515           43 
   17400   0.78847282   -6.6881376    4007.0478           43 
   17500   0.77188308   -6.6746905    3997.3612           40 
   17600   0.79528145   -6.6674234    3998.5349           46 
   17700   0.79266972   -6.6829284    3992.9897           48 
   17800   0.78506443   -6.6844969    3979.8675           38 
   17900   0.79082832   -6.6644465    3992.5945           46 
   18000   0.77704621   -6.6691504    4000.1295           57 
   18100   0.80439377   -6.6606181    3999.0135           58 
   18200   0.79987707   -6.6833289    3996.7389           69 
   18300   0.77775663   -6.6523119    4001.6339           45 
   18400    0.8030384    -6.691601    4001.9145           72 
   18500   0.78199653   -6.6669523    3987.7029           43 
   18600   0.80653888   -6.6644091    3997.8626           64 
   18700   0.79848677    -6.677484    4000.4236           81 
   18800   0.79170939   -6.6793167    3991.2761           66 
   18900    0.7768093   -6.6817926    3991.8098           93 
   19000   0.79433479   -6.6737759    4007.8843           28 
   19100   0.78626173    -6.666066    4001.2491           33 
   19200   0.79193146   -6.6719254    3988.2048           48 
   19300   0.79197496   -6.6505613    3998.1604           34 
   19400   0.81005086   -6.6646425    4005.4361           27 
   19500   0.78821088   -6.6726247    3996.9323           63 
   19600   0.78324177   -6.6838931    3988.1531           37 
   19700   0.79173895    -6.683289    3982.3343           61 
   19800   0.80400391   -6.6772599    3984.4129           39 
   19900   0.81337528   -6.6790366    3993.2431           73 
   20000   0.78529634   -6.6810528    3980.6992          103 
   20100   0.80028695   -6.7011491    3989.6574           72 
   20200   0.80445243   -6.6687339    3997.2473           73 
   20300   0.80236017   -6.6734046    3994.0121           48 
   20400    0.7863465   -6.6848499    3984.9414           42 
   20500   0.80338096    -6.690317    3988.4012           47 
   20600   0.80977667   -6.6770551    3982.4713           63 
   20700   0.77585252   -6.6639333    3981.8028           59 
   20800   0.79329488    -6.675759     4001.994           80 
   20900   0.78736456   -6.6860566    4004.6612           59 
   21000   0.78407938   -6.6815132    3991.5285           61 
   21100   0.79186431   -6.6501509    3995.0919           62 
   21200    0.7825422   -6.6664802    3995.5997           71 
   21300   0.79023241   -6.6818536    3992.2355           43 
   21400     0.773643   -6.6973712    3988.9699           46 
   21500    0.8055564   -6.7020701    3994.3258           61 
   21600   0.77816335   -6.6819758    3986.4764           83 
   21700   0.80674304   -6.6847329    3987.9612           65 
   21800   0.79694719   -6.6882329    3996.0575           85 
   21900   0.78582624   -6.7020512    3976.0902           38 
   22000   0.78934163   -6.6975004    3976.3677           65 
   22100   0.79016486   -6.6730786    3986.3723           57 
   22200   0.79654619   -6.6467044    3984.3752           22 
   22300   0.78219229   -6.6704063    3980.5587           21 
   22400   0.79044967   -6.7115666    3995.3766           34 
   22500   0.80477765   -6.6974152    4004.8294           28 
   22600   0.79262313    -6.664939    3989.3146           25 
   22700   0.78663783   -6.6780692    3984.3719           19 
   22800   0.80310891   -6.6781213      3987.81           29 
   22900   0.78481151   -6.6903332    3986.8051           32 
   23000   0.79226842   -6.6809195    3990.0917           33 
   23100   0.78778192   -6.6741082     4000.829           16 
   23200   0.76382013   -6.6701159    3993.3346           25 
   23300   0.78127271   -6.6842927    3991.8186           41 
   23400   0.79544397   -6.6660212    3991.8661           33 
   23500   0.78339728   -6.6818367    3989.2871           60 
   23600   0.79798685   -6.6702966    3991.7759           39 
   23700   0.81893981   -6.6776111    4009.6128           19 
   23800   0.77189733   -6.6580823    4005.5465           30 
   23900   0.78161764   -6.6693613    4009.1663           40 
   24000   0.79275849   -6.6751771    4004.6619           43 
   24100    0.7785718   -6.6687077    3991.1184           42 
   24200   0.77645898   -6.6727378    3985.1551           56 
   24300    0.7949976   -6.6573541    3990.8159           35 
   24400   0.80196833   -6.6868084    3998.7587           27 
   24500   0.77182561   -6.6864188    3995.7535           51 
   24600   0.79435892   -6.6943732    4006.9299           30 
   24700   0.77423561   -6.6728282    3997.0663           47 
   24800   0.78391688   -6.6897154    3988.8524           20 
   24900   0.79473505   -6.6669494    3987.6236           17 
   25000   0.77017774   -6.6625532    3989.6436           31 
   25100   0.79739123   -6.6988508    3992.8243           20 
   25200   0.78909433   -6.6591012     3993.967           12 
   25300   0.80194142   -6.6527461     3991.861           21 
   25400   0.78939494   -6.6397451    3991.3933           17 
   25500   0.79168192   -6.6502178    3988.2032           28 
   25600   0.78088522   -6.6756235     3985.703           31 
   25700   0.78503106   -6.7008288    4002.0253           29 
   25800   0.78555871   -6.6583727    4007.9311           17 
   25900   0.78505127   -6.6633991    3995.9617           18 
   26000    0.7931203   -6.6867203    3995.1475           33 
   26100   0.76971245   -6.6836918    3989.7118           36 
   26200    0.7998957   -6.6688523    3991.9987           47 
   26300   0.78373185   -6.6637317    3993.8394           21 
   26400    0.8074551   -6.6708034    4001.3439           23 
   26500   0.77531911   -6.6734749    4000.1827           24 
   26600   0.78003103   -6.6925238    4000.0836           18 
   26700   0.76683372   -6.7066395    3984.2054           12 
   26800   0.78402582   -6.6885292    3991.7602           15 
   26900   0.78579646   -6.6595136    4002.0121           28 
   27000   0.80668286   -6.6761268    3991.6924           29 
   27100    0.7991801   -6.6748248    3985.6958           19 
   27200   0.78075347   -6.6829325    3979.9626           24 
   27300   0.80214167   -6.6944638    3982.5552           22 
   27400   0.79683766   -6.7026004    3996.0003           25 
   27500   0.76812626   -6.6784081    3998.2425           24 
   27600   0.78638039   -6.6589636    4000.5651           15 
   27700   0.78812127   -6.6596898    3985.8992           24 
   27800   0.80903502    -6.674987    3980.2963           18 
   27900   0.78043914   -6.6784279    3987.7337           22 
   28000   0.78339517    -6.645395    3996.0447           14 
   28100   0.79220141   -6.6679342    4003.4537           25 
   28200   0.79004244   -6.6788719    3993.4624           34 
   28300   0.77312439    -6.682745     3987.591           22 
   28400    0.7845508   -6.6649316     3995.291            7 
   28500   0.79291386   -6.6754569    4004.5236           15 
   28600   0.78507711   -6.6527999    4006.5535            9 
   28700   0.78635926   -6.6424693    3994.2581           17 
   28800   0.79699276   -6.6582638    3992.0919           17 
   28900   0.78414246   -6.6503027    3992.2991           15 
   29000   0.77756497   -6.6851496    3980.0272            8 
   29100   0.79920228    -6.693593     3998.745           12 
   29200   0.79361741   -6.6695902    3997.9833           13 
   29300   0.77976116   -6.6968142    3998.4607            9 
   29400   0.79227451   -6.6763533    3992.5196           20 
   29500   0.78821111   -6.6734985    3986.1264           12 
   29600    0.7946173    -6.701945    3991.9946           11 
   29700    0.7971342   -6.6870395    3990.7812           20 
   29800   0.78382287   -6.6557125    3986.8103           14 
   29900   0.79245624   -6.6597204    3984.0245           20 
   30000   0.78204363   -6.6951421    3986.4207           12 
   30100   0.79736979   -6.6835919    3988.4333           26 
   30200   0.77973033   -6.6706982    3990.6473           14 
   30300   0.79900919   -6.6714029    4001.5921           20 
   30400   0.79301559   -6.6386071      4006.17           12 
   30500   0.78236897   -6.6299024    4004.6474           10 
   30600    0.7823797   -6.6613004    3996.8928           40 
   30700   0.78344129   -6.6757859    3995.5527           16 
   30800    0.7918822    -6.663185    4002.8025           24 
   30900    0.7659849   -6.6647431    3998.0229           20 
   31000     0.786813   -6.6681901    3996.2413           18 
   31100   0.80165578   -6.6713824    4000.4456           18 
   31200   0.77945477   -6.6757893    3994.7263           16 
   31300   0.78053176    -6.678367    3996.8867           15 
   31400   0.78702838    -6.668238    4005.7655           21 
   31500   0.78107153   -6.6885894    4013.7804           24 
   31600    0.7937621    -6.667625    4000.7578           21 
   31700   0.78602651   -6.6745763    3981.7458           23 
   31800   0.79660379   -6.6738736    3989.7686           23 
   31900   0.79925451   -6.6537204    3996.8378           22 
   32000   0.80519867   -6.6660895    3998.3614           28 
   32100   0.78099221   -6.6576828    3988.4918           30 
   32200   0.78567467   -6.6593393    3990.2056           31 
   32300   0.78485886   -6.6989542     3994.149           48 
   32400    0.7933141   -6.6791682    4005.4306           32 
   32500    0.7957032   -6.6843596    4005.1008           40 
   32600   0.79402496   -6.6858619    3990.5565           58 
   32700   0.79287763    -6.669098    3987.7258           46 
   32800   0.80494277   -6.6587875     3994.326           24 
   32900   0.79864991   -6.6563593    3998.0802           49 
   33000     0.782524   -6.6559941    4002.1126           45 
   33100   0.79292001   -6.6714747    3992.6003           46 
   33200   0.78408802   -6.6780172    3990.1721           55 
   33300   0.79482583   -6.6554059    4003.4059           55 
   33400   0.77626732    -6.639229    3993.2274           18 
   33500   0.81664267    -6.677171    3991.7201           15 
   33600   0.79052575   -6.6729938     3998.705           33 
   33700    0.7818905   -6.7050925    3994.3732           21 
   33800    0.7795852   -6.6691133    3998.4713           18 
   33900     0.797801   -6.6680631    3994.9793           23 
   34000   0.78519447   -6.6891268    3986.8479           22 
   34100   0.77750662   -6.6720063    3991.5279           19 
   34200   0.78164867   -6.6487577    3992.5494           12 
   34300   0.78624878   -6.6606107     3998.615           32 
   34400   0.79210151   -6.6657097    3995.2438           41 
   34500   0.78342161   -6.6987165    3989.0827           39 
   34600   0.79390231   -6.6824806    3992.7712           23 
   34700   0.77457683   -6.6495315    3996.7901           22 
   34800   0.78681407   -6.6366596    4001.4795           48 
   34900    0.7927555   -6.6975265    3997.4515           22 
   35000    0.7877254   -6.6631797    3986.8784           35 
   35100   0.76829919   -6.6537105    4004.7569           44 
   35200   0.78485169   -6.6581858    4009.6922           28 
   35300   0.77873079   -6.6803463    4002.0366           38 
   35400   0.78370764   -6.6483894    4000.6953           42 
   35500   0.79838642   -6.6582748      4001.86           26 
   35600   0.77798383   -6.6589417    3992.9021           30 
   35700   0.79839912   -6.6703286    3993.6102           24 
   35800   0.78941983    -6.679807    3993.7476           40 
   35900   0.79391055   -6.6903261     3996.503           39 
   36000   0.78442731   -6.6531939     4001.683           18 
   36100   0.78944627   -6.6588689    3995.6581           28 
   36200   0.77780702     -6.68592    3988.0329           16 
   36300   0.76522891   -6.6818624    3990.8897           21 
   36400   0.79317209   -6.6742666    3998.8939           22 
   36500   0.78063861   -6.6708868    3999.2041           21 
   36600    0.7787154   -6.6900437    3983.1475           19 
   36700   0.79436854   -6.6654061    3989.5185           18 
   36800   0.78795815   -6.6509245    3991.2257           20 
   36900   0.81112289   -6.6602158    4000.5277           17 
   37000   0.78559051   -6.6741016    3997.7619           16 
   37100     0.786637   -6.6545947    3994.0005           28 
   37200   0.78992241   -6.6553337    3998.5568           11 
   37300   0.78443946   -6.6776452    4001.4004           18 
   37400   0.77976203   -6.6619741    4005.9271           15 
   37500   0.79516053   -6.6473144    4007.0044           21 
   37600   0.79765092   -6.6435594    3995.7609           27 
   37700   0.79319756   -6.6657417    3992.1453           10 
   37800   0.80293089   -6.6579256    3991.2084           23 
   37900   0.79097325   -6.6626289    3995.8864           15 
   38000    0.7780345   -6.6971562    3997.9431           20 
   38100    0.7794382   -6.6823015    3998.3224           44 
   38200   0.78462742   -6.6647959    4002.3615           22 
   38300   0.80424988   -6.6656479    4006.8659           20 
   38400   0.78521995   -6.6430009    3990.5859           22 
   38500   0.78780823    -6.663616    3979.7897           21 
   38600   0.78430446   -6.6488915    4000.5685           18 
   38700   0.80307653   -6.6720519    4015.6032           14 
   38800     0.781373   -6.6741586    4004.6602           19 
   38900   0.79351929    -6.666034    4007.8671           20 
   39000   0.78612973   -6.6519168    4002.0033           12 
   39100   0.77107539   -6.6488383    4000.3058           26 
   39200   0.77850024   -6.6324564     4007.157           21 
   39300   0.80104355   -6.6397383    4015.0423           31 
   39400     0.799223   -6.6756219    4005.9936           30 
   39500   0.77728626   -6.6531212    4000.8925           28 
   39600   0.79491038    -6.631017    3994.4447           13 
   39700   0.80866676   -6.6501705    4002.9893           10 
   39800    0.7933192   -6.6380904    4003.2689           18 
   39900   0.80118539   -6.6651214    4002.1332            8 
   40000   0.79218901    -6.633018    4017.9303            8 
   40100   0.79125254   -6.6636853    3999.9568            8 
   40200   0.79075147   -6.6487584    3995.2913           11 
   40300   0.79689915   -6.6250273    3997.0582           12 
   40400   0.79620731   -6.6565193    3999.9429           14 
   40500   0.77855127   -6.6658213    3993.6701           17 
   40600   0.80172691   -6.6750965    4003.4911           21 
   40700   0.78497688    -6.648408    4006.4092           23 
   40800   0.79010704   -6.6571225    4002.7314           15 
   40900   0.78538614   -6.6395745    4000.8077           22 
   41000   0.79581496   -6.6656267    4003.3033           10 
   41100   0.78999987   -6.6580117    3997.3188           23 
   41200   0.77826543   -6.6599089     4002.235           20 
   41300   0.78075085   -6.6455074    4009.4986           13 
   41400   0.79364522   -6.6299133    4008.2271           11 
   41500   0.79550892   -6.6198717    3990.9176           12 
   41600    0.7957904   -6.6535628    3975.9673           10 
   41700   0.78650485   -6.6441671    3990.5222           19 
   41800   0.78150248   -6.6410613    4008.5353           16 
   41900   0.75700847   -6.6510677     4003.988           13 
   42000   0.78793272   -6.6634839    4006.1573           14 
   42100   0.79752079   -6.6641578    4004.4173           14 
   42200   0.78714772   -6.6674851    3997.0167           10 
   42300   0.79177762   -6.6258305    4003.7161           18 
   42400   0.80896224   -6.6556225    3993.1621           13 
   42500   0.82094125   -6.6753019    3993.0463            8 
   42600   0.77898838    -6.655284    3989.7829           12 
   42700   0.78435812   -6.6897502    4004.9455           13 
   42800   0.79927774   -6.6704888    4014.5891           11 
   42900   0.78366308   -6.6482249    3996.8558           11 
   43000   0.80292565   -6.6889478    3984.9008           10 
   43100   0.79204008   -6.6978404     3983.625           17 
   43200   0.79371059   -6.6627357    3993.4989           22 
   43300   0.78066477   -6.6487755    3993.9464           19 
   43400   0.77762984   -6.6721982    3985.8876           16 
   43500    0.7791501    -6.685469     3996.431            9 
   43600   0.79053492   -6.6601006    4003.2485           13 
   43700   0.79145469    -6.636479    4005.6256            9 
   43800   0.77832839   -6.6611033    3999.2151            8 
   43900   0.79794636   -6.6758604    3996.0801           11 
   44000    0.8132396   -6.6551609    4005.7525           20 
   44100   0.78464333   -6.6533869    4001.6908           14 
   44200   0.77775952   -6.6722917    4003.2378           18 
   44300   0.80447726   -6.6696996    4006.7126           16 
   44400   0.78726624    -6.636272    3993.7306           35 
   44500   0.78724751   -6.6719217    3984.7825           17 
   44600   0.78866283   -6.6575644    3988.4133           32 
   44700   0.78512139   -6.6618032    3989.9184           16 
   44800   0.79437346   -6.6849796    4004.9336           18 
   44900   0.79084607   -6.6662614    4009.2777           27 
   45000   0.79784956   -6.6818981    3993.6209           34 
   45100   0.78366078   -6.6851324    3986.2034           29 
   45200   0.79836828   -6.6896498    3982.5928           41 
   45300   0.79290996   -6.6817445    3986.2724           28 
   45400   0.79820953   -6.6599656    3986.6761           30 
   45500   0.77910278   -6.6643101    3987.5629           23 
   45600   0.78583396   -6.6995601     3985.728           17 
   45700   0.78188161   -6.6709932    4000.4253           27 
   45800   0.78124224   -6.6702082    4003.9946           12 
   45900   0.80268291   -6.6784205    4010.1324           21 
   46000    0.7835356   -6.6658198    4002.9149           17 
   46100    0.7951052   -6.6824421    3991.7033           17 
   46200    0.7932472   -6.6572344    3983.6191           14 
   46300   0.78783759   -6.6584081    3991.9822           17 
   46400   0.80354544   -6.6942103    3997.0402           17 
   46500   0.78399363   -6.6837337    3992.2369           13 
   46600   0.79574785   -6.6652462     3989.362           15 
   46700   0.80825431   -6.6766771    3986.1871           24 
   46800    0.7925993   -6.6608172    3986.6293           25 
   46900    0.8134425    -6.673684    3993.9067           21 
   47000    0.7988571   -6.6781353    3995.3666           13 
   47100   0.78727921   -6.6568704    3994.9056           12 
   47200   0.79991074   -6.6859634     3992.688           14 
   47300   0.79752983   -6.6633326    3998.0241           12 
   47400   0.78974801   -6.6353912    3999.6685           30 
   47500   0.78799769   -6.6819631    3994.5518           42 
   47600   0.78875173   -6.6737375    4002.2135           10 
   47700   0.78818422   -6.6642283    4018.0944           17 
   47800   0.77374519   -6.6656616    4012.9612           13 
   47900   0.78196165   -6.6801155    3993.7631           10 
   48000   0.78026599   -6.6664151    3982.4929           17 
   48100   0.80183343   -6.6613907    3996.5762           18 
   48200   0.79237673   -6.6727118    3988.1455           21 
   48300   0.77719805   -6.6786006    3994.0546           15 
   48400   0.78070434   -6.6666208    4004.3781           20 
   48500   0.78555459   -6.6601802    4007.9819           18 
   48600   0.77975121     -6.64735    4000.5062           12 
   48700   0.80738422   -6.6328984     3998.875           11 
   48800   0.80279383   -6.6589698     3993.984           13 
   48900   0.78587539   -6.6631212    3990.1796           31 
   49000   0.80054835    -6.651808    4000.0077           14 
   49100   0.78935033   -6.6428914    4003.0135           13 
   49200   0.78123192   -6.6541783    3993.9055           24 
   49300    0.7892907   -6.6745478    3993.0388           24 
   49400   0.78914805   -6.6366243    4006.1007           16 
   49500   0.78676025   -6.6486481    3998.0554           22 
   49600    0.7969859   -6.6699189    3993.7684           11 
   49700   0.81473482   -6.6534967    3999.0419           20 
   49800   0.77732979   -6.6357008    3996.9959           18 
   49900    0.8126166   -6.6746686    4004.2654           16 
   50000   0.78496698    -6.648314    3995.0031           26 
   50100   0.79679127   -6.6657916     4002.755           38 
   50200   0.80380303   -6.6692022    3994.6836           26 
   50300   0.78571219   -6.6586833    3985.2744           24 
   50400   0.80268088   -6.6459634     4001.198           27 
   50500   0.78616029   -6.6498785    4011.4703           23 
   50600   0.78540062   -6.6770547    4009.9382           31 
   50700    0.7683776    -6.682352    3990.7739           21 
   50800   0.79078792   -6.6560433     3985.542           40 
   50900   0.80036622   -6.6504244    3986.5243           23 
   51000    0.7908577   -6.6445478    3995.0552           31 
   51100   0.79709014   -6.6822635    4001.2786           22 
   51200   0.76689139   -6.6730592    4000.9309           17 
   51300   0.80276634   -6.6762185    3996.3638           31 
   51400   0.78513917   -6.6787729    3993.0978           24 
   51500    0.7941721   -6.6965671    4001.2591           11 
   51600   0.79600943   -6.6675528    3994.0933           25 
   51700    0.7836926   -6.6585654     3979.968           11 
   51800   0.79473551   -6.6725604    3994.4208           26 
   51900   0.78648997   -6.6518819    4000.2277           24 
   52000   0.78785107   -6.6735637    4008.8182           35 
   52100   0.77267079   -6.6489174    3990.6683           32 
   52200   0.79696327   -6.6463628    4001.3773           35 
   52300   0.79137028   -6.6549155    4001.1972           41 
   52400   0.78687702   -6.6672277    4001.5467           60 
   52500   0.80792336   -6.6583742    3996.3477           69 
   52600   0.80501859   -6.6868455    3992.1651           48 
   52700   0.80865467   -6.6727189    3990.8936           31 
   52800   0.78661682   -6.6371815    3986.0484           24 
   52900   0.79603718   -6.6876988    3989.7368           31 
   53000   0.79354926   -6.6741323    3990.9635           40 
   53100   0.79783757   -6.6564829    3985.6517           19 
   53200   0.78700804   -6.6811498     3981.272           28 
   53300   0.77820266   -6.6669721    4001.4472           19 
   53400   0.80330825   -6.6704233    4005.5226           14 
   53500   0.78449842   -6.6680537    3996.3899           29 
   53600   0.80625488   -6.6787476    3995.4624           13 
   53700   0.79765243   -6.6693388    3988.6306           20 
   53800   0.78983747   -6.6926162     3995.285           31 
   53900    0.7791601   -6.6578179    4005.2659           32 
   54000   0.78437152   -6.6611288    4008.8529           28 
   54100   0.79478641   -6.6849551    4000.4601           31 
   54200   0.78444664   -6.6554833    3991.4371           15 
   54300   0.79939549   -6.6431293    3991.7223           22 
   54400   0.77586063   -6.6488558    3995.3455           36 
   54500   0.76764623   -6.6937078    3997.3017           22 
   54600   0.77156613   -6.6583463    4003.8601           38 
   54700   0.79035131   -6.6665963     4007.964           54 
   54800   0.77081457   -6.6684808    4004.5522           48 
   54900   0.79545557   -6.6618861    3995.7033           52 
   55000   0.79110081   -6.6380594    4006.1096           54 
   55100   0.79488053   -6.6662941    4013.0196           53 
   55200   0.78360531   -6.6405817    3998.5943           60 
   55300   0.80396684   -6.6307018    4005.4333           40 
   55400   0.79302984   -6.6461621    3988.0527           44 
   55500   0.78782633   -6.6637794    3998.5162           36 
   55600   0.78995075   -6.6425787    4003.2566           41 
   55700   0.80548506   -6.6387532    4006.5807           38 
   55800   0.78486757    -6.661694    4001.1436           40 
   55900   0.79254737   -6.6604425    3996.7984           45 
   56000   0.79730937   -6.6560938    4008.5037           24 
   56100   0.78137477    -6.673106    4009.3987           25 
   56200   0.78157594   -6.6993574    4008.7607           55 
   56300   0.79811073   -6.6815457    3995.1261           56 
   56400   0.77751629   -6.6532148    3989.8085           49 
   56500   0.79876836   -6.6536437    4006.0755           35 
   56600    0.7736977   -6.6567607    4001.8644           56 
   56700   0.78220821   -6.6649663    4001.1525           37 
   56800   0.80007994    -6.663369    4001.1487           47 
   56900   0.78159793   -6.6588749    3987.3736           24 
   57000   0.80207434   -6.6416319    3992.8551           23 
   57100   0.81582387   -6.6691345    4002.7371           19 
   57200    0.7893679   -6.6733992    3995.6908           50 
   57300   0.80649642   -6.6623392    3988.8907           33 
   57400   0.79271787   -6.6766639    3992.5855           20 
   57500   0.79827262   -6.6814462    3995.0187           15 
   57600   0.77824225   -6.6435648    3997.4518           21 
   57700   0.77387281   -6.6874109    4008.1509           18 
   57800   0.78853305   -6.6666417    4008.7966           52 
   57900   0.78099422   -6.6590492    4014.7804           61 
   58000   0.76818901      -6.6538    3989.8955           31 
   58100    0.7884844   -6.6547832     3992.476           38 
   58200   0.80342247   -6.6605403    4003.7334           16 
   58300   0.79436196   -6.6775639     3982.627           34 
   58400   0.80568466   -6.7050926    3984.7277           20 
   58500   0.79588998   -6.6604553    3993.0787           25 
   58600   0.78512438    -6.638514    3995.1414           24 
   58700    0.7787014   -6.6604929    3997.1896           20 
   58800   0.79542134   -6.6586376     4012.262           27 
   58900   0.78480836    -6.652904    4012.8689           24 
   59000   0.78181188   -6.6683987    3999.9816           25 
   59100   0.79458898   -6.6587376    4002.0846           21 
   59200   0.78881566   -6.6617554    4008.8398           19 
   59300   0.77433855   -6.6570523    4009.9789           13 
   59400   0.80190323   -6.6430895     4012.668           13 
   59500   0.80789034   -6.6341021    4007.3821           19 
   59600   0.79187409   -6.6528818    3992.7533           12 
   59700   0.78289872   -6.6725428    3995.5943           15 
   59800    0.7985453   -6.6611294    4010.3699           13 
   59900   0.79655657   -6.6722147    4007.3853            8 
   60000   0.79735611   -6.6702417    3990.1261           17 
   60100   0.80022631   -6.6950899    3984.1824           12 
   60200    0.7874048   -6.6931046    3987.1337           15 
   60300   0.79606459   -6.6641958    3993.3794           18 
   60400   0.79741533   -6.6741779     3990.626           13 
   60500    0.7860153   -6.6819508    3984.8724           12 
   60600   0.79415937   -6.6708275    3986.6578           18 
   60700   0.80038808   -6.6519177    3992.9103           26 
   60800   0.77220477   -6.6408437    3990.3652           19 
   60900   0.78822026   -6.6557188    4004.6801           15 
   61000   0.79141645   -6.6609337    4014.4704           10 
   61100   0.77329936   -6.6655034    4009.1681           14 
   61200   0.80380161   -6.6645511    4008.4962           16 
   61300   0.78485945   -6.6706798    4004.3434            8 
   61400   0.77444087   -6.6667421    3994.3483            7 
   61500   0.79518448   -6.6559538    3992.0798           18 
   61600   0.79694974   -6.6427971    4010.9624           15 
   61700   0.77786977   -6.6523787    4012.1756           17 
   61800   0.77945148     -6.67566    4001.1635           23 
   61900   0.76514463    -6.683451    3985.3857           28 
   62000    0.7803279   -6.6729536    3991.2438           10 
   62100   0.77951277   -6.6421905    3992.5338           12 
   62200   0.80164265   -6.6585441     4006.863           16 
   62300   0.79162362   -6.6264721    4006.3726           14 
   62400   0.79712189   -6.6480528    4005.0166           25 
   62500   0.78031474   -6.6482724     4003.402           27 
   62600   0.79888805   -6.6367145    4001.4094           15 
   62700   0.78672846   -6.6601832    3991.4928           23 
   62800   0.78640411   -6.6657251    3992.2971           21 
   62900   0.80159542   -6.6621243    3998.6882           15 
   63000   0.77458565   -6.6620486    3997.2814           28 
   63100   0.79916014   -6.6935396    3992.5021           32 
   63200   0.80110738   -6.6663324    4006.6354           45 
   63300   0.79276339   -6.6952665    4000.5379           27 
   63400   0.79060659   -6.6584641    3980.8939           15 
   63500   0.79506547   -6.6574988    3994.0867           17 
   63600   0.80067222   -6.6566287    4008.7108           18 
   63700   0.78066648   -6.6571049     3997.269           37 
   63800   0.79112906   -6.6734189    3994.0822           34 
   63900   0.79142884   -6.6814089    3994.9763           20 
   64000    0.7956414   -6.6608659    3995.5725           19 
   64100   0.79212892   -6.6665342    3990.6274           21 
   64200    0.7894512   -6.6541382    3994.7977           39 
   64300   0.79584317   -6.6682936    3999.9335           39 
   64400   0.78233829   -6.6496049    3993.2475           45 
   64500   0.79251673    -6.667803    3993.2035           45 
   64600   0.79500537   -6.6691994    3990.2611           47 
   64700   0.81839805   -6.6808502    3991.5053           56 
   64800   0.78977124   -6.6759887    3990.8348           39 
   64900   0.79381142    -6.660645    3994.2083           25 
   65000   0.80541723   -6.6947854    3999.8784           32 
   65100   0.77497274   -6.6758264    3984.9261           66 
   65200   0.80065559   -6.6792232    3986.8436          139 
   65300   0.78695535    -6.683987    3993.9629          130 
   65400   0.78897786   -6.6630887    4000.2984          121 
   65500   0.79051614   -6.7037697    3998.5855          130 
   65600   0.78083176   -6.6794445    3996.7311          109 
   65700   0.79569996   -6.6537651    3990.0037          102 
   65800   0.78013171   -6.6630544    3986.6141           95 
   65900   0.78352446   -6.6783666    3989.6042           98 
   66000   0.79153667   -6.6526763    3999.4068           85 
   66100   0.78642786   -6.6873705    3993.7204           68 
   66200   0.77882828    -6.642646    3987.3936           53 
   66300   0.80744598   -6.6442554    3978.5215           54 
   66400   0.78727252   -6.6577711    3982.5956           33 
   66500   0.80564988   -6.6727767    3994.3121           89 
   66600   0.79058781    -6.655027    3999.9067           45 
   66700   0.77343739   -6.6595066    3993.9595           43 
   66800   0.79256295   -6.6704653    3995.4918           61 
   66900   0.77928114   -6.6763244    4000.7925           65 
   67000   0.78376901   -6.6844025    4000.1483           71 
   67100   0.79857481   -6.6844752    3993.4673           84 
   67200   0.80206074   -6.6584341    3986.3389           71 
   67300   0.79776959   -6.7010555     3988.373           83 
   67400   0.78514158   -6.6862151    3992.4445           91 
   67500   0.79399846   -6.6439587      3992.68           75 
   67600   0.79866648   -6.6555306    3984.0398           39 
   67700   0.78153444   -6.6745643    3975.7484           33 
   67800    0.8000905   -6.6847927    3989.8029           19 
   67900   0.79557958   -6.6846147     3991.823           27 
   68000   0.78427645   -6.7060273    3973.0833           20 
   68100   0.78009302   -6.6826242    3981.0589           28 
   68200   0.79751662   -6.6752779    3988.5538           38 
   68300    0.7913892   -6.6704742    3994.4425           33 
   68400   0.79746079   -6.6734402    4005.3343           46 
   68500   0.78978321   -6.6859266       3992.8           40 
   68600   0.77791149   -6.6693038      3971.47           49 
   68700   0.78463681   -6.6757751    3974.4295           37 
   68800   0.79212487   -6.6763519     3999.794           69 
   68900    0.7967263   -6.6737063    4003.4708           40 
   69000   0.77573034   -6.6844154    3995.6602           31 
   69100   0.79080883   -6.6667143    3994.4368           33 
   69200   0.79625052   -6.6449383    3986.6507           44 
   69300   0.79854645   -6.6762829    3983.9111           63 
   69400   0.78478697   -6.6500558    3981.6113           36 
   69500   0.79408812    -6.661748    3994.9519           35 
   69600   0.78284307    -6.690883    3995.2187           39 
   69700   0.78546126   -6.6733915    3999.8275           27 
   69800   0.79352688   -6.6819175    4004.4973           17 
   69900   0.78220758   -6.6925484    3993.8498           24 
   70000   0.80118234   -6.6707448    3981.3742           29 
   70100   0.79676495    -6.678254     3986.622           24 
   70200   0.78063001   -6.6708479    3998.4925           32 
   70300   0.79038522   -6.6880487    3998.0468           19 
   70400   0.80060546   -6.6588654     3999.974           17 
   70500   0.79426358   -6.6607979    3997.0511           27 
   70600   0.77688085   -6.6652183    3993.3573           26 
   70700   0.79546478   -6.6758291    3999.5508           12 
   70800   0.79326598   -6.6527733    4000.2199           14 
   70900   0.77922089   -6.6714932    3989.6463           16 
   71000   0.80016743   -6.6939402      3998.24           15 
   71100    0.7827272   -6.6533803     3993.679           19 
   71200   0.80405999   -6.6512827    3987.6943           17 
   71300   0.80154597   -6.6677061    3990.7127           14 
   71400   0.78210827   -6.6828577    3992.1541           20 
   71500    0.7916623   -6.6551553    3999.8592           17 
   71600   0.78083428   -6.6687465    4004.2077           19 
   71700   0.79725084   -6.6718339    4000.4509           13 
   71800    0.7955094   -6.6361143    3993.9895           13 
   71900   0.79301604   -6.6527384    3982.0187           23 
   72000    0.7696464   -6.6787506    3979.2909           25 
   72100    0.7829691   -6.6961004    3986.8049           22 
   72200   0.79902122    -6.691268    4000.6243           20 
   72300   0.77725659   -6.6705965    3995.4579           21 
   72400   0.77563396   -6.6909859    3993.6703           42 
   72500   0.78498499   -6.6671709    3994.6029           25 
   72600   0.78359875    -6.680077    3996.9673           25 
   72700   0.80145973   -6.6902351    3990.8739           33 
   72800   0.79916696   -6.6822292    3995.5579           21 
   72900   0.78443305   -6.6494344    3996.8107           22 
   73000   0.78017065   -6.6641285    4000.0329           41 
   73100   0.78825029   -6.6554669    4011.6265           16 
   73200   0.78064938   -6.6594332    3999.1673           32 
   73300   0.81095007    -6.697832    3990.0925           31 
   73400   0.78659391   -6.6888266    3976.3401           44 
   73500   0.80420162   -6.6923538    3981.1207           51 
   73600   0.79396394   -6.7074436    3990.6411           31 
   73700   0.78493126   -6.6970474     3989.439           24 
   73800   0.79256103   -6.6616035    3988.2542           35 
   73900   0.78327145   -6.6760094    3991.1728           44 
   74000   0.77583428   -6.7075499    3990.3097           43 
   74100   0.78468046   -6.6884612    3987.5821           64 
   74200   0.80350546   -6.7030841    3984.9742           11 
   74300   0.78481775   -6.7016386    3971.2864           24 
   74400   0.78516809    -6.703802    3979.8204           13 
   74500   0.78288981   -6.6873551     3992.341           14 
   74600   0.78878621   -6.6743626    3997.6254           21 
   74700   0.77358838   -6.6697653    3990.6613           30 
   74800   0.79221794   -6.6835152    3986.8922           31 
   74900   0.79555024   -6.6649265    3992.8481           23 
   75000   0.78767973   -6.6851194    4001.4514           20 
   75100   0.78276922   -6.6700209    4011.8835           32 
   75200   0.79730259   -6.6478105    4002.8956           31 
   75300   0.80008061   -6.6833835    3988.6337           33 
   75400   0.79262615   -6.6486957    3992.9813           42 
   75500   0.78704326   -6.6413048    4001.3604           57 
   75600   0.79028578   -6.6864723    3999.1204           37 
   75700   0.77666812    -6.659886    4004.9235           47 
   75800   0.79302985   -6.6746247    3995.6252           67 
   75900   0.78580064    -6.683187    3997.9381           22 
   76000   0.80973852   -6.6642829    4004.4868           22 
   76100    0.7877198   -6.6368103    3995.1102           41 
   76200   0.78127849   -6.6630989    3999.2106           27 
   76300   0.79365452   -6.6763264     4008.577           22 
   76400   0.78655892   -6.6755702    4005.2972           23 
   76500   0.78419839   -6.6788707    3993.0745           14 
   76600   0.79229026   -6.6750612    3994.8971           18 
   76700   0.80833429   -6.6629945    3996.8192           17 
   76800   0.77962117   -6.6511533    3986.8111           26 
   76900    0.7794521   -6.6736364    3995.6591           24 
   77000   0.78648116   -6.6846436    4015.4437           66 
   77100   0.79517081   -6.6933936    4005.5079           25 
   77200   0.78830822   -6.6783096    3984.0664           35 
   77300   0.79510473   -6.6593011    3980.3872           42 
   77400   0.79786345    -6.671037    3989.8247           31 
   77500   0.79944481   -6.6933429    3996.3723           34 
   77600    0.7668087   -6.6816796    3993.1645           35 
   77700   0.78768052   -6.6666216     3999.957           54 
   77800   0.77132476   -6.6332124    4000.9448           31 
   77900   0.81034026    -6.672401    4010.4426           22 
   78000   0.78349235   -6.6589711    3996.9681           17 
   78100   0.77817724   -6.6714951    3998.0894           22 
   78200   0.77029631   -6.6763566     3994.286           11 
   78300   0.77106683   -6.6980917    3982.1379           12 
   78400   0.79603991   -6.6705342    3979.9231           32 
   78500   0.81233745   -6.6736819    3979.5265           34 
   78600   0.78406014   -6.6776384    3978.2288           18 
   78700   0.78752709   -6.6757474    3992.5025           22 
   78800   0.79430614   -6.6602536     3991.978           29 
   78900   0.78753742   -6.6878405    3995.5756           28 
   79000   0.79174153   -6.7011724    3991.1317           24 
   79100    0.7848132    -6.667737    3997.4228           27 
   79200     0.782833   -6.6601355    3993.4342           24 
   79300    0.7939877   -6.6568685    3986.0127           32 
   79400   0.80549079   -6.6563537    3987.2299           35 
   79500   0.80293629   -6.7106236    3987.1006           42 
   79600   0.79100167   -6.6755569    3982.4711           45 
   79700   0.80445261   -6.6705869     3994.721           56 
   79800    0.8003207   -6.6862346    3993.4257           35 
   79900   0.78218977   -6.6842068    3976.9639           77 
   80000    0.7949048   -6.6736337    3981.8884           72 
   80100    0.7918666   -6.6735423    3989.1686           76 
   80200   0.79519313    -6.693646     3991.598           33 
   80300    0.7798009   -6.6856678      3991.36           21 
   80400   0.79472238   -6.6796073    4004.1665           19 
   80500   0.77010951   -6.6793591    3997.9251           24 
   80600   0.78898017   -6.6750399    3987.3597           18 
   80700   0.80303331   -6.6397112    3995.3085           29 
   80800    0.7965077   -6.6666876    3992.9194           46 
   80900   0.78897881   -6.6896691    4003.4521           46 
   81000   0.78340648   -6.6762329    3997.1967           22 
   81100   0.79611763   -6.6639905    3999.5203           19 
   81200   0.82182096   -6.6598385    3997.6242           23 
   81300   0.79416738   -6.6628614    3990.6547           55 
   81400   0.80180986    -6.678158     3990.503           72 
   81500   0.78241895   -6.6871878    3982.6057           81 
   81600   0.79770874   -6.6800011    3990.4256           59 
   81700   0.79664892   -6.6627361    3991.9624           36 
   81800   0.78681443   -6.6810751    3991.8603           31 
   81900   0.78477489   -6.7140367    3989.2404           45 
   82000   0.77363099   -6.7101882    3992.8759           54 
   82100   0.79356969   -6.6972705    3998.3131           29 
   82200   0.79037825    -6.663697    3994.5872           35 
   82300   0.78611394    -6.683727     3994.754           32 
   82400   0.77594197   -6.7003318    3982.8698           63 
   82500   0.78410723   -6.6754502    4005.3487           35 
   82600   0.78049351   -6.6895291    4007.1422           28 
   82700   0.77623356   -6.6825956    3999.5798           37 
   82800   0.80772714   -6.6972406    3986.3135           26 
   82900   0.79831491   -6.6849078    3983.4345           27 
   83000   0.79444489   -6.6570654     3994.408           33 
   83100   0.77871414    -6.679261    3984.8422           54 
   83200   0.79211748   -6.6879802    3987.1643           46 
   83300    0.7958363   -6.6812092    3997.2776           19 
   83400   0.77458782   -6.6811168    3995.3346           22 
   83500   0.79924403   -6.6780458    3998.7109           34 
   83600    0.7967588   -6.6704099    3993.1671           32 
   83700   0.79938783   -6.6766989    3985.5368           45 
   83800   0.79095835   -6.6740369    3987.1949           21 
   83900   0.79823086   -6.6608479    3993.0646           30 
   84000   0.78136722   -6.6780676    3997.6584           36 
   84100    0.7862622   -6.6740299    4000.2635           36 
   84200   0.77211961   -6.6733691    4008.3574           32 
   84300   0.79646849   -6.6699962    3996.6004           30 
   84400    0.7929023   -6.6484447    4001.9032           37 
   84500    0.7904238   -6.6742072    3993.1101           24 
   84600   0.79961635   -6.6495735      3986.13           36 
   84700   0.81419878   -6.6397629    4004.4239           31 
   84800   0.80836951   -6.6405699    3999.0766           19 
   84900   0.79727291   -6.6616398     3994.263           36 
   85000   0.79366366    -6.678336    4005.4916           17 
   85100   0.79049812   -6.6801074    4010.8008           39 
   85200   0.76514289   -6.6731308    3999.6755           51 
   85300   0.78726236   -6.6868257    3999.2536           58 
   85400   0.78506997    -6.667286    3990.8767           33 
   85500   0.76754469   -6.6723572    3995.2777           29 
   85600   0.79835211     -6.68953    4000.3385           58 
   85700    0.8007897   -6.6514297    4003.8549           66 
   85800   0.77899809   -6.6512073    3994.7929           61 
   85900   0.80285018   -6.6681981    3992.4642           73 
   86000   0.79100843   -6.6599084    3984.5623           59 
   86100   0.79202581   -6.6824519    3996.9604           49 
   86200   0.78903982   -6.6592109    4005.6221           33 
   86300   0.78968245   -6.6762855    4003.3871           65 
   86400   0.79012067   -6.6643788    3994.5643           89 
   86500   0.78367104   -6.6761681    3988.0104           75 
   86600   0.79628258   -6.6722262    3981.7719          139 
   86700    0.8014361   -6.6580835    4000.6599           90 
   86800   0.77823754   -6.6444105    4002.6639           67 
   86900   0.79161443   -6.6574965    4004.3407           80 
   87000    0.7786551   -6.6587885     4001.826           73 
   87100   0.79184609    -6.671065    4002.0231           36 
   87200   0.79489137   -6.6663093    4000.3102           24 
   87300   0.78276457   -6.6673927    3996.0133           39 
   87400   0.78606582   -6.6476108    4001.9446           11 
   87500   0.80496006   -6.6331622    3992.3349           12 
   87600    0.7985621   -6.6606983    4000.7838           21 
   87700   0.78680006   -6.6497197    3999.7556           16 
   87800   0.77984097    -6.668315    3997.2144           10 
   87900   0.79213177   -6.6514966    4008.7564           19 
   88000   0.77921579   -6.6545612    4005.1125           20 
   88100   0.79464744   -6.6642883    4009.0809           11 
   88200   0.79036172    -6.629251    4007.5147            7 
   88300    0.7940327   -6.6472749      3990.19            9 
   88400   0.79210664   -6.6844929    3977.3133            8 
   88500   0.78166636   -6.6636218    3991.3228           10 
   88600   0.78764843   -6.6472293    4000.6804            8 
   88700   0.79160716   -6.6558066     4006.113            8 
   88800   0.77847088   -6.6671663    3994.8516           10 
   88900   0.80898652   -6.6666856    3991.8326           13 
   89000   0.79843736   -6.6482804    3991.2181           15 
   89100   0.77410471   -6.6401116    3996.7524           13 
   89200   0.78882301   -6.6730481    4005.0403           10 
   89300   0.80111914    -6.663899    4000.0435           13 
   89400   0.80781685   -6.6327978    3994.5647            8 
   89500   0.80058264   -6.6700796    3994.0494           11 
   89600   0.79133877   -6.6455625    4009.6068           10 
   89700   0.80223117   -6.6538405    4010.9064            6 
   89800   0.78732528   -6.6746743    4003.0971           22 
   89900   0.78633654   -6.6405362    3996.2957           14 
   90000   0.80103877   -6.6327484    3989.4164           10 
   90100   0.79848473   -6.6602864    3984.8017           16 
   90200   0.79657682   -6.6736611    3992.1819           14 
   90300     0.804179   -6.6659633      3998.77           19 
   90400   0.79445159   -6.6558488    4010.4727           12 
   90500    0.7894944   -6.6651739    4008.1535           15 
   90600   0.77591836    -6.663668    4003.7082           18 
   90700    0.7932418   -6.6834618    4000.6523           23 
   90800   0.78493504   -6.6685078    3993.2239           29 
   90900   0.79818113   -6.7037341    3999.6368           44 
   91000   0.81092489   -6.6802891    3995.9875           52 
   91100   0.79002046    -6.668513    3975.7814           31 
   91200   0.80266361   -6.6916495    3987.0342           41 
   91300    0.7926549   -6.6927831    3990.9988           26 
   91400   0.79840869    -6.686349    3988.4016           35 
   91500   0.79820857   -6.6616276    3991.7146           32 
   91600   0.78479272   -6.6428071    3996.7515           33 
   91700   0.78128293   -6.6906669    4003.8351           35 
   91800   0.77759681   -6.6773851    3997.2173           33 
   91900   0.80206926   -6.6666551     3998.136           33 
   92000   0.78121707   -6.6761494    3997.7184           42 
   92100   0.78353501    -6.661375    3996.2065           38 
   92200   0.79378827   -6.6658229    3990.2226           34 
   92300   0.78217166   -6.6875065    3988.7696           34 
   92400   0.77802715   -6.6904671    3996.7331           24 
   92500   0.79524229   -6.6689885    3996.5789           44 
   92600   0.78137904   -6.6610698    3995.9898           34 
   92700   0.79706137    -6.703633    3990.6705           14 
   92800   0.78691253   -6.6911696    4000.0219           23 
   92900   0.77598355   -6.6587665    4011.1896           24 
   93000   0.78659967   -6.6380679    4013.1502           18 
   93100   0.78426616   -6.6624443    4012.2075           16 
   93200   0.79835798   -6.6675128    4002.2055            5 
   93300   0.78218632   -6.6592608    3982.2363           17 
   93400   0.78665463   -6.6574031    3984.2599           14 
   93500   0.77838608   -6.6485508    3990.4648           12 
   93600   0.78672083   -6.6744742    4005.2588            9 
   93700   0.79955865   -6.6667741    4013.5823           14 
   93800     0.787589   -6.6789556    3996.6346           16 
   93900   0.78179887   -6.6848983    3993.9916           25 
   94000   0.80683529   -6.6670488    4000.0287           17 
   94100   0.79707917   -6.6762659    3993.1162           15 
   94200   0.80048485   -6.6642854    3982.8868           18 
   94300   0.79187394    -6.654044    3988.5762           21 
   94400   0.78182894   -6.6765403    3997.1448           19 
   94500   0.78572033   -6.6730259    3989.0238           33 
   94600   0.79080141   -6.6868302    3991.0388           32 
   94700   0.81315881   -6.6827281    3994.8964           17 
   94800   0.79561466   -6.6504703    3980.9161           16 
   94900   0.80410497   -6.6682966    3977.7247           17 
   95000   0.80177452   -6.6851791    3982.1873           21 
   95100   0.77728428   -6.7016657    3987.5517           15 
   95200   0.79001006   -6.6798667     3991.384            9 
   95300   0.79371321   -6.6711296    4001.7183           16 
   95400   0.80709681   -6.6556035    3999.0213           15 
   95500   0.79053987   -6.6759979    3991.8926           14 
   95600   0.79596335   -6.6729293    3996.1139           14 
   95700   0.77897535   -6.6519767    3994.8988           15 
   95800   0.78409362   -6.6937129    3995.9518           28 
   95900   0.75810388   -6.6922006    3996.7429           19 
   96000    0.7752805   -6.6615243    3992.0923           18 
   96100   0.79714011   -6.6661204    3993.0344           32 
   96200   0.78848039   -6.6626505    3997.0532           33 
   96300    0.8085695   -6.6483139    3998.8236           20 
   96400   0.80070289   -6.6546831    3989.5772           31 
   96500   0.78222066   -6.6490155    3981.3731           64 
   96600   0.81029796   -6.6703106    3989.4651           38 
   96700   0.79816029   -6.6914682    3997.4024           21 
   96800   0.79343757   -6.6826218    3981.3851           17 
   96900   0.80451414   -6.6792605    3987.0231           15 
   97000   0.79793533   -6.6590548    3994.9734           16 
   97100   0.77982309   -6.6823844    3982.8188           24 
   97200   0.78829137   -6.6751275    3990.4538           34 
   97300   0.79015495   -6.6702862    3997.5825           31 
   97400   0.78660773   -6.6627349    4008.7578           45 
   97500   0.78382233   -6.6621162    4007.3643           44 
   97600   0.77686726   -6.6708506    4000.7821           38 
   97700   0.78729333   -6.6727323    3993.5182           22 
   97800   0.80771538   -6.6671687    4005.0902           25 
   97900   0.80305982   -6.6587332    3993.6469           23 
   98000   0.78039732   -6.6507619    3982.4696           22 
   98100   0.80437596   -6.6574108     3997.832           32 
   98200    0.8073778   -6.6513457      4002.88           23 
   98300   0.78838146   -6.6470875    3991.4954           16 
   98400   0.78661505   -6.6461485    3987.9691           27 
   98500   0.79672768   -6.6933252    3993.1637           27 
   98600   0.77171074   -6.6904521     3997.263           15 
   98700   0.78813368    -6.674967    4004.5744           17 
   98800   0.77551017   -6.6522513    4001.1751           25 
   98900   0.78711913   -6.6683648     3998.604           34 
   99000   0.76774391   -6.6826093    3995.4527           39 
   99100   0.77355593   -6.6775998    4004.7079           19 
   99200   0.78603441   -6.6630866    4002.2624           36 
   99300   0.77491044   -6.6671608     3992.641            9 
   99400   0.79178653   -6.6423364     3992.435           22 
   99500   0.77545054   -6.6394847    3996.0985           20 
   99600   0.78753805   -6.6578913    4001.0933           20 
   99700   0.79790181    -6.662098    4001.0504           13 
   99800   0.80270039   -6.6362901    3997.7604           16 
   99900   0.78204136   -6.6561707    3994.4399           17 
  100000   0.78601695   -6.6314788    3996.1565           25 
  100100   0.79444034   -6.6626015    4007.1546           23 
  100200    0.7885018    -6.663201    3998.9396           13 
  100300    0.7845154   -6.6883356    3999.5949           12 
  100400   0.78251082   -6.6462699    3998.7022           14 
  100500   0.79098621   -6.6414307    4008.0863           13 
  100600   0.78498095    -6.665088    4006.2339           12 
  100700   0.78957417   -6.6787034    4000.7433           12 
  100800   0.79133933   -6.6596009    3996.8194           11 
  100900   0.81009106   -6.6675049    3996.6423           10 
  101000   0.77818584   -6.6421938    3996.6029           14 
  101100   0.80284553   -6.6534711    4013.2361           25 
  101200    0.7773013   -6.6403779    4002.7656           22 
  101300   0.78648004   -6.6620981    4006.2644           21 
  101400   0.80633723   -6.6486845    3998.6624           18 
  101500   0.78355293   -6.6580279    3994.9163           18 
  101600   0.78792465   -6.6539772    3997.4226           22 
  101700   0.81574432   -6.6492992    4003.8359           35 
  101800   0.78920542   -6.6469992    3995.8303           21 
  101900   0.78058013   -6.6706439    4006.9847           13 
  102000   0.78304708   -6.6286877    4009.1806           12 
  102100    0.8019943   -6.6556996    3998.7143           10 
  102200   0.78881557   -6.6476259    3993.6066           13 
  102300    0.8035032    -6.671235    3988.6917           10 
  102400   0.78775266   -6.6929423    3987.4889           15 
  102500   0.80364539   -6.6847062     3998.334           20 
  102600   0.77619883   -6.6332275    3999.8526           34 
  102700   0.79532528   -6.6541824    4006.6794           40 
  102800   0.78661233   -6.6832371     3996.907           37 
  102900   0.78242285   -6.6727318    3991.9717           13 
  103000   0.78725767   -6.6648091     3986.102           20 
  103100   0.78287599   -6.6804992    3996.5451           22 
  103200    0.7855541   -6.6703422    3999.2473           16 
  103300   0.79624642   -6.6757023     3996.635           14 
  103400   0.78839094   -6.6740738    3996.3386           16 
  103500   0.78661545   -6.6642204    3990.2812           20 
  103600   0.78474056   -6.6470579    3993.1724            8 
  103700   0.78810392   -6.6779479     4000.648            9 
  103800   0.79874595   -6.6904402    4000.3526           16 
  103900   0.77036372   -6.6729875    3985.5793           13 
  104000   0.78673674   -6.6754335    3989.6364           12 
Loop time of 295.651 on 18 procs for 100000 steps with 4000 atoms

Performance: 58447.352 tau/day, 338.237 timesteps/s
99.6% CPU use with 18 MPI tasks x no OpenMP threads

MPI task timing breakdown:
Section |  min time  |  avg time  |  max time  |%varavg| %total
---------------------------------------------------------------
Pair    | 37.885     | 39.985     | 42.199     |  17.4 | 13.52
Neigh   | 4.1378     | 4.2335     | 4.3149     |   2.4 |  1.43
Comm    | 12.034     | 13.97      | 17.492     |  43.1 |  4.73
Output  | 6.404      | 6.4054     | 6.4213     |   0.2 |  2.17
Modify  | 224.28     | 227.66     | 231.07     |  14.0 | 77.00
Other   |            | 3.397      |            |       |  1.15

Nlocal:        222.222 ave         229 max         213 min
Histogram: 1 1 0 3 2 2 3 1 2 3
Nghost:        2367.78 ave        2383 max        2354 min
Histogram: 2 3 0 2 4 1 1 1 3 1
Neighs:        25596.1 ave       26725 max       24589 min
Histogram: 3 0 5 0 2 2 1 1 1 3
FullNghs:      51190.3 ave       53056 max       48966 min
Histogram: 1 0 4 1 2 2 2 2 2 2

Total # of neighbors = 921426
Ave neighs/atom = 230.35650
Neighbor list builds = 5308
Dangerous builds = 0

#clear
#
#next RN
#
#jump SELF
Total wall time: 0:04:57
