
units lj                  # Use reduced LJ style units
atom_style atomic         # Uncharged point particles
atom_modify map hash      # Needed for indexing of clusters etc
                          # Used to be able to find where atoms are in relation to each other.

# Define a lattice with which to populate the simulation cell. With units
# set to 'lj' the second argument to the lattice command is the reduced
# density rho* and the spacings are multiples of that required to acheive
# that density. Also define a simulation cell called 'box' in lattice units
# and fill it with atoms. Here we're creating a box which is ten lattice
# constants in each direction.
lattice fcc 1.0 spacing 1 1 1                 # All equal sizes - gives the right reduced density.
Lattice spacing in x,y,z = 1.5874011 1.5874011 1.5874011

region box block 0 10 0 10 0 10 units lattice # Defines a region, "box", in lattice units
create_box 1 box                              # Creates a simulation box as specified above,
Created orthogonal box = (0.0000000 0.0000000 0.0000000) to (15.874011 15.874011 15.874011)
  2 by 3 by 3 MPI processor grid
                                              # with one type of atom
create_atoms 1 box                            # Creates particles on lattice points
Created 4000 atoms
  using lattice units in orthogonal box = (0.0000000 0.0000000 0.0000000) to (15.874011 15.874011 15.874011)
  create_atoms CPU = 0.001 seconds


# Set the mass of the first (and only) atom type.
mass 1 1.0

# Lennard-Jones interactions between particles, 3.5 sigma cut-off. Apply
# long range tail corrections to energy and pressure and set all coefficients
# to unity since we work in reduced units here. Note that this doesn't shift
# the potential such that it goes to zero at the cutoff. That would require
# pair_modify('shift', 'yes').
pair_style lj/cut  3.5      # non-GPU version
pair_modify tail  yes
pair_coeff 1  1  1.0  1.0   # Intearaction between 1 and 1 set with epsilon = 1 and sigma = 1

write_data data.*
System init for write_data ...
Neighbor list info ...
  update every 1 steps, delay 10 steps, check yes
  max neighbors/atom: 2000, page size: 100000
  master list distance cutoff = 3.8
  ghost atom cutoff = 3.8
  binsize = 1.9, bins = 9 9 9
  1 neighbor lists, perpetual/occasional/extra = 1 0 0
  (1) pair lj/cut, perpetual
      attributes: half, newton on
      pair build: half/bin/atomonly/newton
      stencil: half/bin/3d
      bin: standard

#############################
#   M E L T   S Y S T E M   #
#############################

velocity all create 2.4 9580093 mom yes dist gaussian # Assign velocities
                                                    # Temperature 2.4, random number seed, zero linear momentum
						                                                        # Gaussian distribution

timestep 0.002   # simulation timestep
thermo 100       # output thermodynamic data every 100 steps

# Define a fix  in this case with index 1 applied to all
# particles in the simulation. This fix is for simulations
# in the anisotropic NPT ensemble. Note that we use the MTK
# correction.
fix 1 all npt temp 2.4 2.4 0.1 iso 5.68 5.68 0.5 mtk yes tchain 5 pchain 5 # Use NPT ensemble
                                                                         # Set temperature and pressure and damping
                                                                         # Numbers of thermostats in chain and in barostat
run 1000         # run for 10000 steps
Per MPI rank memory allocation (min/avg/max) = 3.680 | 3.683 | 3.691 Mbytes
Step Temp E_pair E_mol TotEng Press Volume 
       0          2.4   -8.3859253            0   -4.7868253   -2.2405722         4000 
     100     1.259173   -6.5129234            0   -4.6246361    5.4934905    4087.7331 
     200    1.4428249   -6.2687115            0   -4.1050152    6.0785122    4146.9382 
     300    1.5891892   -6.0266188            0   -3.6434309    5.7981853    4270.6634 
     400    1.6864341   -5.7131876            0   -3.1841689    5.8606885    4403.8234 
     500    1.7726955   -5.3925361            0   -2.7341577    6.0308441    4545.5702 
     600    1.8621927   -5.1101682            0   -2.3175776     5.891941    4707.0977 
     700    2.0370972   -4.9322753            0   -1.8773933    5.7586815    4836.4856 
     800     2.148017   -4.7251145            0   -1.5038945     5.695937    4973.8339 
     900    2.2849312   -4.5953229            0    -1.168783    5.5901698    5080.7682 
    1000    2.3668384   -4.4671643            0  -0.91779423    5.6325458    5159.4021 
Loop time of 0.558168 on 18 procs for 1000 steps with 4000 atoms

Performance: 309584.117 tau/day, 1791.575 timesteps/s
99.5% CPU use with 18 MPI tasks x no OpenMP threads

MPI task timing breakdown:
Section |  min time  |  avg time  |  max time  |%varavg| %total
---------------------------------------------------------------
Pair    | 0.3197     | 0.34354    | 0.35843    |   2.0 | 61.55
Neigh   | 0.062093   | 0.064923   | 0.067447   |   0.7 | 11.63
Comm    | 0.10689    | 0.12155    | 0.14411    |   3.2 | 21.78
Output  | 0.00021465 | 0.00022607 | 0.00029108 |   0.0 |  0.04
Modify  | 0.022053   | 0.024988   | 0.028986   |   1.3 |  4.48
Other   |            | 0.002932   |            |       |  0.53

Nlocal:        222.222 ave         234 max         215 min
Histogram: 2 2 2 5 2 2 0 2 0 1
Nghost:        2027.72 ave        2047 max        2008 min
Histogram: 2 2 2 2 0 1 3 3 1 2
Neighs:        19701.2 ave       20972 max       19058 min
Histogram: 4 2 5 1 2 0 1 0 2 1

Total # of neighbors = 354621
Ave neighs/atom = 88.655250
Neighbor list builds = 86
Dangerous builds = 13

# Equilibrate just above the melting temperature to avoid step fn in T

fix 1 all npt temp 1.25 1.25 0.1 iso 5.68 5.68 0.5 mtk yes tchain 5 pchain 5
run 1000
Per MPI rank memory allocation (min/avg/max) = 3.680 | 3.684 | 3.691 Mbytes
Step Temp E_pair E_mol TotEng Press Volume 
    1000    2.3668384   -4.4671643            0  -0.91779423    5.6325458    5159.4021 
    1100    1.9574321   -4.6876242            0   -1.7522101     5.742239    4978.1866 
    1200    1.7073045   -4.9488657            0   -2.3885491    5.6650364    4816.0505 
    1300    1.5538685   -5.2008727            0   -2.8706526    5.5388719    4686.2818 
    1400    1.4591125   -5.3988943            0   -3.2107727    5.7038561    4562.2733 
    1500    1.3734001   -5.5325252            0     -3.47294    5.7668218    4485.3709 
    1600    1.3312993   -5.6768418            0    -3.680392    5.7740875    4414.4243 
    1700    1.2798366    -5.761926            0    -3.842651    5.6016442    4388.0724 
    1800    1.2633462   -5.8402242            0   -3.9456787    5.5372513    4356.6355 
    1900    1.2453639    -5.852051            0   -3.9844721    5.6853926     4338.989 
    2000     1.269018    -5.839491            0   -3.9364398    5.7926253    4334.2464 
Loop time of 0.541432 on 18 procs for 1000 steps with 4000 atoms

Performance: 319153.939 tau/day, 1846.956 timesteps/s
99.8% CPU use with 18 MPI tasks x no OpenMP threads

MPI task timing breakdown:
Section |  min time  |  avg time  |  max time  |%varavg| %total
---------------------------------------------------------------
Pair    | 0.32747    | 0.34284    | 0.36478    |   1.5 | 63.32
Neigh   | 0.054846   | 0.056896   | 0.058807   |   0.4 | 10.51
Comm    | 0.093857   | 0.11205    | 0.12571    |   2.2 | 20.69
Output  | 0.00022573 | 0.00023474 | 0.00030282 |   0.0 |  0.04
Modify  | 0.02179    | 0.026079   | 0.032445   |   2.0 |  4.82
Other   |            | 0.003335   |            |       |  0.62

Nlocal:        222.222 ave         232 max         213 min
Histogram: 1 1 3 3 0 4 2 2 1 1
Nghost:        2247.39 ave        2263 max        2230 min
Histogram: 2 1 1 3 2 0 1 4 3 1
Neighs:        23426.6 ave       25065 max       21406 min
Histogram: 1 1 1 3 1 4 2 2 1 2

Total # of neighbors = 421679
Ave neighs/atom = 105.41975
Neighbor list builds = 75
Dangerous builds = 6


# Small amount of linear quench

fix 1 all npt temp 1.25 ${temp} 0.1 iso 5.68 5.68 0.5 mtk yes tchain 5 pchain 5
fix 1 all npt temp 1.25 1 0.1 iso 5.68 5.68 0.5 mtk yes tchain 5 pchain 5
run 2000
Per MPI rank memory allocation (min/avg/max) = 3.680 | 3.684 | 3.691 Mbytes
Step Temp E_pair E_mol TotEng Press Volume 
    2000     1.269018    -5.839491            0   -3.9364398    5.7926253    4334.2464 
    2100    1.2368591   -5.8553298            0    -4.000505    5.6351548    4341.0233 
    2200    1.2155923    -5.843922            0   -4.0209895    5.7325885    4331.8502 
    2300    1.2179675   -5.8719673            0   -4.0454727    5.6946749    4325.3368 
    2400    1.1761593   -5.8622112            0   -4.0984133    5.7336827    4324.6137 
    2500     1.199493   -5.9443833            0   -4.1455936    5.5186527     4307.654 
    2600    1.1792243   -5.9498654            0   -4.1814712    5.6360245    4296.2382 
    2700    1.1631631   -5.9654282            0   -4.2211198    5.8217528    4273.9205 
    2800      1.17134   -5.9829344            0   -4.2263637     5.831268    4266.8451 
    2900     1.146678   -5.9879967            0   -4.2684097    5.7491122     4272.316 
    3000    1.1178334   -6.0016827            0   -4.3253518    5.8721085    4253.4434 
    3100    1.1113668   -6.0321254            0   -4.3654919    5.9542906    4234.1162 
    3200    1.1146874   -6.0594169            0   -4.3878037    5.9297943     4225.448 
    3300    1.1021686   -6.0816205            0    -4.428781     5.973408    4210.9477 
    3400    1.0778455     -6.11795            0   -4.5015859    5.8059682    4208.9675 
    3500    1.0684635   -6.1620728            0   -4.5597782    5.4958246    4215.5342 
    3600     1.043593    -6.180298            0   -4.6152997    5.4902156    4205.5082 
    3700    1.0374875   -6.1966357            0   -4.6407935    5.5002694    4198.7876 
    3800    1.0307765   -6.2222514            0   -4.6764732    5.6690596    4175.2941 
    3900    1.0184737   -6.2089588            0   -4.6816302    5.8458224    4166.3314 
    4000   0.99420838   -6.2284483            0   -4.7375085     5.840921    4158.4016 
Loop time of 1.11869 on 18 procs for 2000 steps with 4000 atoms

Performance: 308933.166 tau/day, 1787.808 timesteps/s
99.8% CPU use with 18 MPI tasks x no OpenMP threads

MPI task timing breakdown:
Section |  min time  |  avg time  |  max time  |%varavg| %total
---------------------------------------------------------------
Pair    | 0.71337    | 0.73599    | 0.78941    |   2.2 | 65.79
Neigh   | 0.09683    | 0.098945   | 0.10169    |   0.4 |  8.84
Comm    | 0.17911    | 0.22484    | 0.24025    |   3.2 | 20.10
Output  | 0.00042903 | 0.00044584 | 0.00057499 |   0.0 |  0.04
Modify  | 0.042345   | 0.051064   | 0.063988   |   3.0 |  4.56
Other   |            | 0.007404   |            |       |  0.66

Nlocal:        222.222 ave         228 max         213 min
Histogram: 1 0 2 0 1 2 5 4 1 2
Nghost:        2308.83 ave        2324 max        2290 min
Histogram: 1 0 2 4 1 1 2 3 3 1
Neighs:        24432.9 ave       26042 max       23427 min
Histogram: 2 3 1 4 2 4 0 1 0 1

Total # of neighbors = 439793
Ave neighs/atom = 109.94825
Neighbor list builds = 126
Dangerous builds = 0

#############################
# F R E E Z E  S Y S T E M  #
#############################

# Define solid atoms. This closely follows ten Wolde  Ruiz-Montero and Frenkel  Faraday Discuss  1996  104  93-110
# Compute components of the per-atom q6 vector
compute q6 all orientorder/atom degrees 1 6 components 6 nnn NULL cutoff 1.3 # compute the Q6 parameter.
                                                                             # Use all neighbours within 1.3 unit cell.

# get number of connections
compute coord_number all coord/atom orientorder q6 0.5

# An atom is solid if it has 8 or more connections (of a possible 14)
variable is_solid atom c_coord_number>=8
group solid dynamic all var is_solid    # Must be dynamic to update
dynamic group solid defined

# do clustering
compute cluster solid cluster/atom 1.3 # Create a cluster where all atoms within are solid and max 1.3 units from another member

# define chunks one chunk per cluster
compute clus_chunks solid chunk/atom c_cluster nchunk every compress yes  # Says which atoms are in which chunk

# count the size of each chunk
compute size_chunks solid property/chunk clus_chunks count


# Find the maximum entry in the vector of chunk sizes
variable max_n equal max(c_size_chunks)


# Thermo style which includes this variable
thermo_style custom step temp pe vol v_max_n

thermo ${N}  # Print the thermo information every 100 steps
thermo 100  

# Reset the npt fix at a lower temperature (below freezing)
fix 1  all npt temp  ${temp} ${temp}  0.1  iso  5.68  5.68  0.5  mtk yes tchain  5  pchain  5
fix 1  all npt temp  1 ${temp}  0.1  iso  5.68  5.68  0.5  mtk yes tchain  5  pchain  5
fix 1  all npt temp  1 1  0.1  iso  5.68  5.68  0.5  mtk yes tchain  5  pchain  5

dump dmp2 all dcd ${N} traj_${rand}.dcd
dump dmp2 all dcd 100 traj_${rand}.dcd
dump dmp2 all dcd 100 traj_462431.dcd


# fix rnuntil all halt ${N} v_max_n >= 3980 error soft message no   # Stop when solidified


run 100000 # 5000000  # Run for this many steps
Neighbor list info ...
  update every 1 steps, delay 10 steps, check yes
  max neighbors/atom: 2000, page size: 100000
  master list distance cutoff = 3.8
  ghost atom cutoff = 3.8
  binsize = 1.9, bins = 9 9 9
  4 neighbor lists, perpetual/occasional/extra = 1 3 0
  (1) pair lj/cut, perpetual
      attributes: half, newton on
      pair build: half/bin/atomonly/newton
      stencil: half/bin/3d
      bin: standard
  (2) compute orientorder/atom, occasional
      attributes: full, newton on
      pair build: full/bin/atomonly
      stencil: full/bin/3d
      bin: standard
  (3) compute coord/atom, occasional
      attributes: full, newton on
      pair build: full/bin/atomonly
      stencil: full/bin/3d
      bin: standard
  (4) compute cluster/atom, occasional
      attributes: full, newton on
      pair build: full/bin/atomonly
      stencil: full/bin/3d
      bin: standard
Per MPI rank memory allocation (min/avg/max) = 9.501 | 9.505 | 9.509 Mbytes
Step Temp PotEng Volume v_max_n 
    4000   0.99420838   -6.2284483    4158.4016            8 
    4100     1.000575   -6.2753853    4146.5711            5 
    4200    1.0122631   -6.2695472    4142.6743            4 
    4300    1.0139514   -6.2669899    4141.6131           12 
    4400    1.0095148   -6.2621831    4142.9136            8 
    4500   0.99705582   -6.2536735    4149.2622            5 
    4600    1.0216104   -6.2487824     4150.546            5 
    4700   0.99183184   -6.2401986    4146.7743            5 
    4800    1.0041632   -6.2340128    4169.0274            4 
    4900    1.0048544    -6.228629    4158.0252            8 
    5000    1.0018876   -6.2551952    4157.8149            8 
    5100   0.98774781    -6.280549    4151.3201            5 
    5200    1.0135671   -6.2791244    4155.0247           10 
    5300    1.0139359    -6.244365    4148.4385            9 
    5400    1.0012291   -6.2504199    4144.5332           15 
    5500    1.0020922   -6.2817321    4148.7041           10 
    5600    1.0070629   -6.2693579    4154.3392            6 
    5700    1.0179417    -6.286329    4151.8316           12 
    5800   0.98859495   -6.2686239    4139.2826            6 
    5900    1.0020708   -6.2883694     4143.801            7 
    6000    1.0091328   -6.2743125    4153.6979            3 
    6100    1.0069179   -6.2861577    4147.7861            2 
    6200    1.0002149   -6.3080469    4140.5288            4 
    6300   0.99697856   -6.2655299    4142.0537            4 
    6400   0.99054321    -6.243446     4150.063            4 
    6500     1.000715   -6.2877197     4148.185            7 
    6600   0.99006667   -6.3069834    4145.8006            5 
    6700    1.0139031   -6.2993644    4144.5218            3 
    6800   0.99723512   -6.2844136    4147.0107            3 
    6900   0.99897933   -6.2589325      4147.14            6 
    7000    1.0017473   -6.3033717     4145.181            5 
    7100    1.0202521   -6.3189132    4145.0118            5 
    7200   0.99122484   -6.2921726    4145.7472            4 
    7300    1.0086891   -6.2810439    4151.0178            5 
    7400   0.97746126   -6.2772832    4155.5053            5 
    7500   0.94504425   -6.2953812    4146.6276            4 
    7600   0.99110825   -6.2965554    4149.5665            7 
    7700   0.99627587   -6.2927436    4160.0384            5 
    7800    1.0050739   -6.2504765    4166.4756            4 
    7900   0.99666719   -6.2700755    4143.3159            5 
    8000    1.0168872   -6.2957134    4144.7145           13 
    8100   0.97817045   -6.2893762    4151.4078           14 
    8200   0.98758016   -6.2646815    4167.7556            4 
    8300    1.0036164   -6.2432568     4170.395            7 
    8400   0.99516827   -6.2702777    4155.4078            3 
    8500   0.99753243    -6.273532    4155.2381            6 
    8600   0.99011336   -6.2587077    4166.6261            6 
    8700    1.0088786   -6.2838431    4162.6232            4 
    8800    0.9942808   -6.2578168    4168.8318            3 
    8900   0.99136222   -6.2843955    4149.6856            5 
    9000   0.99922552   -6.2630451    4143.4135            3 
    9100    1.0207295   -6.2642175     4152.261            3 
    9200    1.0223681   -6.2520867    4152.7423            4 
    9300   0.99871037   -6.2616216    4146.9546            6 
    9400    1.0209897   -6.2730697    4142.6918            6 
    9500    1.0063337   -6.2877115    4131.6978            5 
    9600    1.0010609   -6.2325117    4147.7169            4 
    9700    1.0072176   -6.2444368    4143.6423            3 
    9800      1.01699   -6.2652266    4140.3046            6 
    9900     1.015624   -6.2852864     4141.035            7 
   10000   0.99777928   -6.2700032    4148.8492            7 
   10100    1.0007998   -6.2482147    4164.8142            7 
   10200    1.0020725   -6.2420503    4155.6821            7 
   10300   0.99298302   -6.2766863    4149.6449            5 
   10400   0.98491584   -6.2725794    4152.1423            6 
   10500    1.0012975   -6.2690917    4145.3634           10 
   10600    1.0226872   -6.2348579    4152.7919            7 
   10700   0.98906956   -6.2316527    4146.0932            8 
   10800    1.0083037   -6.2535516    4155.1471            5 
   10900   0.99544061    -6.271152    4156.3324            5 
   11000    1.0060787   -6.2778121    4157.3153            2 
   11100    1.0066135   -6.2453628    4165.9308            8 
   11200   0.98017275   -6.2580003    4161.2084            5 
   11300    1.0091739   -6.2616379    4164.6731            3 
   11400   0.99224391   -6.2542634    4167.2838            4 
   11500   0.99938112   -6.2448189    4162.7813            5 
   11600    1.0102416   -6.2417834     4163.411            5 
   11700   0.99970231   -6.2795297    4156.9835            8 
   11800   0.98729075   -6.2971941    4164.8891           10 
   11900    0.9987014   -6.2861467    4158.6382            4 
   12000    1.0244485   -6.2595027    4154.5578            6 
   12100   0.99868439   -6.2409825    4157.0466            4 
   12200    1.0207193   -6.3008792    4152.7265            7 
   12300    1.0038375     -6.31681    4153.0491            9 
   12400   0.98405586     -6.29162    4152.2205           10 
   12500     1.004204   -6.3092337    4146.3307            7 
   12600   0.98275208   -6.2644165    4154.5516            7 
   12700   0.99298922   -6.2700198    4163.4573            6 
   12800   0.99979551   -6.2980382     4154.761           11 
   12900   0.99060574   -6.2985411    4144.8198            7 
   13000   0.97808797   -6.2526421    4154.4179            8 
   13100    1.0226658   -6.2665782    4156.7637            8 
   13200    1.0111099   -6.2770148    4138.4265            9 
   13300   0.99411047   -6.2519623    4133.4097            7 
   13400    1.0162489    -6.260999    4146.2432            7 
   13500    1.0120621   -6.2700215    4153.8916            8 
   13600    1.0074051   -6.2915203    4136.0902            4 
   13700    1.0112655   -6.2761336    4141.7783            9 
   13800   0.99745103   -6.2604282    4152.7319            3 
   13900   0.98807012   -6.2774867    4152.2499            5 
   14000   0.99282833   -6.3006474    4131.7251            6 
   14100   0.98343129   -6.2799117    4142.0003            4 
   14200    1.0049592   -6.2838277    4149.4682            4 
   14300    1.0151862    -6.257354    4157.4484            7 
   14400    1.0049564   -6.2817936    4153.0845            6 
   14500   0.97483531   -6.2751912    4155.5594            3 
   14600   0.99142356   -6.2852416    4167.1635            3 
   14700   0.99882235   -6.3218325    4173.4719            5 
   14800   0.97431621   -6.3030777    4158.9979            3 
   14900   0.98325818   -6.2615084    4171.9971            7 
   15000    1.0146631   -6.2973242    4168.5687            6 
   15100   0.99898283   -6.2831421    4158.6495            7 
   15200   0.98403089   -6.3075395    4143.6845           14 
   15300   0.97804632   -6.2646053    4144.5117            5 
   15400    1.0175364   -6.2847779    4148.3165           12 
   15500   0.99222029   -6.2761715    4148.7421            5 
   15600    1.0178098   -6.2647556    4156.6257            3 
   15700   0.99990663   -6.2889803    4147.9292            6 
   15800    1.0119956   -6.2949485    4137.7188            3 
   15900     1.010502    -6.283555    4126.8351            7 
   16000    1.0185317   -6.2873444    4129.4282           10 
   16100    0.9963577   -6.2580313    4140.4433            8 
   16200    1.0164015   -6.2731196    4137.5705           14 
   16300   0.99850314    -6.267952    4137.7618            8 
   16400    1.0341243   -6.2596043     4150.326            5 
   16500     1.008215   -6.2509194    4152.9563            7 
   16600   0.99229401   -6.2432375    4149.9899           15 
   16700   0.98583753     -6.28245    4150.1726            5 
   16800    1.0062824   -6.2935585    4136.7672            6 
   16900    1.0270242   -6.2724115    4155.6306           12 
   17000    1.0096166   -6.2485346    4157.4447            6 
   17100    1.0055311   -6.2831256    4138.5726            3 
   17200   0.98624251   -6.2627379    4131.4663            7 
   17300    1.0203553   -6.2585716    4151.3998            6 
   17400    0.9888119   -6.2481699     4147.207            4 
   17500    1.0111827   -6.2358158    4153.8618           12 
   17600   0.99658867   -6.2194067    4154.2391            4 
   17700    1.0003367   -6.2691888     4146.806            6 
   17800   0.98267364   -6.2664962    4139.0128           10 
   17900    0.9979232   -6.2452747    4137.5323            5 
   18000    1.0021104   -6.2688136    4140.2929           14 
   18100   0.99959676   -6.2799163    4139.9053            8 
   18200    1.0104756   -6.2732366    4150.8077            7 
   18300   0.99378576   -6.2708885    4141.2697           10 
   18400   0.97000738    -6.269033    4140.7391            4 
   18500    1.0169813   -6.2833487    4158.8787            7 
   18600   0.98066962   -6.2538091    4159.4717            8 
   18700    1.0071508   -6.2847764    4148.5674            6 
   18800     1.025851   -6.2693254    4151.0801            8 
   18900   0.98896457   -6.2546766    4152.2197            8 
   19000    1.0241512   -6.2631528    4131.4284            7 
   19100    1.0222306   -6.2550116    4134.3143            5 
   19200   0.99984952   -6.2563369    4136.0601            6 
   19300    1.0089497   -6.2744917    4138.8837            9 
   19400    1.0025821   -6.2655256    4142.5258            4 
   19500    1.0107558   -6.2519341    4157.8876            5 
   19600   0.98867928   -6.2676336     4156.336            8 
   19700   0.98466853   -6.2704162    4157.7301            7 
   19800   0.99519002   -6.2421398     4160.284            8 
   19900   0.98952209   -6.2514262    4155.1221            6 
   20000    1.0129494      -6.2488     4145.654            5 
   20100    1.0480898   -6.2535661    4158.7677            7 
   20200    1.0256194   -6.2579984    4150.8131           12 
   20300    1.0135401   -6.2748643    4149.0036            8 
   20400    1.0057853   -6.2500932    4144.9908            9 
   20500   0.98604556   -6.2490799    4152.5539            4 
   20600   0.99100089   -6.2468999    4159.4317            6 
   20700    1.0120072   -6.2622696    4144.2917            7 
   20800   0.97361336   -6.2439319    4148.9557            3 
   20900   0.99418258    -6.242731     4146.141            4 
   21000    1.0080652   -6.2545753    4147.9889            4 
   21100    1.0121017   -6.2149588    4158.2635            6 
   21200   0.98508747   -6.2453545    4154.3203            5 
   21300   0.99173384   -6.2543314    4145.8877            5 
   21400   0.99802456   -6.2875028     4142.696            5 
   21500    1.0113621    -6.305459    4139.1256            5 
   21600    0.9955815   -6.2537033    4143.5874            7 
   21700   0.98279263   -6.2854581    4129.3796            7 
   21800     1.009949   -6.2906033    4148.3789            9 
   21900    1.0032146   -6.2567654    4163.3741           11 
   22000   0.98571336   -6.2219442    4168.5751            4 
   22100    1.0094885   -6.2628825    4159.1153            5 
   22200    1.0023547   -6.2787481    4158.2169           10 
   22300     1.020136   -6.2503138    4153.4035            6 
   22400   0.99194912   -6.2465969    4147.6405            3 
   22500   0.99063465   -6.2496205    4145.7864            5 
   22600    1.0090937   -6.2243576    4158.6392            5 
   22700   0.98288883   -6.2465927    4161.2787           12 
   22800    1.0233095   -6.2796326    4158.2006            4 
   22900    1.0064143   -6.2971363     4152.554            8 
   23000    1.0036592   -6.2437238    4143.4396           11 
   23100    1.0155378   -6.2244441     4148.087            7 
   23200   0.98423828   -6.2038386    4157.9829            5 
   23300    1.0110844   -6.2297033    4162.4163            5 
   23400   0.98727215   -6.2543132    4146.0288           13 
   23500   0.99865518   -6.2695861    4141.1548           11 
   23600    1.0043528   -6.2842989    4131.4914            8 
   23700    1.0006925   -6.2461791    4158.9343            3 
   23800   0.99315571   -6.2589839    4160.5685            9 
   23900   0.97524196   -6.2757233    4154.3617           12 
   24000    1.0012836   -6.2574233    4148.0269           10 
   24100    1.0066082   -6.2614085    4146.0101            6 
   24200    1.0133123   -6.2605624     4157.325            8 
   24300    1.0152037    -6.254215    4151.6838            6 
   24400   0.99316313   -6.2628847    4141.2643            6 
   24500   0.99553617   -6.2869743    4138.5114            8 
   24600    1.0018083    -6.275262    4149.7785           12 
   24700    1.0021641   -6.2651779    4159.7281            6 
   24800    1.0159501   -6.2683096    4164.3422            5 
   24900   0.98689104   -6.2636756    4168.7435            9 
   25000   0.97832891    -6.315614    4160.1115            5 
   25100   0.97428624   -6.2796093    4159.0773            7 
   25200    1.0075252   -6.2797472    4152.1637           10 
   25300   0.99705965   -6.2264756    4153.9813            7 
   25400    1.0114961   -6.2534594     4146.801            3 
   25500    1.0006957    -6.263954    4150.1362            7 
   25600    1.0159925   -6.2818165     4164.959            9 
   25700    1.0312824   -6.2711782    4168.7982            3 
   25800    1.0068162   -6.2862796     4150.722            5 
   25900   0.99377736   -6.2869261    4155.2396            9 
   26000    1.0164641    -6.266737    4176.3561            5 
   26100    1.0061997   -6.2659685    4181.9257            8 
   26200   0.98125181   -6.2526378    4162.6718            4 
   26300    1.0078219   -6.2841469    4160.7831            7 
   26400   0.98463918   -6.2851367    4169.9772            6 
   26500   0.97635296   -6.2747269     4166.467            5 
   26600   0.99987599   -6.2630204    4167.1955            3 
   26700    1.0204381   -6.2883508    4157.5944            6 
   26800    0.9786775   -6.2594857    4150.9763            3 
   26900    1.0027771   -6.2926667     4146.484            3 
   27000    1.0120427   -6.2587981    4160.3711            4 
   27100    1.0149352   -6.2755584    4164.7894            9 
   27200   0.98271489   -6.2611778    4150.9488            8 
   27300    1.0136383   -6.2729693    4157.5074            6 
   27400   0.97688383   -6.2663995    4164.6063            7 
   27500    1.0076575     -6.27015    4180.2017            8 
   27600   0.98416252   -6.2772432    4163.3947           11 
   27700    0.9969142   -6.2843051    4160.9102            7 
   27800     1.019783   -6.2609417    4165.7535            7 
   27900    1.0257215   -6.2334762    4170.7277            5 
   28000    1.0031791   -6.2467312     4157.212            3 
   28100    1.0072356   -6.2668438    4157.4592            4 
   28200     1.003366   -6.2463918    4152.7859            5 
   28300    0.9795067   -6.2687889    4159.3561            8 
   28400   0.98905943   -6.2459354    4166.4329           12 
   28500   0.98979438   -6.2487376    4165.4282            5 
   28600   0.99390021    -6.268739    4149.3775            5 
   28700    1.0003975   -6.2611508      4144.05            8 
   28800    1.0232122   -6.2722021    4156.2344            7 
   28900    1.0008914   -6.2856794    4148.5191            6 
   29000   0.98315563   -6.2806863    4154.5116            6 
   29100   0.99939874    -6.291424    4157.2326            7 
   29200    1.0290602   -6.2777185    4157.2119            8 
   29300    1.0124208   -6.2420407    4145.3406            5 
   29400   0.98829279   -6.2542737    4153.1208           10 
   29500   0.98114094   -6.2575785     4149.393            5 
   29600    0.9998257   -6.2536708    4150.0693            6 
   29700    1.0060067   -6.2788241    4149.2522            5 
   29800    1.0204192   -6.3034923    4136.8594            8 
   29900    1.0235254   -6.2917681    4132.4376            4 
   30000   0.99905185   -6.2893143    4137.8614           11 
   30100   0.99615295   -6.2945431     4138.478            7 
   30200   0.98938669   -6.2941751    4136.8434            4 
   30300    1.0006248   -6.2661562    4153.7381           11 
   30400    1.0050726   -6.2768761    4157.7439            6 
   30500   0.99611607   -6.2996471    4147.3297            3 
   30600    1.0021547   -6.2810835    4150.5158           13 
   30700    1.0107002   -6.2676582    4165.9772           10 
   30800    1.0182231   -6.2624926    4169.9048            6 
   30900   0.98952713   -6.2660505    4161.9189            9 
   31000   0.99810541   -6.2820636    4159.4856            9 
   31100   0.98701292   -6.2897405    4149.8341           11 
   31200   0.97694238   -6.2943839    4144.8642            7 
   31300     1.006594   -6.3253838    4151.0536            7 
   31400    1.0040468   -6.2918234    4163.2023           14 
   31500   0.98571553   -6.3126365     4153.856            9 
   31600   0.99077663   -6.3163883    4147.3478            4 
   31700    1.0018713   -6.2815822    4162.3064            6 
   31800   0.98073673   -6.2872574      4147.68           11 
   31900   0.98962621   -6.2742352    4149.9746            9 
   32000   0.98982202   -6.2486772    4156.9598           12 
   32100    1.0150522   -6.2566495    4153.4715            8 
   32200    1.0123805   -6.3009459     4141.728            4 
   32300   0.99230738    -6.281681    4149.9319            6 
   32400    1.0045877   -6.2793979    4148.0003            6 
   32500    0.9924582   -6.2938242    4144.2514            6 
   32600    0.9737341    -6.262328     4150.572            5 
   32700    0.9998824   -6.2711121    4159.0045            6 
   32800   0.97905422   -6.3053504     4161.679            7 
   32900    0.9884786   -6.2746717    4165.3399            6 
   33000   0.98653901   -6.2749287    4168.3545            7 
   33100    0.9778853   -6.2957603    4155.6135            6 
   33200   0.99854472   -6.2655298     4162.269            6 
   33300   0.98964904   -6.2546734    4157.6976            4 
   33400    0.9925759   -6.2962395    4146.4167            6 
   33500   0.98643434   -6.2485039    4146.4337            6 
   33600    1.0175985   -6.2667119    4159.1123            5 
   33700   0.98367573   -6.2587625    4159.3991            5 
   33800    1.0235215   -6.2732064     4166.065            5 
   33900    1.0139241   -6.2655719    4159.2185            5 
   34000   0.99540442   -6.2825078    4156.8402           10 
   34100    1.0082264   -6.2937697    4156.3814            6 
   34200   0.98086778   -6.2785054    4146.0244            6 
   34300    1.0080274   -6.2696925    4157.1869            8 
   34400   0.97882237   -6.2660337    4169.3395            9 
   34500   0.98743938   -6.2333479     4164.212            6 
   34600    1.0114929   -6.2288196    4147.0804            5 
   34700    1.0134305   -6.2741173    4140.0945            8 
   34800    1.0037729    -6.269007    4151.8131            5 
   34900    1.0269567   -6.2781716    4154.5173            7 
   35000    1.0021018   -6.2605213    4156.4093           10 
   35100    1.0206082   -6.2664473    4165.0441            7 
   35200   0.99626118   -6.2635108    4149.9635            4 
   35300   0.98551112    -6.266799    4155.5778            6 
   35400    1.0170577   -6.2643565    4156.6826            8 
   35500   0.99443855   -6.2550586    4163.0183           13 
   35600    1.0062452    -6.295008    4164.3698            8 
   35700    1.0028843   -6.2887196    4161.7097           13 
   35800   0.99529373   -6.2276051     4168.054            6 
   35900   0.99502982    -6.236926    4161.9354            3 
   36000    1.0117245   -6.2454646    4151.8666            9 
   36100      1.00449   -6.2702678    4138.5017            6 
   36200     1.000464   -6.2668731    4138.8951            9 
   36300    1.0322737   -6.2661797    4152.7177           13 
   36400    1.0092342   -6.2674097    4154.2562            5 
   36500   0.99790203   -6.2653758     4148.727            7 
   36600   0.99375413   -6.2595888    4150.0505            4 
   36700    1.0030503   -6.2552047    4151.9123            5 
   36800   0.98594271   -6.2789973    4140.6893            4 
   36900    0.9832864    -6.315489    4145.2985            7 
   37000   0.98092764   -6.2864351    4142.8839            5 
   37100    1.0116979   -6.2915664    4161.3086            7 
   37200   0.99403835   -6.2775506    4150.9881            8 
   37300    1.0044358   -6.2565935     4152.031            9 
   37400    1.0127787   -6.2488478    4157.5389            7 
   37500   0.99345272   -6.2618209    4143.4705            6 
   37600   0.99725778   -6.2848729    4131.0707            9 
   37700    1.0016673   -6.2465531    4140.3599            7 
   37800    1.0219461   -6.2505837    4147.4539            4 
   37900    1.0095481   -6.2840054    4146.1119            5 
   38000   0.98477738   -6.2480035    4154.5274            7 
   38100   0.99777272   -6.2482713    4160.3889            8 
   38200   0.98369433   -6.2771225    4144.6035            6 
   38300   0.99273575   -6.2495502    4149.3358            5 
   38400    1.0027455   -6.2405773    4152.6701            5 
   38500    1.0009181   -6.2478275    4153.8535            7 
   38600   0.99919569   -6.2620819    4154.3293            8 
   38700    1.0333011   -6.2606364     4156.414            7 
   38800    1.0015942   -6.2408232    4149.2858            6 
   38900    1.0096114   -6.2473577    4151.8252            4 
   39000   0.98412197   -6.2544813    4149.8488            5 
   39100    1.0067879    -6.262521    4152.9765            8 
   39200   0.99304244   -6.2560775    4170.1412            4 
   39300    0.9977252   -6.2875208     4173.766            5 
   39400   0.99994049   -6.2835896    4163.4199            3 
   39500   0.99832229   -6.2857189    4160.3901            7 
   39600   0.97813771   -6.2762901    4148.7466            5 
   39700    1.0016765   -6.2761466    4161.0183            4 
   39800    1.0169717   -6.2846363     4148.958            3 
   39900    0.9818329   -6.2576953    4153.3655            4 
   40000    1.0227277    -6.286246     4163.104            3 
   40100   0.98704805   -6.2792031    4139.9857            8 
   40200    1.0059042    -6.285983    4151.1153           11 
   40300   0.99948542   -6.2433782    4159.1833            9 
   40400   0.99213581   -6.2576309    4153.7069            6 
   40500   0.98224574   -6.2693571    4154.6712            6 
   40600    1.0051478   -6.2520064    4160.3118            5 
   40700     1.012533   -6.2309322     4145.664            4 
   40800    1.0118255   -6.2618231    4135.9888            8 
   40900    1.0175394   -6.3117187    4117.4253            9 
   41000    1.0043828   -6.3003198    4130.3816           10 
   41100    1.0035637   -6.2797955    4138.6398            5 
   41200    1.0125365   -6.2749518    4139.9114            6 
   41300   0.98786309   -6.2433509    4141.3685            4 
   41400     1.036054   -6.2733211    4147.0984            9 
   41500   0.99574481    -6.260271    4144.9918           10 
   41600    1.0031306   -6.2804794    4151.9095            8 
   41700    1.0313512   -6.2719791    4165.3223            3 
   41800    1.0014667   -6.2743838    4159.6142            3 
   41900    1.0006794   -6.2585988    4160.4148            4 
   42000   0.99059076   -6.2789002    4157.9881            7 
   42100    1.0047743   -6.2760296    4151.5111            6 
   42200    1.0118482   -6.2492918    4164.0797            6 
   42300   0.99479136   -6.2720094    4147.4693            6 
   42400    1.0244215   -6.2770495    4150.0746            7 
   42500     1.008215   -6.2497182    4148.6602            6 
   42600    1.0003486   -6.2401583    4143.0654            7 
   42700   0.99779029   -6.2409347    4146.6251            6 
   42800   0.98722026    -6.232927    4147.1762           12 
   42900    1.0028158   -6.2592598    4161.1059            7 
   43000   0.97793933   -6.2461692    4161.5944            4 
   43100    1.0030566   -6.2712731     4158.054            4 
   43200   0.99882421   -6.2776101     4149.734            6 
   43300   0.99644505   -6.2703425     4144.456            4 
   43400    1.0189911   -6.2655024    4148.1523            8 
   43500   0.99405538   -6.2655454     4148.469            4 
   43600   0.99471579   -6.2642064    4154.9764            6 
   43700    1.0233455   -6.2751519     4150.382            4 
   43800   0.99633845   -6.2584563    4150.5577            4 
   43900    1.0072246   -6.2688229    4150.0628            5 
   44000    1.0044253   -6.3086317    4143.6973            7 
   44100    1.0063041   -6.3012975    4140.0563            3 
   44200    1.0190529   -6.2855919    4149.4144            5 
   44300   0.99083535   -6.2843703    4147.8581            5 
   44400   0.97476628   -6.2983525    4138.5457            5 
   44500    1.0017817   -6.2904869    4155.9788            7 
   44600   0.97590261   -6.2792657    4154.5843            6 
   44700   0.99866312    -6.257702    4149.7395            4 
   44800    1.0221562    -6.272613     4146.961            5 
   44900   0.99048002   -6.2668747    4143.9772            3 
   45000    1.0209156   -6.2937476    4145.4777            7 
   45100   0.97191481   -6.2708354    4139.4119            7 
   45200    1.0165134   -6.2933276    4143.3059            9 
   45300    1.0046887   -6.2900573    4147.6246            8 
   45400   0.99860563   -6.2358869    4166.9467            4 
   45500   0.99127982   -6.2329071    4165.9417           11 
   45600   0.99947454   -6.2864667    4146.6733            9 
   45700    1.0106621   -6.2897053    4154.8019            7 
   45800    1.0034064   -6.2779333    4161.8498            5 
   45900    1.0015118   -6.2472312    4167.6137            4 
   46000    1.0034266   -6.2369777    4164.2547            3 
   46100    1.0061093   -6.2833834    4146.6678            8 
   46200   0.99062783   -6.2660206    4137.9106            2 
   46300    1.0113126   -6.2437892    4141.5461            6 
   46400   0.98209769    -6.204218    4142.5347            7 
   46500    1.0283561   -6.2615743    4159.9325            5 
   46600   0.99549196    -6.255569    4146.6319            9 
   46700   0.99627117   -6.2702314    4151.2354           10 
   46800   0.99736864   -6.2503204    4160.0624           11 
   46900    1.0041308   -6.2573108    4154.2032            5 
   47000     1.016948   -6.2879784    4148.8981            3 
   47100    1.0102896   -6.2612039    4154.3259            6 
   47200   0.99089232   -6.2513428    4151.5825           11 
   47300   0.96762435   -6.2598028    4155.7329            6 
   47400    1.0067674   -6.2669777    4159.1416           11 
   47500    1.0174412    -6.245026    4149.2551            7 
   47600    1.0027095   -6.2747819    4131.2571            8 
   47700    1.0001514   -6.2537907    4128.5239            5 
   47800    1.0137774   -6.2764082    4147.3209            4 
   47900    1.0155673   -6.2554337    4154.6441            4 
   48000   0.99306788   -6.2787682    4153.8533            4 
   48100   0.98964501   -6.2418456    4159.5612            9 
   48200    1.0067711   -6.2545302    4171.5721            9 
   48300   0.99782698   -6.2853182    4151.6674            8 
   48400    0.9840149   -6.2784757    4142.4996            8 
   48500    1.0154949     -6.29381     4140.665            9 
   48600     1.016825   -6.2507565    4149.3968            6 
   48700    1.0127592   -6.2575658    4161.7559            6 
   48800     0.986538   -6.2555532    4152.6397            5 
   48900     1.011071   -6.2815361    4152.6758            7 
   49000    0.9880425   -6.3027059    4148.5232            4 
   49100   0.98426331   -6.2751563    4159.5876            3 
   49200   0.99839422   -6.2844862    4156.6542           10 
   49300   0.98016311   -6.2850848    4138.3825           10 
   49400    1.0115714   -6.2948141    4136.5392           16 
   49500    1.0086925   -6.2672532    4146.6358            5 
   49600    1.0369101   -6.2586466    4154.7161           14 
   49700    1.0166976   -6.2718168    4147.1368            6 
   49800   0.98548663   -6.2694568    4143.5155            7 
   49900     1.008942    -6.280686    4153.3592           14 
   50000    1.0025668   -6.2733769    4157.2159            8 
   50100   0.98509945   -6.2838367    4145.3887            6 
   50200   0.98647696   -6.2620535     4148.832           10 
   50300   0.99876562   -6.2543257    4156.1934            7 
   50400   0.99280741   -6.2966762    4145.7682            6 
   50500    1.0033223    -6.301379    4152.0995            8 
   50600    1.0075398   -6.3066342      4158.24           11 
   50700    1.0157553   -6.2984306    4153.8511            7 
   50800   0.96510581    -6.268562    4149.5164            6 
   50900    1.0150794   -6.3078426    4151.1138           13 
   51000    1.0066976   -6.2908842    4139.7771           11 
   51100    1.0051031   -6.3210696    4137.0492           11 
   51200   0.99096593   -6.2843983     4144.118            9 
   51300   0.99221692    -6.261278    4149.5089           14 
   51400    1.0158243   -6.2812707     4151.257           13 
   51500   0.99639881    -6.294799    4131.5565           11 
   51600    1.0108759   -6.2776462    4139.5343            7 
   51700    1.0052064   -6.2844217    4156.2711            6 
   51800   0.98555856   -6.2958644    4150.1693           12 
   51900   0.98634395   -6.2893786    4156.4905            5 
   52000   0.98241805   -6.2528711      4167.94           10 
   52100   0.98229476   -6.2691081    4165.1614           12 
   52200   0.99731146   -6.2825152     4150.743            8 
   52300    1.0280994   -6.2749203    4157.5463            8 
   52400   0.99426037   -6.2578407    4168.4677            6 
   52500   0.99926963   -6.3064941    4155.9141            6 
   52600   0.99007224    -6.274293     4161.337            7 
   52700   0.98653776   -6.2671645    4163.3046            4 
   52800    1.0088536   -6.2859227    4164.9417            5 
   52900    1.0001818    -6.284867    4162.4273            6 
   53000    1.0088194   -6.2452761    4169.6388            7 
   53100     1.006291   -6.2510786     4163.718            6 
   53200   0.99925246   -6.2717104    4152.5139            7 
   53300    1.0164972   -6.2688771    4150.1295            3 
   53400   0.98513144   -6.2690686    4143.0955            9 
   53500   0.98965794   -6.2835352    4160.7673            6 
   53600   0.99319133   -6.2524314     4164.109            4 
   53700    1.0018294   -6.2709779    4158.4463            4 
   53800    1.0187213   -6.2428879    4145.6724            6 
   53900    1.0057495   -6.2600328    4143.4298            6 
   54000    1.0081574   -6.2670609      4144.23           14 
   54100    1.0071184   -6.2615346    4145.7174            4 
   54200   0.98896244   -6.2800407    4140.5235            7 
   54300    1.0187084   -6.2802406    4134.9642           14 
   54400    1.0028608   -6.2485173    4141.0328            8 
   54500   0.99908977   -6.2642092    4146.0404            8 
   54600    1.0077132   -6.2400422     4161.748            4 
   54700    1.0138447   -6.2613083    4146.1639           10 
   54800   0.99203792   -6.2607699    4144.5518            6 
   54900    1.0107242   -6.2446354    4158.5985            3 
   55000    1.0062472   -6.2565702    4157.5988            5 
   55100     0.994073   -6.2609928    4159.9893            7 
   55200   0.99669056   -6.2329599    4164.2515            6 
   55300    1.0093081   -6.2673138     4178.236            5 
   55400   0.98273462   -6.2567612    4169.6565            7 
   55500    1.0095076   -6.2773151    4166.6808            7 
   55600    1.0014755   -6.2522907    4166.7416            5 
   55700    1.0244686   -6.2778803    4165.8709            4 
   55800   0.99553524   -6.2868231    4152.0096            6 
   55900   0.98382962   -6.2560055    4147.6091            8 
   56000    1.0105881   -6.2827397    4150.5955            6 
   56100    1.0005031   -6.3058371    4140.2724            4 
   56200     1.021905   -6.2886425    4138.8378            8 
   56300    1.0052209   -6.2687984     4141.059            7 
   56400   0.98026118   -6.2820694    4138.7515           11 
   56500   0.97472338   -6.3075986    4132.7647            5 
   56600   0.99862361    -6.281076    4149.6171           16 
   56700    1.0064249    -6.255032    4155.9988           16 
   56800   0.99594553   -6.2911243    4146.3834            5 
   56900    1.0068743   -6.3089842     4144.167            7 
   57000    1.0052847   -6.2496539    4159.4179            4 
   57100    1.0079148    -6.265038    4150.6384            5 
   57200    1.0081385   -6.2834736    4141.7879           15 
   57300   0.99835849   -6.2875178    4138.6355            7 
   57400    1.0142476   -6.2708562    4137.5123            5 
   57500   0.99477546   -6.2689782     4141.345            5 
   57600   0.95981589   -6.2709362    4127.7003            4 
   57700    1.0104259   -6.2851257     4149.682            4 
   57800   0.99330845   -6.2569022    4154.6865            5 
   57900     1.006843   -6.2318075     4161.022            8 
   58000    1.0062569   -6.2636975    4162.1502            9 
   58100   0.98891219   -6.2849608     4150.665            6 
   58200    1.0106708   -6.2750642    4155.8718            4 
   58300      1.03029   -6.2471723     4169.028           14 
   58400     1.010577   -6.2511116    4165.6718           13 
   58500   0.99001467    -6.259174    4154.0489            6 
   58600    1.0089484   -6.2524539    4154.9012            6 
   58700    1.0116397    -6.255852    4156.7188           12 
   58800    1.0074198   -6.2856135    4154.5347           24 
   58900   0.99703433     -6.27843    4155.1144           13 
   59000    1.0238438   -6.2582369     4171.682           13 
   59100    1.0054605   -6.2688623    4162.8348           11 
   59200   0.99467378   -6.2926298    4153.7381           11 
   59300    1.0114188   -6.2855366    4145.6501           11 
   59400   0.99276212   -6.2985867    4143.6166            9 
   59500   0.99564628   -6.2846485    4143.3753            6 
   59600    1.0080848   -6.2940801     4154.649            5 
   59700   0.98847292    -6.301898    4145.0463            4 
   59800   0.99668244   -6.2947547    4146.9234            4 
   59900   0.99654546   -6.2660675    4147.7867            7 
   60000    1.0140703   -6.2928176    4145.7522            5 
   60100   0.99086231   -6.3030712     4138.199            7 
   60200    0.9923348   -6.3014793     4136.905            9 
   60300    1.0158308   -6.2956317    4142.7078            7 
   60400    1.0037469    -6.313424    4135.1245            5 
   60500   0.98375714   -6.3034254    4130.2431           12 
   60600   0.99916873   -6.2918894    4150.4704            8 
   60700    1.0017233    -6.283294    4153.7334            3 
   60800   0.98337322   -6.2756393    4149.1726            4 
   60900    1.0119356   -6.2969234    4154.8414            6 
   61000   0.99529915   -6.2876511    4154.2012           11 
   61100   0.98566794   -6.2949198    4142.8601            6 
   61200    1.0065001   -6.2945554    4151.9623            7 
   61300    1.0097367    -6.268653    4148.1601           15 
   61400   0.97324538    -6.269117    4158.8644            7 
   61500   0.99174154   -6.2894999     4166.878            6 
   61600   0.99205308   -6.3081685    4159.7662            5 
   61700    0.9925321   -6.2987266    4150.6326           12 
   61800    1.0099507   -6.2860608    4149.4963            7 
   61900   0.98396309   -6.2666176    4148.8141           10 
   62000    1.0119959   -6.2741141    4158.1398           10 
   62100     1.008479   -6.2845186    4161.7241            9 
   62200   0.99930347    -6.280597    4147.8936            6 
   62300   0.99390731   -6.2669263    4143.7611            5 
   62400    1.0196001   -6.2495469     4152.259            7 
   62500    1.0091442   -6.2406675    4161.0784            3 
   62600   0.99033283   -6.2330242    4159.3952            4 
   62700    1.0010125   -6.2600978    4146.3089            7 
   62800   0.98639551   -6.2926241    4138.7131            3 
   62900   0.98059488    -6.305855    4128.0247            4 
   63000   0.99115381   -6.2712293    4143.2024            9 
   63100    1.0116875   -6.2723034    4146.6806            6 
   63200   0.98049436   -6.2739232    4135.7223            5 
   63300   0.99306162   -6.3108101    4130.6352            4 
   63400   0.99069726   -6.2510794    4139.8608            8 
   63500    1.0367495   -6.2708928    4144.9331            3 
   63600    1.0031739   -6.2671696    4140.2052            9 
   63700   0.99144144   -6.2801166    4139.3018            6 
   63800    1.0114069   -6.2692339    4158.1057            4 
   63900    0.9877894   -6.2892313    4147.4641            7 
   64000     1.016848   -6.3051522    4144.4935            6 
   64100   0.99688442   -6.2876648    4150.9541            8 
   64200    1.0228866    -6.290558    4165.1055            4 
   64300   0.97894447   -6.2821861    4161.8274            7 
   64400   0.99696219   -6.2905076    4159.7693            4 
   64500    1.0012666   -6.3265251    4152.9581           10 
   64600   0.99469208   -6.3018599    4156.2218            6 
   64700   0.97550064   -6.2869922    4168.8354            3 
   64800   0.99729657    -6.287708      4168.89            6 
   64900   0.99020042   -6.3004073    4164.1009            4 
   65000   0.96547201   -6.3108249    4158.2067            7 
   65100   0.99934957   -6.2945665    4148.1866            5 
   65200   0.98968579   -6.2875172    4145.0496            6 
   65300    1.0177663      -6.3085    4141.6083           10 
   65400    1.0144549   -6.2694521    4149.5429            5 
   65500   0.99920481   -6.2388471    4152.1041            8 
   65600    1.0015952   -6.2952539    4146.8353            3 
   65700    1.0108062   -6.2995305    4150.8394            8 
   65800   0.99923262   -6.2451289    4159.4605            6 
   65900    1.0036857   -6.2518615    4147.0518            7 
   66000   0.99789707   -6.2816216    4134.2929            7 
   66100    1.0287395   -6.2727352     4138.459            4 
   66200    1.0196949   -6.2825178    4146.3541            4 
   66300   0.98968394   -6.2740034    4136.5934           12 
   66400    1.0146812   -6.2759836    4143.2869            7 
   66500    1.0042458   -6.2753448    4145.0573            4 
   66600   0.98970355   -6.2985789     4145.468            6 
   66700   0.99590756   -6.2578584    4152.9107            5 
   66800    1.0149863   -6.2622811    4151.1473            5 
   66900    1.0046255   -6.2948216    4127.8522            7 
   67000   0.99387962   -6.2535206    4137.4035            7 
   67100     1.012061   -6.2786596    4143.2432            6 
   67200    1.0030847   -6.3142701    4143.9434            5 
   67300    0.9899026   -6.2836845    4152.8321            6 
   67400   0.98908909    -6.276471    4151.7342            7 
   67500    1.0048292   -6.2400488    4156.6756            8 
   67600    1.0057779   -6.2477679    4161.0159            4 
   67700   0.99414186   -6.2788424    4150.0436            9 
   67800   0.99979972   -6.2873047    4153.7413            8 
   67900   0.99844768   -6.2703628    4160.4236           16 
   68000   0.98578598   -6.2665269    4161.1469           12 
   68100    1.0139203   -6.2961022    4164.1514            7 
   68200    0.9987009   -6.2895986     4151.282            6 
   68300   0.99298653   -6.2965198    4146.8787            4 
   68400    1.0106478    -6.288515    4157.6416            8 
   68500    0.9898014   -6.2533264     4161.571            5 
   68600    0.9814374   -6.2760416    4149.4551            3 
   68700    0.9993962    -6.278813     4152.484            8 
   68800    1.0020896   -6.2751742    4152.1703            5 
   68900   0.98311283    -6.284528    4148.0499            6 
   69000    1.0052543    -6.311492    4138.6135            4 
   69100   0.99544455   -6.2465824    4148.4259            4 
   69200    1.0230243   -6.2897697    4143.0975            6 
   69300   0.99243813   -6.2749154     4144.288            4 
   69400   0.99772053   -6.2448272    4152.3656            6 
   69500    1.0062761   -6.2531951    4158.0508            6 
   69600   0.99560251    -6.273649    4153.6834            3 
   69700   0.99063891   -6.2769311    4145.9005            5 
   69800    1.0061442   -6.2698151    4148.9513            6 
   69900   0.99434615   -6.2584606    4171.5683            5 
   70000   0.99741015    -6.252223    4168.1067            4 
   70100    1.0031066   -6.2366644    4151.7334            6 
   70200     1.007103   -6.2775069     4142.786           10 
   70300    1.0082305   -6.2699905    4150.9113           17 
   70400    1.0097265   -6.2331033    4156.4669           18 
   70500    1.0183702   -6.2657503    4151.6333            4 
   70600   0.98512791   -6.2709677    4149.2622            4 
   70700   0.99013442   -6.2702055    4168.6735            3 
   70800   0.99610488   -6.2629141    4168.6238            3 
   70900    0.9718965   -6.2693352    4163.1963            2 
   71000    1.0181152   -6.2798511    4154.7849            7 
   71100    0.9846524   -6.2626889    4153.6927            5 
   71200    1.0221726   -6.2512163    4168.6852            8 
   71300    1.0100654   -6.2655171    4152.7269            4 
   71400   0.98968584   -6.2879537    4150.1949            3 
   71500    1.0027745   -6.2835967    4147.8644            4 
   71600   0.99960959   -6.2525496    4160.8005            3 
   71700    1.0110995   -6.3224205    4145.0202            6 
   71800   0.99995164   -6.3085907     4143.271            4 
   71900    1.0180402   -6.2890903    4157.2845            5 
   72000    1.0091031   -6.2936899    4157.4372            7 
   72100    1.0023092   -6.3136335    4146.7856            9 
   72200   0.99185124   -6.3142639    4132.3972            4 
   72300    1.0196802   -6.3219373    4146.7656            4 
   72400   0.96885313   -6.2622281    4157.4986            6 
   72500    1.0076493   -6.2847921    4155.8872            4 
   72600    1.0073745   -6.2681598    4154.7591            4 
   72700   0.99112219   -6.2507771    4157.2856            6 
   72800   0.97809857    -6.237759    4163.6044            7 
   72900   0.99153612   -6.2098973    4166.6647            5 
   73000    1.0097441   -6.2517756     4157.938            6 
   73100    1.0056058   -6.2780659    4148.5754           13 
   73200    1.0186641   -6.2576474    4146.9942            7 
   73300    1.0241065   -6.2613016    4150.7159           10 
   73400    0.9931169    -6.239822    4140.3849            7 
   73500    1.0249424   -6.2811441    4133.5678            6 
   73600   0.99927116   -6.2675869    4139.8289            6 
   73700   0.99196256   -6.2670445    4154.0284           17 
   73800    1.0136722    -6.304245    4147.4599            6 
   73900   0.98716762   -6.2553979    4164.8682            6 
   74000    1.0083131   -6.2454196    4172.7431            6 
   74100   0.99701081   -6.2762176    4171.3566            6 
   74200    1.0050974    -6.323002    4160.4709            5 
   74300   0.99835538   -6.3023485    4152.6453           14 
   74400    1.0092021   -6.2728021    4162.8629           24 
   74500    1.0183867   -6.2744302    4169.0999           17 
   74600   0.98975067   -6.2814312    4152.3751            8 
   74700   0.97453699   -6.2293918    4156.1454           11 
   74800    1.0209329   -6.2701636    4157.8171            4 
   74900   0.99535414   -6.2736808    4144.7663            6 
   75000   0.99974639   -6.2614578    4146.0763            4 
   75100    1.0010715   -6.2687469    4154.8104            6 
   75200    1.0181935   -6.2709357    4157.0504            3 
   75300    0.9950623   -6.2828637     4137.707            5 
   75400    1.0141895   -6.2838261    4140.4278           10 
   75500   0.97610619    -6.278645    4143.1372            8 
   75600   0.97572302   -6.3098519     4151.687            5 
   75700   0.98036287    -6.277318    4162.3353            7 
   75800   0.99722341   -6.2604107    4162.1258            8 
   75900    1.0049068   -6.2896427    4154.0941            5 
   76000    0.9887663   -6.2821075    4149.0231           11 
   76100    1.0115149   -6.2536128     4150.251            5 
   76200    1.0004574   -6.2509885    4159.0014            3 
   76300    1.0084025   -6.2491112    4167.1431            8 
   76400   0.98775209   -6.2643127      4167.93            6 
   76500   0.97335208   -6.2726018     4156.993            4 
   76600   0.99932761   -6.2805018     4168.078            8 
   76700   0.98985712   -6.2577666    4169.2782            6 
   76800   0.95932073   -6.2609307    4176.6742            4 
   76900    1.0073482   -6.2707273    4169.4992            3 
   77000   0.97745427   -6.2625026     4160.847            6 
   77100   0.98837198   -6.2996414    4144.3011            5 
   77200   0.99171491   -6.2701315    4149.2681            4 
   77300   0.98969526   -6.2437884    4149.8682            8 
   77400    1.0073831   -6.2673223    4149.8977           12 
   77500   0.98768013   -6.2888399    4136.6593            6 
   77600   0.99638151   -6.2826281    4147.6362            8 
   77700   0.98774363   -6.2731466    4147.6661            4 
   77800   0.97337248   -6.3068306    4146.0408           11 
   77900   0.98522367   -6.2750475    4165.8824           10 
   78000   0.99061536   -6.2791338    4162.4359            7 
   78100   0.99647294   -6.2941566     4150.992            7 
   78200   0.97818697   -6.2998255    4142.1586            5 
   78300    1.0124483   -6.3123891    4156.2696            6 
   78400   0.99467049   -6.3098932    4154.6933            7 
   78500    1.0147759   -6.3566058    4143.8893           13 
   78600    1.0057065   -6.3026722    4155.8072            8 
   78700   0.99982557   -6.2845444    4157.2955            6 
   78800   0.97895523   -6.3011203    4160.5354            5 
   78900    1.0127164     -6.30167    4161.2554            6 
   79000   0.98078245   -6.2730015    4159.8254           10 
   79100   0.99678333   -6.2756878    4160.2032            4 
   79200    1.0271739    -6.266118    4164.1525            6 
   79300    1.0059892   -6.2755952    4156.0835            4 
   79400    1.0002551   -6.2700915    4154.8823            4 
   79500    1.0164032   -6.2261285    4157.5359            5 
   79600    1.0067196     -6.24697    4148.5877            5 
   79700    1.0037096   -6.2497073    4143.7082            4 
   79800    1.0090714   -6.2657374    4149.8855            9 
   79900   0.97706794   -6.2654864    4152.2773           10 
   80000    1.0049711   -6.2822786     4151.303           16 
   80100    1.0121089   -6.2738831    4151.4994            8 
   80200   0.98899942   -6.2600497    4140.5682           12 
   80300   0.99501842   -6.2491888     4146.598            8 
   80400    1.0253197   -6.2555117    4161.2816           11 
   80500    1.0061523   -6.2679962    4154.2652            6 
   80600   0.99150767   -6.2824537    4155.2853            8 
   80700   0.98737991    -6.257118    4160.2671            5 
   80800   0.99663015   -6.2709233    4159.8854            6 
   80900   0.99751256   -6.3023953    4151.8603            5 
   81000    1.0250734   -6.2889824    4161.0255            8 
   81100    0.9811524   -6.2700482    4162.7732            6 
   81200    1.0061016   -6.2918556    4160.5953           12 
   81300   0.97562487   -6.3024759    4143.8764           14 
   81400    1.0197739   -6.3139158     4150.801           13 
   81500     0.993699   -6.2968679    4146.3845           15 
   81600   0.98994674   -6.3104007    4145.5818           16 
   81700    1.0000702    -6.282883    4162.5854           17 
   81800    1.0048284   -6.2751896    4157.5921            5 
   81900    1.0093315   -6.2924025    4150.6275            6 
   82000   0.97523213    -6.286755    4140.9688            7 
   82100   0.98134487   -6.2700031    4155.3234            6 
   82200   0.99083433   -6.2449332    4160.0886            9 
   82300     1.014484   -6.2302759    4164.8049           12 
   82400    1.0118158   -6.2692713    4153.9884            8 
   82500    1.0034609     -6.28867    4156.0704            5 
   82600   0.99005965   -6.3121506    4161.5433            8 
   82700    1.0091841   -6.2997666    4161.2498           12 
   82800    1.0005228    -6.277152    4157.5971            5 
   82900   0.99035748   -6.3131945    4138.7945            9 
   83000     1.002152   -6.3134318    4141.6156            6 
   83100    1.0081059   -6.2692233    4148.8608            7 
   83200    1.0059443   -6.2788242    4152.5626           10 
   83300    1.0051188   -6.2834866    4158.4568           12 
   83400    0.9864456   -6.2929534    4144.1004           10 
   83500    1.0021044   -6.2536962     4140.962            7 
   83600   0.98875283   -6.2818247    4143.1226           10 
   83700   0.97873989   -6.2670941    4131.6211            9 
   83800    1.0212202   -6.2669459    4134.8059           11 
   83900    0.9981052   -6.2660236    4127.4011            6 
   84000    1.0183725    -6.282238    4125.0684            4 
   84100    1.0205661   -6.2657689     4147.516            5 
   84200   0.99775994   -6.2318039    4160.7816            6 
   84300   0.99133991   -6.2357445    4156.5863            5 
   84400   0.99687379   -6.2912018    4137.8188           11 
   84500    1.0003355   -6.2691959    4150.7375            4 
   84600    1.0110745   -6.2725336     4143.488            3 
   84700    1.0113631   -6.2819808    4142.8422            4 
   84800    1.0093483   -6.2458402    4156.0102            4 
   84900    1.0078497   -6.2686523    4155.5863            6 
   85000   0.99711612   -6.2927934     4147.015            4 
   85100    1.0080937   -6.2711338     4150.166            8 
   85200    1.0003668   -6.2551965    4157.7623            5 
   85300   0.99770955   -6.2943293    4145.9598            8 
   85400   0.97270415   -6.2720583    4149.6265            5 
   85500    1.0033706   -6.2726625    4156.6545            5 
   85600   0.99750142   -6.2672107    4164.3302            6 
   85700    1.0302133   -6.2902038    4173.7608            5 
   85800   0.98452183   -6.2822365    4174.7017            4 
   85900    1.0005486   -6.2793448    4172.4556            4 
   86000   0.98266314   -6.2415678    4178.1687            6 
   86100    1.0058195   -6.2265571     4176.793            6 
   86200   0.99210974   -6.2480012    4159.6039            7 
   86300   0.98798101   -6.2270613    4161.3344           15 
   86400    1.0230661   -6.2590312     4162.754            7 
   86500   0.99883126   -6.2547024    4158.3435            3 
   86600   0.97645317   -6.2669795    4154.0365            6 
   86700    1.0257394   -6.2995712    4160.6945            8 
   86800   0.99453122   -6.2201766    4174.7332            5 
   86900    1.0231032   -6.2443752    4178.2952            9 
   87000   0.98982171   -6.2490106    4164.2668           12 
   87100   0.99457059   -6.2769755     4164.759            7 
   87200   0.97607368   -6.2759418    4167.2402            7 
   87300    1.0090734   -6.2782195    4161.2965            4 
   87400    1.0032515    -6.261148    4161.2953            8 
   87500   0.99960474   -6.2639622    4142.6677            5 
   87600   0.98283067   -6.2625882    4123.4495            7 
   87700     1.017216   -6.2997938    4131.6626            6 
   87800    1.0061624   -6.2643727    4141.0496            5 
   87900     1.015711   -6.2537171    4149.6842            5 
   88000   0.98241265   -6.2503116    4145.7766            4 
   88100    1.0137085   -6.2419439    4170.7581            8 
   88200    0.9983166   -6.2438467     4173.968            3 
   88300   0.98207184   -6.2729573    4166.7351            4 
   88400   0.97454088   -6.2672947    4160.7854            6 
   88500    1.0039398   -6.2663156    4167.9593           10 
   88600   0.99797532   -6.2559064    4159.2329            9 
   88700   0.99751294   -6.2761747     4161.941            6 
   88800     1.008801   -6.2740662    4163.9755            7 
   88900   0.97939543   -6.2741372     4160.203           10 
   89000   0.99843649    -6.276805    4161.1048            4 
   89100   0.99442964   -6.2882253     4155.838            9 
   89200   0.99837665   -6.3033175    4150.6692            6 
   89300   0.98967279   -6.2471638    4157.9683            5 
   89400    1.0155752   -6.2457714    4167.3854            8 
   89500    0.9902008   -6.2594867    4154.5503            5 
   89600   0.99175334   -6.2990454    4147.4477            6 
   89700    0.9920669   -6.2876536    4146.5863            5 
   89800    1.0158103   -6.2828236    4150.5083            7 
   89900    1.0041059   -6.2696975    4127.9812            9 
   90000   0.99285729   -6.2909598    4125.8702            9 
   90100    1.0196018   -6.2641099    4122.5871            7 
   90200   0.99847113   -6.2853332    4136.8314            9 
   90300    1.0171607    -6.292028    4145.4555            8 
   90400    1.0036525   -6.2629529    4148.2617            6 
   90500    1.0067106   -6.2830048    4146.2037            7 
   90600    1.0115741   -6.2438025    4167.4984            4 
   90700   0.99531073   -6.2380704    4162.9279            4 
   90800   0.99769716   -6.2832816    4166.2408            2 
   90900    1.0027795   -6.2745659    4155.5419            6 
   91000    0.9850739   -6.3088998    4146.1541            4 
   91100   0.98159115   -6.2734903    4153.6319            6 
   91200    1.0007328   -6.2961516     4154.068            5 
   91300    1.0159906   -6.2799782    4155.3339            5 
   91400   0.97787246    -6.270177    4154.8183            5 
   91500    1.0017648   -6.2668829     4152.158           10 
   91600    1.0135229   -6.2789359     4149.247            9 
   91700   0.98744394   -6.2900002    4142.5394            8 
   91800    1.0099002   -6.2813418    4157.0722           12 
   91900   0.98686142    -6.267291    4165.4978            9 
   92000   0.98395604   -6.3167183    4167.1652           13 
   92100   0.99666033   -6.2932036    4163.6365            7 
   92200    1.0008903   -6.2828364    4156.2456           10 
   92300   0.99624422   -6.2731216    4157.1376            7 
   92400    1.0068854   -6.3005466    4162.7958            7 
   92500    1.0137203   -6.2759209    4164.2033            6 
   92600   0.99434989   -6.2509019    4153.8717           12 
   92700    1.0031671   -6.2706541    4141.9926            8 
   92800    1.0159837   -6.2413788    4141.7751            4 
   92900    1.0105131   -6.2452855    4145.0837            4 
   93000    1.0144074   -6.2729018    4145.9909            4 
   93100   0.99740009   -6.3018275    4137.9257            7 
   93200    1.0008545    -6.299305    4131.9638            3 
   93300    1.0070682   -6.2787161    4135.1574            5 
   93400    1.0034156   -6.2717709    4149.5605           10 
   93500   0.99815754   -6.2902075    4141.0122            8 
   93600   0.99430465    -6.306857     4147.384           11 
   93700   0.99130255   -6.2475679    4160.9652            5 
   93800   0.97761654   -6.2333843    4153.8361            5 
   93900   0.99674398   -6.2502095    4154.3697            4 
   94000    1.0071262   -6.2516863    4152.1369            3 
   94100    1.0063469   -6.2649752    4151.1438            4 
   94200   0.99693187   -6.2836786    4144.8637            4 
   94300    1.0113717   -6.2687374    4146.7666            5 
   94400    1.0151233   -6.2426121    4160.4354           12 
   94500    1.0196807   -6.2691634    4172.5438           10 
   94600   0.98880881   -6.2744828    4167.6671            6 
   94700   0.99423466   -6.2910612    4162.5005            9 
   94800    0.9822409   -6.2656074    4150.3553            7 
   94900   0.99866022   -6.2433096    4162.9465            6 
   95000   0.98687946   -6.2483098    4168.8706            4 
   95100    1.0094979   -6.2925135    4165.2299            5 
   95200   0.98656059   -6.2752288    4162.8373            3 
   95300    1.0078112    -6.272478    4162.5813            3 
   95400     0.976842   -6.2735968    4157.7492            3 
   95500    1.0087967   -6.2830447    4150.7267            6 
   95600   0.98750992   -6.2827547    4150.9019            4 
   95700    1.0063215   -6.2566727    4162.3174            6 
   95800    1.0138317   -6.2661486    4153.2768            6 
   95900    1.0021201   -6.2849811     4157.726            5 
   96000   0.97641272   -6.2669111    4153.4506            4 
   96100    1.0002807   -6.3202594     4134.306            4 
   96200   0.99507553   -6.2749255    4141.7915            8 
   96300    1.0189831   -6.2910698    4146.7273            5 
   96400   0.97190924   -6.2713086    4139.7817            5 
   96500   0.97405723   -6.2371783    4153.4594            3 
   96600   0.99962156   -6.2289293    4166.4732            6 
   96700    1.0018433   -6.2601324    4165.8223            5 
   96800    1.0009286   -6.2558375    4160.2096            6 
   96900    1.0116433   -6.2703522    4152.5921            4 
   97000   0.97477279   -6.2543041      4151.77            7 
   97100    1.0010041   -6.2395213    4158.2042            6 
   97200    1.0099295   -6.2662749     4154.546            4 
   97300   0.98385284   -6.2734943    4146.4595            7 
   97400   0.99604447   -6.2723325    4156.5175            5 
   97500    1.0078593   -6.2716057    4162.9436            6 
   97600   0.99200164   -6.2683017    4163.0629            5 
   97700   0.97445014   -6.2716153    4155.1006            8 
   97800    1.0034285   -6.2863709    4156.3719            5 
   97900    1.0148526   -6.2790193    4152.4657            3 
   98000   0.99318128   -6.2445861    4149.9996            5 
   98100   0.99513207   -6.2854134    4146.8463            9 
   98200    1.0173174   -6.2646404    4155.6424            9 
   98300   0.99636158    -6.246688    4151.9291            4 
   98400   0.99361359   -6.2762279    4150.7586            4 
   98500    0.9981267   -6.2638299    4156.8754           17 
   98600    1.0011858   -6.2634617    4156.3804           10 
   98700    1.0006419   -6.2780828    4154.3252            6 
   98800   0.99844594   -6.2870015    4155.2893            8 
   98900    1.0107803   -6.2729032     4136.859            5 
   99000    1.0177233   -6.2426579      4142.19            7 
   99100   0.99477066   -6.2420983     4139.989            5 
   99200    1.0168864    -6.290375    4142.5625            9 
   99300    1.0144775   -6.2671984     4150.366            5 
   99400   0.99806094   -6.2964934    4158.9153            5 
   99500    1.0038674   -6.2658476    4148.3568            7 
   99600    0.9833855   -6.2646408    4151.4804            4 
   99700   0.98416545   -6.3072826    4142.8487            8 
   99800    1.0016141   -6.2834143    4144.1452            4 
   99900    1.0082726   -6.3038325    4148.8472            7 
  100000    1.0047564   -6.2776787     4153.166            6 
  100100     1.014009   -6.2732957    4162.0352            5 
  100200    0.9856312   -6.2596905    4163.1015            4 
  100300    1.0129143   -6.2953605    4155.4638            4 
  100400   0.97935209   -6.2856451    4153.1521            6 
  100500    1.0066608   -6.2736505     4155.131            4 
  100600    1.0194445   -6.2608137    4161.9808            4 
  100700   0.97016027   -6.2384566    4152.9345            4 
  100800     1.004519   -6.2801856    4151.5959            2 
  100900    1.0062115   -6.2870604    4147.4882            6 
  101000    1.0079808   -6.2602036     4155.775            8 
  101100    1.0111903   -6.2682131    4148.9006            7 
  101200    1.0166222   -6.2947636    4147.5504            9 
  101300   0.99161329   -6.2903299    4148.3543            6 
  101400   0.99668012   -6.2829824    4160.5018           10 
  101500   0.99571718   -6.2812844    4155.2189            2 
  101600   0.99433579   -6.2848571    4150.7501            8 
  101700    1.0019964   -6.2548714    4153.1104            8 
  101800   0.99974127   -6.2467687    4146.4551            4 
  101900     1.004873   -6.2777101    4138.2205            9 
  102000    1.0132913   -6.2677291    4144.0326            3 
  102100    1.0040898   -6.2579623    4150.4059            4 
  102200     1.002393   -6.3037161    4147.9312            5 
  102300    1.0182722   -6.3140028    4146.4831            4 
  102400    1.0056543   -6.3386679    4136.1039            7 
  102500    1.0172147   -6.3168602    4138.8872            5 
  102600   0.99492992   -6.2794246    4152.3867            3 
  102700   0.99465727   -6.3067604    4150.0954            5 
  102800    0.9926463    -6.321018    4153.9065            8 
  102900   0.98919634   -6.2915182    4169.2117            6 
  103000   0.98434151   -6.2906026    4161.0597            5 
  103100   0.99280814   -6.2785922    4160.3448            9 
  103200   0.99577223   -6.2686704    4168.2746            3 
  103300     0.980089   -6.2783189    4157.3937            6 
  103400   0.98944419   -6.2904705    4148.0269            6 
  103500   0.98356417   -6.2724763    4156.0693            4 
  103600    1.0009322   -6.2509749      4160.01            3 
  103700    1.0192682   -6.2699778    4160.2828            6 
  103800    1.0126858   -6.2326561    4163.0183            6 
  103900   0.98379802   -6.2327495    4153.2826            7 
  104000    1.0006288   -6.2628408    4152.4718            8 
Loop time of 288.113 on 18 procs for 100000 steps with 4000 atoms

Performance: 59976.519 tau/day, 347.086 timesteps/s
99.7% CPU use with 18 MPI tasks x no OpenMP threads

MPI task timing breakdown:
Section |  min time  |  avg time  |  max time  |%varavg| %total
---------------------------------------------------------------
Pair    | 37.189     | 38.351     | 40.752     |  16.0 | 13.31
Neigh   | 4.6426     | 4.7365     | 4.894      |   3.0 |  1.64
Comm    | 12.481     | 14.118     | 16.138     |  33.6 |  4.90
Output  | 5.8215     | 5.8231     | 5.8403     |   0.2 |  2.02
Modify  | 220.27     | 222.25     | 225.34     |  10.7 | 77.14
Other   |            | 2.834      |            |       |  0.98

Nlocal:        222.222 ave         229 max         217 min
Histogram: 4 0 3 1 1 5 0 1 1 2
Nghost:        2295.94 ave        2313 max        2281 min
Histogram: 2 1 1 4 2 3 1 1 2 1
Neighs:        24506.1 ave       25933 max       23449 min
Histogram: 3 3 1 3 1 3 0 2 0 2
FullNghs:      49013.3 ave       50551 max       47858 min
Histogram: 3 1 1 5 2 1 1 1 1 2

Total # of neighbors = 882240
Ave neighs/atom = 220.56000
Neighbor list builds = 5980
Dangerous builds = 0

#clear
#
#next RN
#
#jump SELF
Total wall time: 0:04:50
