
units lj                  # Use reduced LJ style units
atom_style atomic         # Uncharged point particles
atom_modify map hash      # Needed for indexing of clusters etc
                          # Used to be able to find where atoms are in relation to each other.

# Define a lattice with which to populate the simulation cell. With units
# set to 'lj' the second argument to the lattice command is the reduced
# density rho* and the spacings are multiples of that required to acheive
# that density. Also define a simulation cell called 'box' in lattice units
# and fill it with atoms. Here we're creating a box which is ten lattice
# constants in each direction.
lattice fcc 1.0 spacing 1 1 1                 # All equal sizes - gives the right reduced density.
Lattice spacing in x,y,z = 1.5874011 1.5874011 1.5874011

region box block 0 10 0 10 0 10 units lattice # Defines a region, "box", in lattice units
create_box 1 box                              # Creates a simulation box as specified above,
Created orthogonal box = (0.0000000 0.0000000 0.0000000) to (15.874011 15.874011 15.874011)
  3 by 4 by 4 MPI processor grid
                                              # with one type of atom
create_atoms 1 box                            # Creates particles on lattice points
Created 4000 atoms
  using lattice units in orthogonal box = (0.0000000 0.0000000 0.0000000) to (15.874011 15.874011 15.874011)
  create_atoms CPU = 0.003 seconds


# Set the mass of the first (and only) atom type.
mass 1 1.0

# Lennard-Jones interactions between particles, 3.5 sigma cut-off. Apply
# long range tail corrections to energy and pressure and set all coefficients
# to unity since we work in reduced units here. Note that this doesn't shift
# the potential such that it goes to zero at the cutoff. That would require
# pair_modify('shift', 'yes').
pair_style lj/cut  3.5      # non-GPU version
pair_modify tail  yes
pair_coeff 1  1  1.0  1.0   # Intearaction between 1 and 1 set with epsilon = 1 and sigma = 1

write_data data.*
System init for write_data ...
Neighbor list info ...
  update every 1 steps, delay 10 steps, check yes
  max neighbors/atom: 2000, page size: 100000
  master list distance cutoff = 3.8
  ghost atom cutoff = 3.8
  binsize = 1.9, bins = 9 9 9
  1 neighbor lists, perpetual/occasional/extra = 1 0 0
  (1) pair lj/cut, perpetual
      attributes: half, newton on
      pair build: half/bin/atomonly/newton
      stencil: half/bin/3d
      bin: standard

#############################
#   M E L T   S Y S T E M   #
#############################

velocity all create 2.4 6583654 mom yes dist gaussian # Assign velocities
                                                    # Temperature 2.4, random number seed, zero linear momentum
						                                                        # Gaussian distribution

timestep 0.002   # simulation timestep
thermo 1000       # output thermodynamic data every 1000 steps

# Define a fix  in this case with index 1 applied to all
# particles in the simulation. This fix is for simulations
# in the anisotropic NPT ensemble. Note that we use the MTK
# correction.
fix 1 all npt temp 2.4 2.4 0.1 iso 5.68 5.68 0.5 mtk yes tchain 5 pchain 5 # Use NPT ensemble
                                                                         # Set temperature and pressure and damping
                                                                         # Numbers of thermostats in chain and in barostat
run 1000         # run for 10000 steps
Per MPI rank memory allocation (min/avg/max) = 3.642 | 3.644 | 3.648 Mbytes
Step Temp E_pair E_mol TotEng Press Volume 
       0          2.4   -8.3859253            0   -4.7868253   -2.2405722         4000 
    1000    2.3598253   -4.4579732            0  -0.91912021    5.7048558     5164.517 
Loop time of 0.216951 on 48 procs for 1000 steps with 4000 atoms

Performance: 796492.968 tau/day, 4609.334 timesteps/s
99.4% CPU use with 48 MPI tasks x no OpenMP threads

MPI task timing breakdown:
Section |  min time  |  avg time  |  max time  |%varavg| %total
---------------------------------------------------------------
Pair    | 0.09236    | 0.10002    | 0.10679    |   1.1 | 46.10
Neigh   | 0.017645   | 0.018514   | 0.019481   |   0.3 |  8.53
Comm    | 0.067524   | 0.074198   | 0.083149   |   1.3 | 34.20
Output  | 2.621e-05  | 2.6971e-05 | 3.3553e-05 |   0.0 |  0.01
Modify  | 0.019031   | 0.022614   | 0.025904   |   1.2 | 10.42
Other   |            | 0.001579   |            |       |  0.73

Nlocal:        83.3333 ave          92 max          74 min
Histogram: 1 2 5 4 5 15 8 4 3 1
Nghost:        1388.73 ave        1407 max        1372 min
Histogram: 6 1 7 7 5 2 9 6 1 4
Neighs:        7379.69 ave        8441 max        6080 min
Histogram: 1 0 2 9 5 12 9 7 1 2

Total # of neighbors = 354225
Ave neighs/atom = 88.556250
Neighbor list builds = 86
Dangerous builds = 12

# Equilibrate just above the melting temperature to avoid step fn in T

fix 1 all npt temp 1.25 1.25 0.1 iso 5.68 5.68 0.5 mtk yes tchain 5 pchain 5
run 1000
Per MPI rank memory allocation (min/avg/max) = 3.642 | 3.644 | 3.648 Mbytes
Step Temp E_pair E_mol TotEng Press Volume 
    1000    2.3598253   -4.4579732            0  -0.91912021    5.7048558     5164.517 
    2000    1.2696682   -5.8381473            0   -3.9341211    5.6425989    4351.2694 
Loop time of 0.215875 on 48 procs for 1000 steps with 4000 atoms

Performance: 800462.274 tau/day, 4632.305 timesteps/s
99.6% CPU use with 48 MPI tasks x no OpenMP threads

MPI task timing breakdown:
Section |  min time  |  avg time  |  max time  |%varavg| %total
---------------------------------------------------------------
Pair    | 0.091833   | 0.099724   | 0.10763    |   1.1 | 46.20
Neigh   | 0.015622   | 0.016269   | 0.016902   |   0.3 |  7.54
Comm    | 0.06342    | 0.074597   | 0.084982   |   1.4 | 34.56
Output  | 2.3857e-05 | 2.729e-05  | 0.0001483  |   0.0 |  0.01
Modify  | 0.018773   | 0.023214   | 0.027035   |   1.5 | 10.75
Other   |            | 0.002044   |            |       |  0.95

Nlocal:        83.3333 ave          93 max          75 min
Histogram: 1 2 6 12 7 8 8 2 1 1
Nghost:        1550.04 ave        1575 max        1524 min
Histogram: 1 1 5 6 9 12 7 5 1 1
Neighs:        8747.10 ave       10033 max        7783 min
Histogram: 1 1 12 9 9 7 4 4 0 1

Total # of neighbors = 419861
Ave neighs/atom = 104.96525
Neighbor list builds = 75
Dangerous builds = 7


# Small amount of linear quench

fix 1 all npt temp 1.25 ${temp} 0.1 iso 5.68 5.68 0.5 mtk yes tchain 5 pchain 5
fix 1 all npt temp 1.25 1.25 0.1 iso 5.68 5.68 0.5 mtk yes tchain 5 pchain 5
run 2000
Per MPI rank memory allocation (min/avg/max) = 3.643 | 3.645 | 3.648 Mbytes
Step Temp E_pair E_mol TotEng Press Volume 
    2000    1.2696682   -5.8381473            0   -3.9341211    5.6425989    4351.2694 
    3000    1.2684163   -5.8394179            0   -3.9372691    5.7474169    4341.2006 
    4000    1.2543295   -5.8419712            0   -3.9609473    5.8627005    4328.2337 
Loop time of 0.439246 on 48 procs for 2000 steps with 4000 atoms

Performance: 786802.870 tau/day, 4553.257 timesteps/s
99.7% CPU use with 48 MPI tasks x no OpenMP threads

MPI task timing breakdown:
Section |  min time  |  avg time  |  max time  |%varavg| %total
---------------------------------------------------------------
Pair    | 0.19876    | 0.20909    | 0.21995    |   1.1 | 47.60
Neigh   | 0.028794   | 0.029861   | 0.031429   |   0.3 |  6.80
Comm    | 0.13838    | 0.14955    | 0.16085    |   1.4 | 34.05
Output  | 4.717e-05  | 4.8335e-05 | 6.1216e-05 |   0.0 |  0.01
Modify  | 0.042198   | 0.046162   | 0.051603   |   1.1 | 10.51
Other   |            | 0.004542   |            |       |  1.03

Nlocal:        83.3333 ave          89 max          78 min
Histogram: 3 5 7 4 6 6 6 3 6 2
Nghost:        1554.92 ave        1588 max        1533 min
Histogram: 2 4 7 13 13 3 2 1 1 2
Neighs:        8790.56 ave        9601 max        7905 min
Histogram: 1 2 4 8 7 9 6 3 7 1

Total # of neighbors = 421947
Ave neighs/atom = 105.48675
Neighbor list builds = 133
Dangerous builds = 0

#############################
# F R E E Z E  S Y S T E M  #
#############################

# Define solid atoms. This closely follows ten Wolde  Ruiz-Montero and Frenkel  Faraday Discuss  1996  104  93-110
# Compute components of the per-atom q6 vector
compute q6 all orientorder/atom degrees 1 6 components 6 nnn NULL cutoff 1.3 # compute the Q6 parameter.
                                                                             # Use all neighbours within 1.3 unit cell.

# get number of connections
compute coord_number all coord/atom orientorder q6 0.5

# An atom is solid if it has 8 or more connections (of a possible 14)
variable is_solid atom c_coord_number>=8
group solid dynamic all var is_solid    # Must be dynamic to update
dynamic group solid defined

# do clustering
compute cluster solid cluster/atom 1.3 # Create a cluster where all atoms within are solid and max 1.3 units from another member

# define chunks one chunk per cluster
compute clus_chunks solid chunk/atom c_cluster nchunk every compress yes  # Says which atoms are in which chunk

# count the size of each chunk
compute size_chunks solid property/chunk clus_chunks count


# Find the maximum entry in the vector of chunk sizes
variable max_n equal max(c_size_chunks)


# Thermo style which includes this variable
thermo_style custom step temp pe vol v_max_n

thermo ${N}  # Print the thermo information every 100 steps
thermo 1000  

# Reset the npt fix at a lower temperature (below freezing)
fix 1  all npt temp  ${temp} ${temp}  0.1  iso  5.68  5.68  0.5  mtk yes tchain  5  pchain  5
fix 1  all npt temp  1.25 ${temp}  0.1  iso  5.68  5.68  0.5  mtk yes tchain  5  pchain  5
fix 1  all npt temp  1.25 1.25  0.1  iso  5.68  5.68  0.5  mtk yes tchain  5  pchain  5

dump dmp2 all dcd ${N} traj_${rand}.dcd
dump dmp2 all dcd 1000 traj_${rand}.dcd
dump dmp2 all dcd 1000 traj_462431.dcd


# fix rnuntil all halt ${N} v_max_n >= 3980 error soft message no   # Stop when solidified


run 1000000 # 5000000  # Run for this many steps
Neighbor list info ...
  update every 1 steps, delay 10 steps, check yes
  max neighbors/atom: 2000, page size: 100000
  master list distance cutoff = 3.8
  ghost atom cutoff = 3.8
  binsize = 1.9, bins = 9 9 9
  4 neighbor lists, perpetual/occasional/extra = 1 3 0
  (1) pair lj/cut, perpetual
      attributes: half, newton on
      pair build: half/bin/atomonly/newton
      stencil: half/bin/3d
      bin: standard
  (2) compute orientorder/atom, occasional
      attributes: full, newton on
      pair build: full/bin/atomonly
      stencil: full/bin/3d
      bin: standard
  (3) compute coord/atom, occasional
      attributes: full, newton on
      pair build: full/bin/atomonly
      stencil: full/bin/3d
      bin: standard
  (4) compute cluster/atom, occasional
      attributes: full, newton on
      pair build: full/bin/atomonly
      stencil: full/bin/3d
      bin: standard
Per MPI rank memory allocation (min/avg/max) = 9.353 | 9.358 | 9.363 Mbytes
Step Temp PotEng Volume v_max_n 
    4000    1.2543295   -5.8419712    4328.2337            2 
    5000     1.240872    -5.835078    4342.2508            2 
    6000    1.2490289   -5.8387377    4354.3546            4 
    7000    1.2613425   -5.8643745    4338.4039            5 
    8000    1.2483923   -5.8329519    4349.8676            2 
    9000    1.2396527   -5.8028795    4344.8617            2 
   10000    1.2564421   -5.8336229    4347.5285            3 
   11000    1.2641671   -5.8336439    4331.6122            4 
   12000    1.2319675   -5.8442553    4335.9653            2 
   13000    1.2507223   -5.8302835    4353.4149            2 
   14000    1.2372286   -5.8363076    4350.2029            2 
   15000    1.2170976   -5.8338528    4362.3721            2 
   16000    1.2222308   -5.8668649    4337.2477            3 
   17000    1.2259208   -5.8057485    4365.4095            3 
   18000    1.2399623   -5.8594791    4338.4615            3 
   19000    1.2467581   -5.8668719    4344.2766            1 
   20000    1.2506256   -5.8616932    4351.3324            6 
   21000    1.2736059   -5.8202929     4354.009            2 
   22000    1.2631527   -5.8404172    4348.2902            3 
   23000    1.2305583   -5.8326113    4359.0939            5 
   24000    1.2594168   -5.8451828    4338.0042            2 
   25000    1.2322432   -5.8521436    4335.3887            2 
   26000    1.2201592   -5.8279488    4335.8961            3 
   27000    1.2612471   -5.8646334    4346.2778            3 
   28000    1.2330179   -5.8556139    4344.5433            3 
   29000    1.2589762   -5.8554449    4359.2561            2 
   30000    1.2424196    -5.827254    4348.1744            2 
   31000    1.2411184   -5.8262646    4351.9157            2 
   32000     1.244841   -5.8513609    4356.8564            2 
   33000    1.2787218   -5.8499192    4352.9937            2 
   34000    1.2375665   -5.8513589    4350.4059            3 
   35000    1.2270241   -5.8017628    4367.9447            7 
   36000    1.2160404   -5.8262626    4339.2966            7 
   37000    1.2492239   -5.8195001    4320.2453            4 
   38000    1.2479754   -5.8088449    4348.8981            4 
   39000    1.2569735    -5.845511    4327.7574            3 
   40000    1.2383472   -5.8423146    4343.7967            4 
   41000    1.2625249      -5.8644    4339.1064            3 
   42000    1.2763923    -5.844007    4355.5967            4 
   43000    1.2271155   -5.8423522    4340.9317            6 
   44000    1.2417968   -5.8371086    4357.4257            3 
   45000    1.2443693   -5.8180602    4340.6934            6 
   46000    1.2630237   -5.8343602    4359.1283            6 
   47000    1.2572939   -5.8032783    4345.2157            3 
   48000    1.2754609   -5.8421306    4358.0813            3 
   49000    1.2402096   -5.8428248    4339.5079            5 
   50000     1.235572   -5.8784624    4362.2266            9 
   51000    1.2809484    -5.859803    4328.2543            3 
   52000    1.2741856    -5.861725    4348.3137            3 
   53000    1.2775025   -5.8258355    4358.5391            3 
   54000    1.2624586   -5.8178129    4339.7461            2 
   55000    1.2463141   -5.8631418    4343.9107            6 
   56000    1.1950819   -5.8392993    4351.1614            3 
   57000    1.2473812    -5.845199    4351.9882            3 
   58000    1.2416176   -5.8857221    4321.8614            4 
   59000    1.2614536   -5.8863302    4330.8285            6 
   60000    1.2341562   -5.8122753    4341.9325            2 
   61000    1.2356619   -5.8217687    4351.3335            4 
   62000    1.2508069   -5.8831849    4330.3272            5 
   63000    1.2578882   -5.8345919    4357.2444            2 
   64000     1.250741   -5.8384548    4355.2474            2 
   65000    1.2504405   -5.8372974    4348.2364           10 
   66000    1.2797366   -5.8320948    4341.0872            4 
   67000     1.265863   -5.7885692    4350.8074            2 
   68000     1.270143   -5.8354463    4334.1675            4 
   69000    1.2626562   -5.8475264    4326.6246            3 
   70000    1.2510957    -5.857422    4332.9553            4 
   71000    1.2873533   -5.8196508    4345.0861            2 
   72000    1.2534715   -5.8256956    4346.8206            2 
   73000    1.2442614   -5.8793137    4324.9819            4 
   74000    1.2461288   -5.8718954    4345.9669            5 
   75000    1.2586531   -5.8420461    4342.6963            2 
   76000    1.2493618    -5.795696    4340.6451            3 
   77000    1.2313415   -5.8240807    4338.1148            2 
   78000    1.2565591   -5.8580905    4346.4997            2 
   79000    1.2632116   -5.8303345    4335.3745            3 
   80000    1.2627425   -5.8327738    4353.2621            2 
   81000     1.276708   -5.8413021    4342.5684            3 
   82000    1.2430594   -5.8308044    4366.3203            2 
   83000    1.2810062   -5.8470114    4343.6362            4 
   84000     1.226602   -5.8135262    4348.5371            6 
   85000    1.2561263   -5.8658416     4332.681            5 
   86000    1.2590742   -5.8169915    4352.1376            4 
   87000    1.2473097   -5.8484309    4344.3089            1 
   88000     1.251877   -5.8190549    4349.1317            6 
   89000    1.2438854   -5.8369718    4340.6168            1 
   90000    1.2289674   -5.8220721    4343.5262            4 
   91000    1.2555682   -5.8260046    4354.7771            4 
   92000    1.2108874   -5.8676986    4364.4065            4 
   93000     1.267976   -5.8383815    4339.5646            1 
   94000    1.2336332   -5.8648806    4347.2348            4 
   95000    1.2540953   -5.8483404    4313.8014            6 
   96000    1.2490024   -5.8473708     4333.905            5 
   97000    1.2398582   -5.8556095    4366.3907            2 
   98000    1.2371539   -5.8437796    4340.7577            6 
   99000    1.2450674   -5.8446656    4353.8031            2 
  100000    1.2586082   -5.8441617    4334.9268            3 
  101000    1.2615995   -5.8654566     4342.701            4 
  102000    1.2497693   -5.8194889    4368.6293            1 
  103000    1.2604634   -5.8546416    4361.0719            4 
  104000    1.2529769   -5.8222264    4341.4451            1 
  105000    1.2319038    -5.847991    4343.4445            4 
  106000    1.2332428   -5.8440395    4339.7344            5 
  107000    1.2609563   -5.8357711    4334.7618            2 
  108000    1.2447778   -5.8370758    4363.2733            2 
  109000    1.2680489   -5.8324919    4339.8266            4 
  110000    1.2566353   -5.8443673    4360.6462            3 
  111000    1.2480426    -5.851842      4345.26            2 
  112000    1.2409151   -5.8635826    4352.7445            3 
  113000    1.2414818     -5.83986     4343.719            5 
  114000    1.2767402   -5.8416362    4355.5622            4 
  115000    1.2510629   -5.8382038    4326.3908            2 
  116000    1.2678983   -5.8183541    4351.3745            2 
  117000    1.2428246   -5.8590107    4331.6202            4 
  118000    1.2620666   -5.8560358    4324.4952            4 
  119000    1.2713519   -5.8162428    4361.7196            3 
  120000    1.2579506     -5.83604    4320.4567            4 
  121000    1.2524202   -5.8743661    4336.3294            3 
  122000     1.285193    -5.827505    4340.7078            4 
  123000    1.2694034   -5.8257181    4350.8459            4 
  124000    1.2697985   -5.8784234    4314.7316            3 
  125000    1.2459578   -5.8565918    4339.5504            3 
  126000    1.2855813   -5.8215055    4329.1387            3 
  127000    1.2428261   -5.8682933    4337.1042            2 
  128000    1.2667103   -5.8245619    4346.5344            2 
  129000    1.2763926   -5.8476095    4326.3611            3 
  130000    1.2446486   -5.8479002    4332.4941            4 
  131000    1.2416074   -5.8602992    4331.3577            3 
  132000    1.2570183   -5.8594163    4332.3466            2 
  133000    1.2412631   -5.8316438    4338.5456            6 
  134000    1.2372594   -5.8658081    4342.8402            4 
  135000    1.2678341   -5.8691494    4351.8862            2 
  136000    1.2511884   -5.8525285    4337.8891            5 
  137000     1.256349   -5.8761629    4349.6341            3 
  138000    1.2446659   -5.8709189    4332.5507            5 
  139000     1.254846   -5.8557099    4329.7491            2 
  140000    1.2204337   -5.8057393     4344.483            2 
  141000     1.238924   -5.8239429    4342.8946            3 
  142000    1.2365368   -5.8750634    4361.3629            3 
  143000    1.2155555   -5.8267016    4341.9741            4 
  144000    1.2553969   -5.8409889    4342.2644            3 
  145000    1.2306271   -5.8540089    4339.6213            4 
  146000    1.2820122   -5.8067799    4354.8924            1 
  147000    1.2873418   -5.8232866    4343.7227            2 
  148000    1.2698106   -5.8626593    4343.6691            4 
  149000    1.2893226   -5.8140147    4344.1712            3 
  150000    1.2497087   -5.7832842    4343.3618            3 
  151000    1.2239706   -5.8248973    4370.5087            3 
  152000    1.2666112   -5.8263748    4345.8311            2 
  153000    1.2206545   -5.8024506    4376.2569            5 
  154000    1.2438539   -5.8206222    4358.0734            4 
  155000    1.2623982   -5.8121435    4348.7791            9 
  156000    1.2261555    -5.852203    4331.1297            3 
  157000    1.2365149   -5.8078404    4379.8924            3 
  158000     1.260682   -5.8622356       4346.6            3 
  159000    1.2610763   -5.7977534    4347.3582            5 
  160000    1.2250505   -5.8490042    4369.8443            3 
  161000    1.2445053   -5.8549009    4323.7519            4 
  162000    1.2496035   -5.8461118    4328.3131            2 
  163000    1.2447233    -5.835667    4327.9968            5 
  164000    1.2424829   -5.8343422     4370.085            4 
  165000    1.2604697   -5.8214974    4338.9321            2 
  166000     1.227147   -5.8494768    4348.8212            6 
  167000    1.2368325   -5.7983828    4350.2519            2 
  168000    1.2483892   -5.8121973    4321.2042            4 
  169000     1.247244   -5.8503624    4332.6431           15 
  170000    1.2422809   -5.8845688    4337.8138            2 
  171000    1.2422569   -5.8446966    4333.1816            2 
  172000    1.2326159   -5.8454346      4354.28            3 
  173000    1.2637577   -5.8426894    4334.1802            8 
  174000    1.2302519   -5.8425415    4349.7559            2 
  175000    1.2404916   -5.8366518    4349.8279            2 
  176000    1.2693421   -5.8375226    4321.0116            3 
  177000    1.2577456   -5.8588783    4352.0632            3 
  178000    1.2547341   -5.8137442    4332.0325            2 
  179000    1.2479501   -5.8664535    4336.7479            3 
  180000    1.2509415   -5.8287798    4333.3316            4 
  181000    1.2336546   -5.8679666    4338.7869            4 
  182000    1.2427981   -5.8749663    4328.2329            2 
  183000    1.2456942   -5.8027037    4350.7544            3 
  184000    1.2512511   -5.8518593    4357.1263            4 
  185000    1.2496489   -5.8212239    4354.5868            3 
  186000    1.2442348   -5.8620359    4330.8859            3 
  187000    1.2273627   -5.8462003    4372.7735            6 
  188000    1.2557467   -5.8190381    4339.3355            2 
  189000    1.2302341   -5.8399186    4351.5986            2 
  190000    1.2677245   -5.8502146    4341.0973            3 
  191000    1.2590509   -5.8481722    4352.2005            3 
  192000    1.2584898   -5.8471447    4348.5926            4 
  193000    1.2554085   -5.8380626      4347.36            4 
  194000     1.253226   -5.8371379    4315.5966            2 
  195000    1.2558118   -5.8583026    4342.7601            3 
  196000    1.2676795   -5.8606708    4332.6247            2 
  197000    1.2694171   -5.8385682    4339.1168            2 
  198000    1.2860456   -5.8397901    4346.0298            2 
  199000    1.2399178   -5.8500125    4348.4364            2 
  200000    1.2669955   -5.8601622    4330.8407            3 
  201000    1.2607615   -5.8372811    4340.4532            4 
  202000    1.2365394   -5.8505901     4345.168            4 
  203000    1.2340889   -5.8556894    4344.5807            3 
  204000    1.2391411   -5.8214896    4341.8015            2 
  205000    1.2493355   -5.8669923    4335.6603            2 
  206000    1.2590935    -5.833865    4359.5584            3 
  207000    1.2554491   -5.8108439    4340.3936            4 
  208000    1.2416267    -5.849953    4331.2628            5 
  209000    1.2302994   -5.8295557     4341.323            2 
  210000    1.2370663   -5.8520677    4358.1811            4 
  211000    1.2803095   -5.8450583    4361.3722            6 
  212000    1.2466106   -5.8206411    4359.4335            1 
  213000    1.2422536   -5.8583019    4323.3888           10 
  214000    1.2439066   -5.8129061    4340.3175            3 
  215000    1.2650442   -5.8693954    4326.6931            4 
  216000     1.235468   -5.8470908    4340.3393            6 
  217000    1.2467181   -5.8421069     4335.482            3 
  218000    1.2467871   -5.8311983    4316.6964            4 
  219000    1.2721277   -5.8020309     4362.855            4 
  220000     1.255949    -5.894894    4328.0869            5 
  221000    1.2350282   -5.8252953    4347.1241            2 
  222000    1.2403235   -5.8156503    4376.0225            2 
  223000    1.2510057   -5.8471672    4348.9258            8 
  224000    1.2491734   -5.8082012    4337.5776            2 
  225000    1.2521742   -5.8051517    4361.5327            3 
  226000    1.2284341   -5.8511131    4348.7559            3 
  227000    1.2665959   -5.8208618    4339.1147            3 
  228000    1.2520306   -5.8463247    4371.1435            3 
  229000    1.2368477   -5.8542937    4343.1512            4 
  230000    1.2699585   -5.8394916    4364.3239            4 
  231000    1.2426135   -5.8170031    4351.2656            4 
  232000    1.2385925   -5.8427298    4340.1639            4 
  233000    1.2652573   -5.8383894    4339.3399            4 
  234000    1.2323182   -5.8300194    4345.0345            2 
  235000    1.2721287   -5.8413284     4341.581            8 
  236000    1.2640574   -5.8373739    4345.8059            3 
  237000    1.2775419   -5.8565696    4350.5714            7 
  238000    1.2280019    -5.834449    4351.5402            3 
  239000    1.2471571   -5.8345724    4352.3961            4 
  240000    1.2549845   -5.8470082    4352.1135            4 
  241000    1.2317086   -5.8224315    4337.6753            4 
  242000    1.2490473   -5.8116164    4359.5094            4 
  243000    1.2499097   -5.8632342    4346.8705            3 
  244000    1.2747838   -5.8514117    4321.8961            3 
  245000    1.2448538   -5.8355022    4315.9728            4 
  246000    1.2388851   -5.8421027     4347.754            4 
  247000    1.2666923   -5.8627477    4330.7904            4 
  248000    1.2328705   -5.8103917    4356.6654            4 
  249000    1.2785824   -5.8518085    4345.6999            2 
  250000    1.2567424   -5.8612504    4341.4014            2 
  251000    1.2423549    -5.800332    4345.7589            3 
  252000    1.2553673   -5.8396197    4347.5418            3 
  253000    1.2762989   -5.8066907    4357.6964            3 
  254000     1.250244   -5.8538463    4345.2466            4 
  255000    1.2652489   -5.8570437    4348.4391            3 
  256000    1.2594307     -5.81363    4366.0998            3 
  257000    1.2655708    -5.862638    4331.9639            4 
  258000    1.2545391   -5.8207213    4355.4365            3 
  259000    1.2572514   -5.8436418    4337.0765            5 
  260000    1.2318226   -5.8995434    4352.2232            2 
  261000    1.2616239   -5.8510627    4353.0183            2 
  262000    1.2522522   -5.8707859    4339.8337            4 
  263000    1.2488493    -5.866005    4327.1103            3 
  264000    1.2551831   -5.8426128    4338.9821            4 
  265000    1.2522404   -5.8421513     4345.719            3 
  266000     1.223699   -5.8213862    4359.3306            4 
  267000    1.2669327   -5.8662304    4340.8341            6 
  268000    1.2785411   -5.8246344    4346.8247            4 
  269000     1.250683   -5.8341762    4327.8296            2 
  270000    1.2571486   -5.8765123    4354.5746            4 
  271000    1.2455141   -5.8423658    4341.1245            4 
  272000    1.2514618   -5.8547405     4358.229            2 
  273000     1.249497   -5.8649282    4333.8477            3 
  274000    1.2752053   -5.8316009    4341.9654            3 
  275000    1.2606289    -5.862832    4331.6211            2 
  276000    1.2481685   -5.8672281    4327.5913            4 
  277000    1.2990436    -5.837039    4335.6907            3 
  278000    1.2464312   -5.8507753     4362.422            3 
  279000    1.2291503   -5.8188624    4342.5336            3 
  280000    1.2586873    -5.833109    4334.1454            5 
  281000    1.2436557    -5.867543    4331.9653            2 
  282000    1.2687092    -5.869227    4331.5129            2 
  283000    1.2680274   -5.8516611    4355.0198            4 
  284000    1.2454418   -5.8290843    4336.0555            3 
  285000    1.2438732   -5.8170771    4353.7009            3 
  286000    1.2562234   -5.8165891    4357.5222            2 
  287000    1.2564046   -5.8408427    4337.1289            4 
  288000    1.2232674   -5.8651766    4347.0736            4 
  289000    1.2074323   -5.8224216    4346.3044            2 
  290000    1.2523039   -5.8586228    4355.3335            6 
  291000    1.2578809   -5.8408035    4319.3426            4 
  292000    1.2745869   -5.8046725    4348.5418            5 
  293000    1.2571883   -5.8470566    4346.6117           11 
  294000    1.2435518   -5.8355302    4326.7296            3 
  295000    1.2668109    -5.839798    4331.8993            3 
  296000    1.2642939    -5.824942    4337.8596            2 
  297000    1.2289438   -5.8208838    4322.3442            3 
  298000    1.2602236    -5.819986    4350.8842            5 
  299000    1.2418029   -5.8526238    4335.7086            3 
  300000    1.2693404   -5.8313422    4340.2153            3 
  301000    1.2314445   -5.8023437    4339.0447            3 
  302000    1.2495817   -5.8115941    4328.5598            3 
  303000    1.2812748   -5.8416026    4357.1271            3 
  304000    1.2245894   -5.8381971    4362.8505            2 
  305000    1.2571567   -5.8290842    4325.5488            2 
  306000    1.2626785   -5.8317738    4349.3795            2 
  307000    1.2538389   -5.8534982    4355.9393            5 
  308000     1.261302   -5.8647066    4348.8026            5 
  309000    1.2795844   -5.8227946    4338.9036            1 
  310000    1.2315319   -5.8188976    4358.0734            5 
  311000    1.2591557   -5.8549007    4346.8528            3 
  312000     1.277563   -5.8096794    4339.0868            5 
  313000    1.2374759   -5.8402417    4351.8425            4 
  314000    1.2568248   -5.8587044    4352.6819            5 
  315000    1.2519927   -5.8464584    4340.9509            3 
  316000    1.2663378   -5.8155213     4340.713            3 
  317000    1.2526212   -5.8543074    4332.1812            6 
  318000    1.2691488   -5.8160689    4359.3055            5 
  319000    1.2785367   -5.8222108     4340.377            4 
  320000    1.2519329    -5.770855    4345.8658            2 
  321000    1.2689511   -5.8347095    4345.4412            2 
  322000    1.2530323   -5.8252623    4330.5684            4 
  323000    1.2572671   -5.8520573    4346.6785            3 
  324000    1.2677176    -5.832358    4354.0533            2 
  325000    1.2490478   -5.8382675    4342.5044            2 
  326000    1.2139369   -5.8327026    4330.2665            3 
  327000     1.231711   -5.8380928    4335.0427            4 
  328000      1.25299   -5.8346636    4321.5204            3 
  329000    1.2619312   -5.8709122    4343.2557            7 
  330000    1.2479803   -5.8729383    4326.9671            2 
  331000    1.2631538   -5.8209154    4357.2329            3 
  332000    1.2339339   -5.8771661    4341.1268            4 
  333000    1.2366093   -5.8392312    4340.9882            5 
  334000    1.2862734   -5.8546143     4346.271            2 
  335000    1.2782952   -5.9040621    4325.5436            4 
  336000    1.2475526   -5.8410786    4337.8118            5 
  337000    1.2545241   -5.8710108    4340.8159            2 
  338000    1.2513615    -5.849368    4341.6885            3 
  339000    1.2192926    -5.833521    4341.3339            2 
  340000    1.2885943   -5.8719135    4317.6097            5 
  341000    1.2592403   -5.8575435    4321.7204            2 
  342000    1.2569125   -5.8274395    4342.4533            2 
  343000    1.2264692   -5.8074348    4359.4994            3 
  344000    1.2522951   -5.8394384      4333.24            3 
  345000    1.2536504   -5.8451782    4346.9101            2 
  346000    1.2462498   -5.8132311    4335.6414            5 
  347000    1.2228581   -5.8818517    4325.3508            3 
  348000    1.2555324   -5.8043175    4365.2871            2 
  349000    1.2427073   -5.8245963      4336.66            4 
  350000    1.2548584   -5.8188466    4355.7992            4 
  351000    1.2467521   -5.8160195    4327.9664            4 
  352000    1.2423717    -5.872823    4325.2778            6 
  353000    1.2524931   -5.8315192    4350.4903            8 
  354000     1.241561    -5.855605    4343.5835            4 
  355000    1.2773878   -5.8514857    4337.3661            4 
  356000    1.2609118   -5.8465653    4347.3175            2 
  357000    1.2372878    -5.812764    4340.6089            5 
  358000    1.2481081   -5.8717005    4325.8426            5 
  359000    1.2566781   -5.8102347    4353.9107            4 
  360000    1.2646061   -5.8860856    4324.6142            6 
  361000    1.2582665   -5.8418587    4314.1202            3 
  362000    1.2435113   -5.8520435    4333.4407            4 
  363000    1.2591956   -5.8593381    4346.3859            2 
  364000    1.2413675   -5.8396176    4330.3705            4 
  365000    1.2412369   -5.8395198    4356.8651            4 
  366000    1.2671658   -5.8631237    4339.6115            6 
  367000    1.2655528   -5.8373721    4323.8753            3 
  368000    1.2409931   -5.8685268    4322.0269            2 
  369000     1.266908   -5.8752582    4338.9457            5 
  370000    1.2489526    -5.861466    4328.8262            6 
  371000    1.2415895   -5.7946145    4350.5059            3 
  372000    1.2754091   -5.8551242     4329.062            3 
  373000    1.2393755   -5.8312549    4358.8626            3 
  374000    1.2626054   -5.8641534    4351.3386            3 
  375000    1.2407086   -5.8350691    4353.2077            6 
  376000    1.2793951   -5.8209355    4350.4244            4 
  377000    1.2412598   -5.8222805    4333.2602            3 
  378000    1.2309582   -5.8513993    4339.4724           12 
  379000    1.2370838   -5.8453419    4335.5851            5 
  380000     1.261507   -5.8426046    4351.9435            2 
  381000    1.2463995   -5.8674675    4351.4222            5 
  382000    1.2528682   -5.8535751     4353.035            4 
  383000    1.2455479   -5.8785114    4337.0802            2 
  384000    1.2501228   -5.8546362    4345.7975            2 
  385000    1.2476833   -5.8539917    4334.8013            4 
  386000    1.2306202   -5.8170229    4348.8165            2 
  387000    1.2518084    -5.847982     4339.817            2 
  388000    1.2262947   -5.8292898    4354.3829            1 
  389000    1.2509685   -5.8125104    4361.1656            4 
  390000    1.2462669   -5.8411325    4347.7069            2 
  391000    1.2639691   -5.8143755    4346.6043            2 
  392000    1.2548023    -5.837695    4325.1603            4 
  393000    1.2469066   -5.8518662    4341.9489            3 
  394000    1.2598796   -5.8023603    4356.3959            3 
  395000    1.2757688   -5.8233074      4373.86            3 
  396000    1.2501206   -5.8393514    4326.7655            4 
  397000    1.2519801   -5.8351468    4335.8578            2 
  398000    1.2358846   -5.8410917    4364.6096            4 
  399000     1.265707   -5.8520648    4334.6285            2 
  400000    1.2290013   -5.8299758    4361.0954            5 
  401000    1.2617599   -5.8674065    4359.6507            3 
  402000    1.2533852   -5.7962026    4362.6511            3 
  403000    1.2358531   -5.8632924    4344.4803            2 
  404000    1.2190546   -5.8341801    4323.6834            2 
  405000    1.2573473   -5.8715118    4326.2323            4 
  406000    1.2419186   -5.8199501    4368.0448            3 
  407000    1.2334887   -5.8333599    4330.7873            3 
  408000    1.2688833   -5.8165176    4361.4758            6 
  409000    1.2582078     -5.81022    4359.8012            3 
  410000    1.2516768   -5.8416713    4351.1235            2 
  411000    1.2606191    -5.831694    4336.8136            2 
  412000    1.2668304   -5.8669171    4312.3228            2 
  413000    1.2453571   -5.8540868    4338.3346            3 
  414000    1.2595432   -5.8270253    4358.5827            2 
  415000    1.2325053   -5.8197485    4352.8523            5 
  416000    1.2462349   -5.8418133    4324.6423            8 
  417000    1.2465555   -5.8245028    4350.3133            3 
  418000     1.254257   -5.8133561    4356.8232            3 
  419000    1.2538766   -5.8399311    4338.6306            3 
  420000    1.2338052   -5.8690416    4345.1835            3 
  421000    1.2093739   -5.8613375    4352.4572            4 
  422000    1.2344327   -5.8334948    4348.1201            2 
  423000    1.2406936   -5.8202892    4333.5259            3 
  424000    1.2393873   -5.8772027    4337.2247            3 
  425000    1.2478418   -5.8289472     4353.663            8 
  426000    1.2626451   -5.8454742    4323.4682            2 
  427000    1.2562544   -5.8310797    4340.1621            6 
  428000    1.2634387   -5.8372777    4351.4574            3 
  429000    1.2336087   -5.8247309    4350.4335            3 
  430000    1.2553362    -5.839064    4335.3009            2 
  431000    1.2370247   -5.8695477    4359.3959            2 
  432000    1.2536826   -5.8530948    4339.6143            1 
  433000    1.2115315   -5.8390626    4334.5095            4 
  434000    1.2402453   -5.8386355    4337.9768            2 
  435000    1.2528566   -5.8078451    4366.1515            3 
  436000       1.2605   -5.8312914    4338.5674            2 
  437000    1.2317158   -5.8506418    4354.2449            3 
  438000    1.2656147   -5.7843814    4337.7825            6 
  439000    1.2386023   -5.8457776    4338.8402            4 
  440000    1.2429745   -5.8487638      4335.08            5 
  441000    1.2733959   -5.8242623    4344.5774            2 
  442000    1.2463632   -5.8211155     4338.606            4 
  443000    1.2327312   -5.8455613     4339.667            3 
  444000    1.2387083   -5.8315214    4364.8816            3 
  445000    1.2348601   -5.8610013    4338.5162            6 
  446000     1.245231   -5.8767903    4332.9472            3 
  447000    1.2814684   -5.8345302    4358.8245            4 
  448000    1.2636426   -5.8516723    4331.7937            6 
  449000    1.2683538   -5.8468014    4328.2555            6 
  450000    1.2774777   -5.8538068    4328.1271            3 
  451000    1.2423978   -5.8410859    4349.7156            3 
  452000    1.2798333    -5.845081     4313.106            2 
  453000    1.2566962   -5.8354434    4332.7407            3 
  454000    1.2688869   -5.8553291    4349.7828            3 
  455000    1.2394301   -5.8130613    4341.2272            9 
  456000    1.2456684   -5.8774559    4361.2763            4 
  457000    1.2618262   -5.8529586    4331.6859           11 
  458000    1.2727731   -5.8567292    4372.2013            5 
  459000    1.2513413   -5.8429501    4344.2868            5 
  460000    1.2400159    -5.825778    4349.0882            2 
  461000    1.2453698     -5.83371    4357.5319            3 
  462000    1.2509212   -5.8694536    4332.8457            5 
  463000    1.2540286   -5.8558737    4323.0734            3 
  464000    1.2647084   -5.8344007    4346.6254            6 
  465000    1.2381283   -5.8161164    4359.0795            1 
  466000    1.2550943   -5.8508401    4343.2226            6 
  467000    1.2184778   -5.8571129    4342.1253            4 
  468000    1.2644824   -5.8520468    4328.7043            3 
  469000    1.2452679   -5.8508544    4329.9556            3 
  470000    1.2621601   -5.8272787    4336.4024            5 
  471000    1.2690443   -5.8002526    4360.9799            3 
  472000    1.2651858   -5.8402476    4335.9915            4 
  473000    1.2622253    -5.843059    4346.6088            2 
  474000    1.2687721   -5.8571826    4357.4636            4 
  475000     1.235546   -5.8343654    4359.1502            5 
  476000    1.2582935   -5.8524004    4342.7129            3 
  477000      1.22233   -5.8577133    4344.6982            2 
  478000    1.2580874   -5.8741596    4328.2641            5 
  479000    1.2300492   -5.8069762    4347.3208            3 
  480000    1.2760894   -5.8104047    4353.5961            2 
  481000    1.2508986   -5.8853998    4341.5947            6 
  482000    1.2426324   -5.8447981    4337.4864            5 
  483000    1.2803095   -5.8032938       4347.9            5 
  484000    1.2782075   -5.8378958    4318.4842            2 
  485000    1.2654052   -5.7942088    4373.0516            3 
  486000    1.2440379   -5.8605739    4328.8576            2 
  487000    1.2419323   -5.8441106    4324.6919            2 
  488000    1.2468834   -5.8101346     4350.548            4 
  489000    1.2624238   -5.8835113    4335.9563            3 
  490000    1.2673148   -5.8549967    4338.4529            4 
  491000    1.2507266   -5.8239125    4330.5908            5 
  492000    1.2543307   -5.8265862    4341.4133            4 
  493000    1.2494337   -5.8333242    4365.3941            2 
  494000    1.2652644   -5.7992959    4363.5218            3 
  495000    1.2352619   -5.8189015    4353.0609            2 
  496000    1.2456386    -5.837591    4334.9436            4 
  497000     1.241701   -5.7935659    4348.5685            4 
  498000    1.2365341   -5.8445402    4339.3131            2 
  499000     1.255477   -5.8373322    4352.6449            2 
  500000    1.2367528     -5.85443      4337.95            4 
  501000    1.2624478   -5.8493215    4329.7771            2 
  502000    1.2562725   -5.8511942    4350.3134            3 
  503000    1.2485495   -5.8435661     4330.706            5 
  504000    1.2300998   -5.8369464     4338.749            4 
  505000    1.2488831   -5.8485782    4336.8121            3 
  506000    1.2450234   -5.8429812    4332.7208            3 
  507000    1.2646324   -5.8772145     4343.432            4 
  508000    1.2801454   -5.8211264    4319.3545            5 
  509000    1.2354503   -5.8666182    4328.1871            2 
  510000    1.2407816   -5.8441224     4347.164            5 
  511000    1.2656901   -5.8406176    4336.7035            3 
  512000    1.2517708   -5.8663327    4342.0171            3 
  513000    1.2689854    -5.821021     4327.343            2 
  514000    1.2513091   -5.8537899    4353.4234            3 
  515000    1.2461324   -5.8581868    4344.4988            6 
  516000    1.2806338   -5.8734753    4359.0876            2 
  517000     1.225916   -5.8139911    4344.8915            2 
  518000    1.2758963   -5.8726112    4335.5985            1 
  519000    1.2406211   -5.8524118    4332.6936            3 
  520000    1.2454113    -5.839846     4338.667            3 
  521000    1.2481382   -5.8288073    4346.8902            4 
  522000    1.2385832   -5.8532845    4344.8726            2 
  523000    1.2488669   -5.8645941    4344.1165            3 
  524000    1.2556884   -5.8117648    4349.9376            5 
  525000    1.2541333   -5.8278963    4364.4305            3 
  526000    1.2561362    -5.829621    4340.3776            3 
  527000    1.2377498   -5.8638898    4349.0814            4 
  528000    1.2452589   -5.8054201    4325.8702            5 
  529000    1.2551707   -5.8579645    4340.9444            3 
  530000    1.2725866   -5.8040781    4358.2317            1 
  531000    1.2777908   -5.8385637    4339.9773            3 
  532000    1.2762032   -5.8499633    4346.2191            3 
  533000    1.2736903   -5.8235708    4346.8227            2 
  534000    1.2734682   -5.8492729    4340.7538            4 
  535000    1.2529201    -5.792611    4357.8984            2 
  536000    1.2543631   -5.8664114    4347.6343            9 
  537000    1.2590978   -5.8727417    4341.8604            3 
  538000     1.267826   -5.8416429    4329.4278            4 
  539000    1.2544766   -5.8019143    4348.0032            2 
  540000    1.2221114     -5.87142    4333.4594            5 
  541000    1.2596292   -5.8152956    4343.5497            4 
  542000    1.2557212   -5.8455388    4342.9814            5 
  543000    1.2557094   -5.8658603     4327.076            4 
  544000    1.2452022   -5.8615136    4338.2308            2 
  545000    1.2516168   -5.8241825     4329.478            1 
  546000    1.2533612   -5.8321036    4323.1593           13 
  547000    1.2715408   -5.8832692    4320.9978            4 
  548000    1.2488177   -5.8178561    4359.5711            5 
  549000    1.2735952   -5.8080757    4369.2719            3 
  550000    1.2416619   -5.8383946     4339.489            4 
  551000     1.262065   -5.8268796    4358.8687            3 
  552000    1.2571979   -5.8370832    4344.0542            3 
  553000    1.2388619   -5.7911771    4351.8097            6 
  554000    1.2587367   -5.8057171    4350.0995            4 
  555000    1.2429282   -5.8352311    4348.7066            5 
  556000    1.2613819   -5.8715103    4332.5592            2 
  557000    1.2697879   -5.8907018    4330.2515            6 
  558000    1.2777224   -5.8267435    4357.5993            4 
  559000    1.2575998   -5.8005357    4352.4588            7 
  560000    1.2235823   -5.8312173    4340.4279            3 
  561000    1.2235293   -5.8250715    4348.1273            4 
  562000    1.2639546   -5.8216518    4340.4688            2 
  563000     1.246143   -5.8542618    4345.5329            2 
  564000    1.2459863   -5.8413623    4340.5509            4 
  565000     1.251509   -5.8155404    4347.6577            8 
  566000    1.2409903   -5.8154504    4336.6848            3 
  567000    1.2328265    -5.835174      4330.26            2 
  568000    1.2546067   -5.8478419    4341.3632            3 
  569000    1.2516465   -5.8588796    4344.4671            3 
  570000    1.2592517   -5.8518143    4356.3709            2 
  571000     1.255657    -5.829505    4343.9888            2 
  572000    1.2642619   -5.8515445    4343.1785            2 
  573000    1.2524805   -5.8486005     4346.641            4 
  574000    1.2439093   -5.8593188    4333.3894            2 
  575000    1.2588617   -5.8246715    4340.7369            3 
  576000    1.2151083   -5.8377923    4346.2425            3 
  577000    1.2509644   -5.8434868    4325.6515            4 
  578000    1.2461234   -5.8177797    4339.4164            2 
  579000    1.2415625   -5.8446661    4344.3221            6 
  580000    1.2432161   -5.8622271    4332.4901           10 
  581000    1.2776271   -5.8563681    4356.0679            3 
  582000    1.2428211   -5.8619613    4350.6938            7 
  583000    1.2452405   -5.8678743    4350.3085            4 
  584000    1.2644234    -5.822708    4348.1212            3 
  585000    1.2650509   -5.8786613    4342.3342            5 
  586000    1.2446792   -5.8580344    4334.9243            2 
  587000    1.2417582   -5.8535544    4335.1325            3 
  588000    1.2560837   -5.8592805    4323.4756            2 
  589000    1.2539463    -5.846799    4354.4384            4 
  590000    1.2698457   -5.8707882    4350.1695            2 
  591000    1.2584704   -5.8490973    4350.1873            2 
  592000    1.2364799   -5.8474921    4343.5534            3 
  593000    1.2487203   -5.8337516    4345.0269            3 
  594000    1.2602598   -5.8324419    4345.5162            5 
  595000    1.2912823   -5.8352236     4318.281            3 
  596000    1.2397267   -5.8410141     4349.111            6 
  597000    1.2579295   -5.8977058    4327.3924            2 
  598000    1.2425482   -5.8539552    4353.3453            2 
  599000    1.2512162   -5.8753302    4345.3358            3 
  600000    1.2614755   -5.8607755    4350.3202            4 
  601000    1.2302059     -5.84503    4344.4178            2 
  602000    1.2787789   -5.8730349    4344.2281            2 
  603000    1.2477711   -5.8646472    4336.6841            2 
  604000    1.2570259   -5.8352399    4339.8771            2 
  605000    1.2447582   -5.8537584    4342.2908            2 
  606000    1.2662183   -5.8447892    4331.8219            3 
  607000    1.2742329   -5.8409499    4354.0717            1 
  608000    1.2440532   -5.8516936    4339.7553            2 
  609000    1.2273373   -5.8264332    4331.9841            3 
  610000    1.2446939   -5.8631559    4342.1593            2 
  611000    1.2798746   -5.8492425    4336.7436            1 
  612000     1.233603   -5.7851807    4362.0029            4 
  613000    1.2525464   -5.8432793    4331.2465            2 
  614000    1.2374474   -5.8332833    4348.8132            2 
  615000    1.2476096   -5.8108481    4338.3622            3 
  616000    1.2566529   -5.8012658    4356.1624            2 
  617000    1.2453977    -5.835683    4359.2112            2 
  618000    1.2284468   -5.8890153     4330.097            5 
  619000    1.2434779   -5.7998567    4345.4646            3 
  620000    1.2332085   -5.8612968     4332.516            2 
  621000    1.2303475   -5.8570865     4325.736            3 
  622000    1.2518367   -5.8255283    4348.0631            3 
  623000    1.2517114   -5.8328461    4329.7405            3 
  624000    1.2604769   -5.8563801    4323.8398            1 
  625000    1.2828534   -5.8650235     4345.856            4 
  626000    1.2577659   -5.8577666    4344.1004            5 
  627000    1.2541374   -5.8833452    4334.6323            4 
  628000    1.2427137   -5.8129618    4354.3007            2 
  629000    1.2641858   -5.8324879    4361.9599            1 
  630000    1.2542659   -5.8151614    4339.0711            3 
  631000     1.256901   -5.8857477    4354.6324            4 
  632000    1.2329337   -5.8375628    4333.2434            4 
  633000    1.2312003   -5.8073285    4340.0616            2 
  634000    1.2548919   -5.8236911    4353.3479            1 
  635000    1.2735183   -5.8484543    4327.5796            3 
  636000    1.2611682   -5.8170087    4347.4112            3 
  637000    1.2331815   -5.8648426    4352.8762            4 
  638000    1.2892186   -5.8426364    4349.3749            5 
  639000    1.2413694   -5.8313778    4349.1579            2 
  640000    1.2587109    -5.822242    4350.1465            5 
  641000    1.2233029   -5.8652022    4355.6283            5 
  642000    1.2666629   -5.8042355     4358.275            2 
  643000    1.2409926   -5.8422616    4335.6697            3 
  644000    1.2475239   -5.8249165    4350.0135            4 
  645000    1.2624617   -5.8381515    4350.8955            5 
  646000    1.2473828   -5.8390134    4330.9569            2 
  647000    1.2380492   -5.8465337    4336.2836            6 
  648000    1.2593473   -5.8254712    4340.5474            4 
  649000    1.2525101   -5.8539514    4326.9796            3 
  650000    1.2173872    -5.874967    4350.8506            2 
  651000    1.2549983   -5.8574596    4332.6939            3 
  652000    1.2489512   -5.8092799    4362.9749            3 
  653000    1.2611458   -5.8959734    4327.4377            1 
  654000    1.2421411   -5.8115569    4347.4478            7 
  655000     1.251669   -5.8749356    4350.7803            4 
  656000    1.2638052   -5.8373549    4337.2659            5 
  657000    1.2592565   -5.8359406    4346.3262            3 
  658000    1.2671219   -5.8409694    4328.7684            3 
  659000     1.224931   -5.8342947    4348.3927            5 
  660000    1.2148425   -5.8630145    4312.4688            4 
  661000    1.2638233   -5.8330958    4363.1152            5 
  662000    1.2443547   -5.8329513    4348.8128            6 
  663000    1.2203427    -5.829264    4356.2626            1 
  664000    1.2562423   -5.8441367    4342.2651            2 
  665000    1.2755872   -5.8013626    4359.9712            2 
  666000    1.2501416   -5.8071857     4344.969            4 
  667000     1.259284   -5.8437447     4372.681            2 
  668000    1.2589847   -5.8446318    4350.2146            3 
  669000    1.2201572   -5.8412317    4328.6888            1 
  670000    1.2613556   -5.8113536    4353.0998            2 
  671000    1.2515211   -5.8280898    4353.5699            2 
  672000    1.2464891   -5.8425862    4354.4012            3 
  673000    1.2455694   -5.8152994    4364.8618            3 
  674000    1.2496982    -5.822866     4344.904            4 
  675000    1.2413143   -5.8439706    4338.7298            5 
  676000    1.2450906   -5.8294748    4344.1906            1 
  677000     1.275216   -5.8712859    4338.1211            3 
  678000    1.2579881   -5.8552726    4346.6355            6 
  679000    1.2821305   -5.8357413    4356.3785            4 
  680000     1.269476   -5.8749211    4329.0134            7 
  681000     1.264992   -5.7936307    4360.3894            3 
  682000    1.2427169   -5.8393774    4365.2188            4 
  683000    1.2757396   -5.8104614    4369.1498            5 
  684000    1.2705662   -5.8499242    4336.0727            4 
  685000    1.2506898   -5.8321768    4338.2074            4 
  686000    1.2321881   -5.8170522    4337.8918            3 
  687000    1.2486339   -5.8137666    4331.9837            3 
  688000    1.2382122   -5.8936867    4337.0733            2 
  689000     1.234158    -5.823296    4332.4852            4 
  690000    1.2629394   -5.8179087    4334.7447            5 
  691000    1.2354349   -5.8639229    4340.2441            6 
  692000     1.254141   -5.8601941    4312.2304            4 
  693000    1.2709554   -5.8614384    4338.4063            2 
  694000    1.2416629   -5.8347462    4359.7267            1 
  695000    1.2495172   -5.8346691    4344.1296            3 
  696000    1.2614125   -5.8664516    4349.7351            4 
  697000    1.2598027   -5.8480584    4332.4312            2 
  698000    1.2337578    -5.840963    4353.6706            2 
  699000    1.2542172   -5.8428381    4346.7795            2 
  700000    1.2672221    -5.860031    4331.8708            4 
  701000    1.2395254    -5.851733    4332.2214            5 
  702000    1.2021048   -5.8082399    4340.8358            4 
  703000    1.2439877   -5.8561663    4340.4962            3 
  704000    1.2332394   -5.8428208    4342.3917            4 
  705000     1.245471   -5.8241499    4335.3499            2 
  706000    1.2511525   -5.8504531    4324.2532            2 
  707000     1.265453   -5.8519674     4336.807            3 
  708000    1.2781692   -5.8363081    4347.7433            3 
  709000    1.2235082   -5.8426833    4342.0872            3 
  710000     1.249197   -5.8329859    4333.6529            2 
  711000    1.2501196    -5.841589    4358.4508            2 
  712000    1.2425518   -5.8275504    4332.9211            3 
  713000    1.2379384   -5.8478001    4343.1758            3 
  714000    1.2489735   -5.8550571    4346.3995            3 
  715000    1.2367173   -5.8149981    4334.4443            3 
  716000    1.2504416   -5.8612958    4326.7771            2 
  717000    1.2429109     -5.83494    4350.2548            3 
  718000    1.2354145   -5.8746522    4324.1663            2 
  719000    1.2465636   -5.8433715    4340.8156            3 
  720000     1.258725     -5.81456    4359.2439            3 
  721000    1.2554537   -5.8019318    4346.0813            3 
  722000    1.2463815   -5.8671007    4327.3689            2 
  723000    1.2208371   -5.8151513      4360.37            3 
  724000    1.2758631   -5.8331069    4348.5339            1 
  725000    1.2519539   -5.8642939    4338.3981            3 
  726000    1.2394421   -5.8439095    4340.1919            6 
  727000    1.2572739    -5.827523    4356.9148            3 
  728000    1.2369059   -5.7980583    4350.6277            2 
  729000    1.2365062   -5.8710913    4331.2053            2 
  730000    1.2500612   -5.8688381    4328.4132            2 
  731000    1.2545796   -5.8604854    4340.3924            3 
  732000    1.2216565   -5.8436451     4343.676            2 
  733000    1.2492127   -5.8209414    4339.9176            2 
  734000    1.2320524   -5.8541996    4332.5265            4 
  735000    1.2373749   -5.8489123    4328.4725            2 
  736000    1.2673751   -5.8310317    4355.5875            5 
  737000    1.2523979   -5.8385099    4332.2059            1 
  738000    1.2502767   -5.8292215    4345.7506            3 
  739000    1.2553632   -5.8030782    4321.4078            4 
  740000    1.2797101    -5.804489    4353.0765            4 
  741000    1.2685659   -5.8245599    4351.4126            2 
  742000    1.2603178   -5.8114432    4361.8217            3 
  743000    1.2138723   -5.8224469    4344.8244            4 
  744000    1.2321695   -5.8507059    4347.3389            6 
  745000    1.2423403   -5.8301645     4354.091            2 
  746000    1.2571138   -5.8536793    4356.6214            3 
  747000    1.2560051   -5.8189474    4338.7715            5 
  748000    1.2485993   -5.8354963    4353.5441            4 
  749000    1.2577496   -5.8178247    4335.9501            2 
  750000    1.2591336   -5.8562427     4347.711            3 
  751000    1.2515142   -5.8162966    4351.8801            5 
  752000    1.2404992   -5.8639828    4335.9254            3 
  753000    1.2522888   -5.8708794    4331.2097            6 
  754000    1.2325769   -5.8037963    4348.2825            2 
  755000    1.2201473    -5.834702    4362.3021            2 
  756000    1.2172768   -5.8431767     4329.737            2 
  757000    1.2555268   -5.8671981    4335.5244            3 
  758000    1.2467884   -5.8242601    4337.0125            1 
  759000    1.2609483   -5.8245754    4359.9941            3 
  760000    1.2440537   -5.8357647    4354.1599            2 
  761000     1.229914   -5.8597697     4334.404            3 
  762000    1.2406923   -5.8134579    4340.4476            3 
  763000    1.2576299   -5.8560612    4341.2243            3 
  764000    1.2536544   -5.8343582    4358.1275            3 
  765000    1.2304777    -5.848692    4360.4765            3 
  766000    1.2190611   -5.8551859    4336.0526            5 
  767000     1.266906   -5.8203475    4334.6068            3 
  768000    1.2563653    -5.843324    4355.6793            4 
  769000    1.2412675   -5.8475079    4353.5058            5 
  770000    1.2254964   -5.8259915    4349.1479            8 
  771000    1.2441836    -5.846418     4331.368            3 
  772000    1.2760292   -5.8441422    4358.9818            3 
  773000    1.2487595   -5.8312982    4361.7097            2 
  774000    1.2539721   -5.8425193    4335.9842            4 
  775000    1.2441211   -5.8758141     4366.846            3 
  776000    1.2621739   -5.8042541    4343.6414            2 
  777000    1.2414374    -5.877363    4345.1894            2 
  778000    1.2620756   -5.8527931    4337.7724            4 
  779000    1.2496248   -5.7805939      4347.23            4 
  780000    1.2394128   -5.8365719    4339.7835            5 
  781000    1.2569064   -5.8167204    4371.3002            2 
  782000     1.246581   -5.8835947    4317.5568            3 
  783000    1.2584567   -5.8626177    4354.2956            3 
  784000    1.2461227   -5.8492144    4333.6255            3 
  785000    1.2408223   -5.8714727    4324.3024            2 
  786000    1.2629823   -5.8552403    4343.4818            5 
  787000    1.2425845   -5.8478008     4340.824            5 
  788000      1.26098    -5.857964    4338.9224            4 
  789000    1.2265085   -5.8348508    4340.0563            3 
  790000    1.2352125   -5.8616124    4337.5451            2 
  791000    1.2202874    -5.854033    4342.4576            4 
  792000    1.2396182   -5.8499172    4329.9779            2 
  793000    1.2472605   -5.8545133    4340.4504            3 
  794000     1.267628    -5.864144    4355.0796            3 
  795000    1.2453122   -5.8311078    4341.3981            4 
  796000    1.2496164   -5.8150913    4342.1626            3 
  797000    1.2321074   -5.8757099    4345.1361            4 
  798000    1.2189711   -5.8439956    4366.0506            7 
  799000    1.2407369   -5.8281939    4348.6865            4 
  800000    1.2160611   -5.8074557    4344.8556            2 
  801000    1.2570318   -5.8496581     4355.554            3 
  802000    1.2465275   -5.9017708    4309.3172           12 
  803000    1.2457122   -5.8049097    4347.5894            3 
  804000    1.2533491   -5.8592884    4327.5577            3 
  805000    1.2433045   -5.8463459    4338.7316            2 
  806000    1.2503479   -5.8434608    4343.0029            3 
  807000    1.2547755   -5.8295976    4358.5261            2 
  808000    1.2147729   -5.8259557    4347.3408            4 
  809000    1.2396405   -5.8447814    4332.2225            5 
  810000    1.2470289   -5.7793395    4353.1021            3 
  811000    1.2135526   -5.8127122    4349.9372            3 
  812000    1.2684856    -5.797882    4351.6053            3 
  813000    1.2655155   -5.8650192    4351.1501            3 
  814000    1.2317501   -5.8438415    4362.9886            3 
  815000    1.2597969   -5.8026045    4367.9163            3 
  816000    1.2274611   -5.8477535    4330.2569            3 
  817000    1.2711461   -5.8284912    4342.0656            4 
  818000    1.2556442   -5.8213376    4338.3423            5 
  819000    1.2489678   -5.8539081    4323.7671            5 
  820000    1.2284769   -5.8590206    4334.5866            3 
  821000    1.2726159   -5.8240963    4345.3268            2 
  822000    1.2486651   -5.8387243     4347.174            3 
  823000    1.2386914   -5.8504519    4344.7418            4 
  824000    1.2476417   -5.8737581    4341.7405            3 
  825000    1.2409581   -5.8667976     4344.839            3 
  826000    1.2623187   -5.8267001     4358.706            3 
  827000    1.2512226   -5.8267802     4360.751            5 
  828000    1.2194393   -5.8778351    4315.5735            3 
  829000    1.2341545   -5.8260051     4364.918            2 
  830000    1.2655105   -5.8525204    4331.7156            5 
  831000    1.2448036   -5.8461478    4342.5282            3 
  832000    1.2480002   -5.8439253    4356.4989            4 
  833000    1.2588331   -5.8627306    4338.3074            1 
  834000    1.2691951   -5.8452222    4339.3149            2 
  835000    1.2821418   -5.8551232    4359.4739            4 
  836000    1.2528975   -5.8301859    4337.5074            3 
  837000    1.2574654    -5.807532    4334.9628            2 
  838000    1.2614608   -5.8399868    4324.3769            2 
  839000    1.2250629   -5.8396084    4352.4395            6 
  840000    1.2534709   -5.8276395    4354.3369            2 
  841000    1.2530736   -5.8531428    4328.0748            4 
  842000    1.2679859    -5.837768    4348.4222            6 
  843000    1.2397189   -5.8514323    4372.1542            2 
  844000    1.2562323   -5.8384199    4341.3095            2 
  845000    1.2639552   -5.8843812    4342.7364            2 
  846000    1.2645038    -5.846917     4329.078            5 
  847000    1.2359417   -5.8948976    4320.4294            5 
  848000    1.2710966    -5.823938    4367.3912            3 
  849000    1.2048089   -5.8658039    4324.7961            3 
  850000    1.2643077   -5.8249663     4342.618            3 
  851000    1.2375004   -5.8238999    4338.0464            3 
  852000    1.2479345   -5.8461392    4345.0068            3 
  853000     1.261327   -5.8627079    4343.9769            2 
  854000    1.2533893   -5.8200666    4340.4207            2 
  855000     1.264597   -5.8140671    4360.5004            3 
  856000    1.2270235   -5.8284878     4338.514            4 
  857000    1.2264778   -5.8441502    4340.9821            2 
  858000     1.229254   -5.8547476    4327.8115            4 
  859000    1.2781198   -5.8377156    4343.9249            2 
  860000    1.2422225   -5.8282197    4329.1198            3 
  861000    1.2282595   -5.8394776    4342.6154            4 
  862000     1.233972   -5.8480846    4340.4083            3 
  863000    1.2356728    -5.820841    4352.0852            3 
  864000     1.263503   -5.8223222    4357.4225            4 
  865000    1.2497914   -5.8593204    4365.8059            2 
  866000    1.2502776   -5.8085827    4354.2501            3 
  867000    1.2352473   -5.8170429    4345.9374            1 
  868000    1.2457543   -5.8625966    4331.4348            2 
  869000    1.2354419   -5.8552896    4339.6867            4 
  870000    1.2495837   -5.8462521      4356.06            2 
  871000    1.2530729   -5.8084093    4340.4707            4 
  872000    1.2361958   -5.8764922    4334.7459            3 
  873000    1.2460716   -5.8348924      4356.52            5 
  874000    1.2371502   -5.8659656    4351.7158            5 
  875000    1.2584698   -5.8656806    4332.5059            6 
  876000    1.2185058   -5.8157224    4340.5778            2 
  877000    1.2612559   -5.8456358    4332.4504            4 
  878000    1.2370117   -5.8330956    4336.7771            2 
  879000    1.2814272   -5.8371129    4342.2891            4 
  880000    1.2435514   -5.8813184    4338.0541            2 
  881000    1.2580473   -5.8255232    4364.2031            2 
  882000    1.2470325   -5.8266254     4328.442            4 
  883000    1.2740923   -5.8492805    4333.1323            2 
  884000     1.218664   -5.8428082    4326.8836            2 
  885000    1.2321843   -5.8737472    4333.7323            5 
  886000    1.2736543    -5.871688    4344.6055            5 
  887000    1.2411561   -5.7728962    4357.8403            3 
  888000    1.2526117    -5.864023    4374.2897            3 
  889000     1.227978   -5.8460304    4330.5707            2 
  890000    1.2460803   -5.8466484    4335.3137            3 
  891000    1.2404046   -5.7973402    4359.3789            1 
  892000    1.2423258   -5.8536801    4328.7262            5 
  893000     1.233483   -5.8179422    4347.3453            2 
  894000     1.242885    -5.887611    4355.5162            7 
  895000    1.2544113   -5.8804276    4309.4937            6 
  896000     1.266303   -5.9120124    4335.9783            3 
  897000    1.2633183   -5.7998742    4348.1457            6 
  898000    1.2469808    -5.856822    4340.6428            3 
  899000    1.2438648   -5.8352849    4357.8933            2 
  900000    1.2714652   -5.8054815    4349.5349            3 
  901000    1.2724398   -5.8286696    4339.7506            7 
  902000    1.2694938   -5.8855258    4341.1118            4 
  903000    1.2155394   -5.8204999    4336.0951            2 
  904000     1.247778    -5.857192    4360.0055            4 
  905000    1.2714705   -5.8302489    4343.9144            7 
  906000    1.2181226   -5.8778774    4329.5888            7 
  907000      1.24436   -5.8404642    4322.1785            4 
  908000    1.2305492   -5.8412735    4340.4952            4 
  909000    1.2399061   -5.8566081    4342.9485            5 
  910000    1.2589621   -5.8133186    4346.0666            3 
  911000    1.2620805   -5.8273344    4340.3123            2 
  912000     1.253672   -5.8172568    4340.0135            3 
  913000    1.2628618   -5.8372371    4370.7642            4 
  914000    1.2620729   -5.8286382    4351.0925            2 
  915000      1.23557   -5.8109583     4347.183            3 
  916000    1.2623758   -5.8452962    4348.9923            2 
  917000    1.2494728   -5.8414234    4342.9019            3 
  918000     1.271098   -5.8546714    4348.7101            6 
  919000     1.213876   -5.8509523    4338.5191            1 
  920000    1.2509188   -5.8321001    4364.7223            2 
  921000     1.232755   -5.8509088    4338.0529            2 
  922000    1.2332862   -5.8102395    4355.4644            2 
  923000    1.2363238   -5.8603707     4334.984            3 
  924000    1.3019503   -5.8179994    4349.6413            6 
  925000    1.2693728   -5.8727734    4339.5884            4 
  926000     1.248037   -5.8392868    4331.7732            3 
  927000    1.2741965   -5.8012219    4338.2723            3 
  928000    1.2557217   -5.8789687    4343.0387            4 
  929000    1.2571854   -5.8537369    4324.5592            2 
  930000    1.2706202   -5.8213588    4329.3772            6 
  931000    1.2644624   -5.8746661    4340.7201            3 
  932000    1.2495732   -5.8289022    4345.9446            3 
  933000    1.2790865   -5.8229184    4346.1913            6 
  934000    1.2584082   -5.8586939    4348.5493            3 
  935000    1.2614398   -5.8449298    4353.6443            7 
  936000    1.2531638    -5.849338    4339.9375            7 
  937000    1.2552051   -5.8535775    4355.1191            9 
  938000    1.2484879    -5.872625    4348.2161            3 
  939000    1.2526407   -5.7978772    4338.0117            3 
  940000    1.2496146   -5.8411398    4341.1213            2 
  941000     1.265254   -5.8483528    4337.5146            4 
  942000    1.2620077   -5.8498085    4348.0469            4 
  943000    1.2607348   -5.8146099    4375.5896            1 
  944000    1.2587357    -5.831705    4343.5439            2 
  945000    1.2276475   -5.8193079    4332.3658            3 
  946000    1.2575831   -5.8630241    4330.9928            3 
  947000    1.2321651   -5.8536412    4345.9147            2 
  948000    1.2471232   -5.8708844    4358.7258            4 
  949000    1.2553486   -5.8393005    4362.7418            2 
  950000    1.2478854   -5.8373561    4333.9459            2 
  951000    1.2210202   -5.8733253    4351.8572            2 
  952000     1.260957   -5.8342851    4347.2296            2 
  953000    1.2496124   -5.8440826    4340.9503            5 
  954000    1.2409019   -5.8605115    4345.4925            7 
  955000    1.2669222   -5.8553201    4346.8861            3 
  956000    1.2633387    -5.823626    4361.6375            4 
  957000      1.23596   -5.8712358    4332.6482            4 
  958000    1.2199574   -5.8682502    4366.4603            2 
  959000    1.2819536   -5.8068269    4358.3674            3 
  960000     1.268501   -5.8183191    4348.9171            4 
  961000    1.2502373   -5.8560835    4339.0081            5 
  962000    1.2538011   -5.8274481     4345.954            2 
  963000    1.2475252   -5.8362632    4342.6907            6 
  964000    1.2498326   -5.8392634    4338.4551            3 
  965000    1.2351131   -5.8685703    4351.8845            4 
  966000     1.244675   -5.8287539    4352.7544            2 
  967000    1.2451652   -5.8923972     4327.224            6 
  968000    1.2634479    -5.890899     4319.183            6 
  969000    1.2374725   -5.8001129     4352.886            2 
  970000    1.2543561   -5.9031349    4326.9062            4 
  971000    1.2572042   -5.8443602    4343.0292            3 
  972000    1.2516615   -5.8281529    4341.4936            2 
  973000    1.2743588   -5.8190032    4351.4419            2 
  974000    1.2762532   -5.8024807    4352.7937            3 
  975000    1.2844377   -5.8603049    4358.3551            5 
  976000    1.2525608     -5.86007     4329.531            2 
  977000    1.2440942   -5.8805737    4335.5869            2 
  978000    1.2570416   -5.8339013    4359.6354            3 
  979000     1.260622   -5.8472499    4319.3262            3 
  980000    1.2619463   -5.8384024    4331.6895            3 
  981000    1.2450664   -5.8126263    4356.5125            3 
  982000     1.231311   -5.8270983    4343.8292            3 
  983000    1.2565943   -5.8509946    4320.5966            2 
  984000    1.2554118   -5.8552228    4332.4454            2 
  985000    1.2472662   -5.8345496    4353.4338            3 
  986000    1.2365383   -5.8310083    4344.1242            3 
  987000    1.2270348   -5.8057247    4353.8855            3 
  988000    1.2413368   -5.8531614    4340.1068            3 
  989000    1.2502226   -5.8231706    4328.8431            3 
  990000    1.2337899   -5.8322108    4338.4587            2 
  991000    1.2264867   -5.8157647    4360.5883            3 
  992000    1.2287957   -5.8563759     4339.205            2 
  993000    1.2451797   -5.8078618    4321.5896            5 
  994000    1.2570366   -5.8330258    4346.7443            4 
  995000    1.2624301   -5.8167156     4341.033            2 
  996000    1.2500111   -5.8210969    4336.6408            7 
  997000    1.2557982   -5.8614095    4348.4756            8 
  998000    1.2271101   -5.8439093    4321.7955            4 
  999000    1.2439968   -5.8547391    4346.8992            3 
 1000000    1.2652897   -5.8424604    4333.7026            2 
 1001000    1.2509613   -5.8008131    4357.6591            5 
 1002000    1.2781624    -5.862595    4324.5345            2 
 1003000    1.2266398   -5.8604343    4340.7299            7 
 1004000    1.2617054   -5.8794573    4347.5849            2 
Loop time of 2051.7 on 48 procs for 1000000 steps with 4000 atoms

Performance: 84222.776 tau/day, 487.400 timesteps/s
99.4% CPU use with 48 MPI tasks x no OpenMP threads

MPI task timing breakdown:
Section |  min time  |  avg time  |  max time  |%varavg| %total
---------------------------------------------------------------
Pair    | 113.73     | 122.81     | 128.84     |  21.4 |  5.99
Neigh   | 16.343     | 16.615     | 17.106     |   4.3 |  0.81
Comm    | 110.38     | 119.77     | 131.05     |  32.5 |  5.84
Output  | 1.3803     | 1.3815     | 1.4001     |   0.2 |  0.07
Modify  | 1764.8     | 1772.9     | 1780.7     |  10.5 | 86.41
Other   |            | 18.25      |            |       |  0.89

Nlocal:        83.3333 ave          89 max          78 min
Histogram: 4 4 7 4 8 7 3 0 5 6
Nghost:        1557.88 ave        1575 max        1533 min
Histogram: 2 1 3 2 5 7 14 8 2 4
Neighs:        8735.73 ave        9422 max        8031 min
Histogram: 2 5 1 9 8 8 5 2 3 5
FullNghs:      17471.6 ave       18695 max       16229 min
Histogram: 4 3 4 4 12 7 3 3 1 7

Total # of neighbors = 838637
Ave neighs/atom = 209.65925
Neighbor list builds = 66580
Dangerous builds = 2

#clear
#
#next RN
#
#jump SELF
Total wall time: 0:34:12
