
units lj                  # Use reduced LJ style units
atom_style atomic         # Uncharged point particles
atom_modify map hash      # Needed for indexing of clusters etc
                          # Used to be able to find where atoms are in relation to each other.

lattice fcc 1.0 spacing 1 1 1
Lattice spacing in x,y,z = 1.5874011 1.5874011 1.5874011
region box block 0 10 0 10 0 10 units lattice
create_box 2 box
Created orthogonal box = (0.0000000 0.0000000 0.0000000) to (15.874011 15.874011 15.874011)
  3 by 4 by 4 MPI processor grid
create_atoms 1 box
Created 4000 atoms
  using lattice units in orthogonal box = (0.0000000 0.0000000 0.0000000) to (15.874011 15.874011 15.874011)
  create_atoms CPU = 0.002 seconds
set type 1 type/fraction 2 0.08 78393
Setting atom values ...
  344 settings made for type/fraction
mass 1 1.0
mass 2 1.0
pair_style lj/cut  3.5
pair_modify tail  yes
pair_coeff 1  1  1.0  1.0   # Intearaction between 1 and 1 set with epsilon = 1 and sigma = 1
pair_coeff 1  2  1.5  0.8
pair_coeff 2  2  0.5  0.88

write_data data.0
System init for write_data ...
Neighbor list info ...
  update every 1 steps, delay 10 steps, check yes
  max neighbors/atom: 2000, page size: 100000
  master list distance cutoff = 3.8
  ghost atom cutoff = 3.8
  binsize = 1.9, bins = 9 9 9
  1 neighbor lists, perpetual/occasional/extra = 1 0 0
  (1) pair lj/cut, perpetual
      attributes: half, newton on
      pair build: half/bin/atomonly/newton
      stencil: half/bin/3d
      bin: standard
WARNING: Not all mixed pair coeffs generated from mixing. Use write_data with 'pair ij' option to store all pair coeffs. (../write_data.cpp:312)


#############################
#   M E L T   S Y S T E M   #
#############################

velocity all create 2.4 5300450 mom yes dist gaussian # Assign velocities
                                                    # Temperature 2.4, random number seed, zero linear momentum
                                                                                # Gaussian distribution

timestep 0.002   # simulation timestep
thermo 1000       # output thermodynamic data every 1000 steps bf 100

# Define a fix  in this case with index 1 applied to all
# particles in the simulation. This fix is for simulations
# in the anisotropic NPT ensemble. Note that we use the MTK
# correction.
fix 1 all npt temp 2.4 2.4 0.1 iso 5.68 5.68 0.5 mtk yes tchain 5 pchain 5 # Use NPT ensemble
                                                                         # Set temperature and pressure and damping
                                                                         # Numbers of thermostats in chain and in barostat
run 10000          # run for 10000 steps
Per MPI rank memory allocation (min/avg/max) = 3.642 | 3.644 | 3.648 Mbytes
Step Temp E_pair E_mol TotEng Press Volume 
       0          2.4   -7.8205278            0   -4.2214278   -2.8943486         4000 
    1000    2.4138912   -4.5846394            0  -0.96470783    5.7807077    4893.6821 
    2000    2.3546751   -4.5160771            0  -0.98494745    5.8081513    4920.6873 
    3000    2.4106798   -4.5703391            0  -0.95522339    5.5778532    4916.1634 
    4000    2.4224423   -4.5359802            0  -0.90322515    5.7965242    4913.6155 
    5000    2.3844731   -4.5623585            0  -0.98654311    5.8551895     4887.891 
    6000    2.3967913   -4.5442829            0  -0.94999481    5.6014564    4925.0271 
    7000    2.3269355   -4.5976814            0   -1.1081507    5.5552625    4893.2143 
    8000    2.3902194   -4.5938767            0   -1.0094439    5.5234525    4913.8206 
    9000    2.3723064   -4.5400299            0  -0.98245993    5.5631415    4940.4284 
   10000      2.42287   -4.5669618            0  -0.93356538    5.5010057    4929.4073 
Loop time of 2.13677 on 48 procs for 10000 steps with 4000 atoms

Performance: 808697.250 tau/day, 4679.961 timesteps/s
99.6% CPU use with 48 MPI tasks x no OpenMP threads

MPI task timing breakdown:
Section |  min time  |  avg time  |  max time  |%varavg| %total
---------------------------------------------------------------
Pair    | 0.90027    | 0.94661    | 1.0067     |   3.0 | 44.30
Neigh   | 0.18928    | 0.196      | 0.20315    |   0.7 |  9.17
Comm    | 0.68956    | 0.74574    | 0.81533    |   3.6 | 34.90
Output  | 0.00025264 | 0.00025762 | 0.00033008 |   0.0 |  0.01
Modify  | 0.20763    | 0.23367    | 0.26128    |   2.7 | 10.94
Other   |            | 0.0145     |            |       |  0.68

Nlocal:        83.3333 ave          93 max          74 min
Histogram: 1 3 6 6 10 7 6 4 4 1
Nghost:        1424.73 ave        1447 max        1390 min
Histogram: 1 0 1 2 8 15 5 9 4 3
Neighs:        7730.29 ave        8853 max        6726 min
Histogram: 2 2 6 10 7 5 8 3 4 1

Total # of neighbors = 371054
Ave neighs/atom = 92.763500
Neighbor list builds = 902
Dangerous builds = 200

# Equilibrate just above the melting temperature to avoid step fn in T

fix 1 all npt temp 1.25 1.25 0.1 iso 5.68 5.68 0.5 mtk yes tchain 5 pchain 5
run 2000
Per MPI rank memory allocation (min/avg/max) = 3.642 | 3.644 | 3.648 Mbytes
Step Temp E_pair E_mol TotEng Press Volume 
   10000      2.42287   -4.5669618            0  -0.93356538    5.5010057    4929.4073 
   11000    1.2693052   -6.1699235            0   -4.2664417    5.6500349     4042.395 
   12000    1.2605747   -6.1022533            0    -4.211864    5.8556436    4050.0458 
Loop time of 0.466986 on 48 procs for 2000 steps with 4000 atoms

Performance: 740064.379 tau/day, 4282.780 timesteps/s
99.6% CPU use with 48 MPI tasks x no OpenMP threads

MPI task timing breakdown:
Section |  min time  |  avg time  |  max time  |%varavg| %total
---------------------------------------------------------------
Pair    | 0.20286    | 0.222      | 0.23991    |   1.7 | 47.54
Neigh   | 0.03215    | 0.033479   | 0.036487   |   0.5 |  7.17
Comm    | 0.14271    | 0.15965    | 0.17741    |   2.2 | 34.19
Output  | 5.1636e-05 | 5.3013e-05 | 6.6559e-05 |   0.0 |  0.01
Modify  | 0.04138    | 0.047372   | 0.052984   |   1.5 | 10.14
Other   |            | 0.004427   |            |       |  0.95

Nlocal:        83.3333 ave          90 max          74 min
Histogram: 2 3 1 2 3 10 15 2 8 2
Nghost:        1628.38 ave        1656 max        1599 min
Histogram: 3 4 3 5 12 3 1 10 2 5
Neighs:        9421.35 ave       10316 max        8189 min
Histogram: 3 2 2 3 5 7 10 9 3 4

Total # of neighbors = 452225
Ave neighs/atom = 113.05625
Neighbor list builds = 144
Dangerous builds = 8

#############################
# L I N E A R  Q U E N C H  #
#############################

# Define solid atoms. This closely follows ten Wolde  Ruiz-Montero and Frenkel  Faraday Discuss  1996  104  93-110
# Compute components of the per-atom q6 vector
compute q6 all orientorder/atom degrees 1 6 components 6 nnn NULL cutoff 1.3 # compute the Q6 parameter.
                                                                             # Use all neighbours within 1.3 unit cell.

# get number of connections
compute coord_number all coord/atom orientorder q6 0.5

# An atom is solid if it has 8 or more connections (of a possible 14)
variable is_solid atom c_coord_number>=8
group solid dynamic all var is_solid    # Must be dynamic to update
dynamic group solid defined

# do clustering
compute cluster solid cluster/atom 1.3 # Create a cluster where all atoms within are solid and max 1.3 units from another member

# define chunks one chunk per cluster
compute clus_chunks solid chunk/atom c_cluster nchunk every compress yes  # Says which atoms are in which chunk

# count the size of each chunk
compute size_chunks solid property/chunk clus_chunks count


# Find the maximum entry in the vector of chunk sizes
variable max_n equal max(c_size_chunks)


# Thermo style which includes this variable
# thermo_style custom step temp pe vol v_max_n

thermo ${N}  # Print the thermo information every 100 steps
thermo 1000  

# Reset the npt fix at a lower temperature (below freezing)
fix 1  all npt temp  ${temp} ${temp}  0.1  iso  5.68  5.68  0.5  mtk yes tchain  5  pchain  5
fix 1  all npt temp  0.45 ${temp}  0.1  iso  5.68  5.68  0.5  mtk yes tchain  5  pchain  5
fix 1  all npt temp  0.45 0.45  0.1  iso  5.68  5.68  0.5  mtk yes tchain  5  pchain  5

dump dmp2 all dcd ${N} traj.dcd
dump dmp2 all dcd 1000 traj.dcd


compute msd all msd com yes
variable twopoint equal c_msd[4]/6/(step*dt+1.0e-6)
fix 9 all vector 10 c_msd[4]
variable fit equal slope(f_9)/6/(10*dt)
thermo_style custom step temp pe c_msd[4] v_twopoint v_fit v_max_n

fix 1 all npt temp 1.25 ${temp} 0.1 iso 5.68 5.68 0.5 mtk yes tchain 5 pchain 5
fix 1 all npt temp 1.25 0.45 0.1 iso 5.68 5.68 0.5 mtk yes tchain 5 pchain 5
run 2000000 # 5000000  # Run for this many steps
Neighbor list info ...
  update every 1 steps, delay 10 steps, check yes
  max neighbors/atom: 2000, page size: 100000
  master list distance cutoff = 3.8
  ghost atom cutoff = 3.8
  binsize = 1.9, bins = 9 9 9
  4 neighbor lists, perpetual/occasional/extra = 1 3 0
  (1) pair lj/cut, perpetual
      attributes: half, newton on
      pair build: half/bin/atomonly/newton
      stencil: half/bin/3d
      bin: standard
  (2) compute orientorder/atom, occasional
      attributes: full, newton on
      pair build: full/bin/atomonly
      stencil: full/bin/3d
      bin: standard
  (3) compute coord/atom, occasional
      attributes: full, newton on
      pair build: full/bin/atomonly
      stencil: full/bin/3d
      bin: standard
  (4) compute cluster/atom, occasional
      attributes: full, newton on
      pair build: full/bin/atomonly
      stencil: full/bin/3d
      bin: standard
Per MPI rank memory allocation (min/avg/max) = 9.745 | 9.751 | 9.757 Mbytes
Step Temp PotEng c_msd[4] v_twopoint v_fit v_max_n 
   12000    1.2605747   -6.1022533 1.1519341e-30 7.9995423e-33 8.3333333e+20            2 
   13000    1.2333932   -6.1008479   0.57619373 0.0036935494  0.047179067            5 
   14000    1.2262224   -6.1492224    1.1634033 0.0069250196  0.048421328            2 
   15000    1.2307705   -6.1320077      1.74646 0.0097025552  0.048829301            2 
   16000    1.2298697   -6.1536143     2.322451  0.012096098  0.048630112            2 
   17000    1.2571244   -6.1552503    2.9236163  0.014331452  0.048353993            2 
   18000    1.2388075   -6.1308499    3.4669439  0.016050666  0.048295998            3 
   19000    1.2345893   -6.1582051    3.9651005  0.017390791  0.047887114            2 
   20000    1.2347795    -6.176043    4.4551081   0.01856295  0.047011776            4 
   21000    1.2344177   -6.1505351    5.0110138  0.019884975  0.046354326            2 
   22000    1.2747682    -6.119828    5.5467064  0.021010251   0.04604331            2 
   23000    1.2850575   -6.1736187    5.9978322  0.021731276  0.045701234            5 
   24000    1.2409935   -6.1764995    6.4839582  0.022513743  0.045193343            1 
   25000    1.2657237   -6.1663244    6.9572761   0.02319092   0.04470729            1 
   26000    1.2358369   -6.1393512    7.5132885  0.024081052  0.044431799            3 
   27000    1.2131023   -6.1571643    8.0722005  0.024914199  0.044195726            4 
   28000     1.242146   -6.0978597    8.6467124  0.025734263  0.044168527            2 
   29000    1.2535734   -6.1684311    9.1508188  0.026295456  0.044135806            3 
   30000       1.2357   -6.1640723    9.6203719  0.026723255  0.044062558            2 
   31000    1.2539931   -6.1462675    10.132217  0.027237142  0.043934555            1 
   32000    1.2508124   -6.1458549    10.644848  0.027720958  0.043810583            2 
   33000    1.2326603   -6.1137429    11.172627  0.028213703   0.04370391            3 
   34000    1.2566715   -6.1289128    11.715927  0.028715507  0.043659465            4 
   35000    1.2458414   -6.1612056    12.223663  0.029103958  0.043629687            1 
   36000     1.210151   -6.1464113    12.730598  0.029468976  0.043567952            3 
   37000    1.2311849   -6.2045418    13.194421  0.029717164  0.043533482            3 
   38000    1.2357359   -6.1653593    13.785529  0.030231423   0.04350341            2 
   39000    1.2583547   -6.0993972    14.309553  0.030575968  0.043498798            6 
   40000    1.2109893   -6.1854438    14.822383  0.030879963  0.043490577            3 
   41000    1.2437151   -6.1257881    15.426756  0.031355194  0.043504749            3 
   42000    1.2226976   -6.1809102    15.767016  0.031283762  0.043495663            2 
   43000    1.2327774   -6.1625985    16.272788  0.031536411  0.043421071            2 
   44000    1.2330126   -6.2321558    16.822902  0.031861557  0.043362755            4 
   45000    1.2518579    -6.140403    17.490269  0.032389386  0.043367978            2 
   46000    1.2297199   -6.1799161    17.909091  0.032444005  0.043388968            2 
   47000    1.2331835   -6.1833367    18.451556  0.032715524  0.043375561            2 
   48000    1.2338828    -6.183104    18.993743  0.032975249  0.043404611            2 
   49000     1.225617   -6.1356447     19.62531  0.033376377  0.043419391            2 
   50000    1.2217156   -6.1830417    20.249849  0.033749747  0.043486934            2 
   51000    1.2411461   -6.1412246    20.700086  0.033823669  0.043537513            2 
   52000    1.2346432   -6.1570588    21.168304  0.033923564    0.0435391            4 
   53000    1.2083132    -6.139966    21.662295  0.034060212  0.043551015            1 
   54000    1.2390995   -6.2030492    22.262045  0.034355007  0.043551364            2 
   55000    1.2417873   -6.1450302    22.758451  0.034482502  0.043575976            5 
   56000    1.2252166   -6.1718954     23.25047  0.034598913  0.043572425            2 
   57000    1.2578666   -6.1732154    23.818382  0.034822196  0.043582194            1 
   58000    1.2325233   -6.1485045    24.242713  0.034831484  0.043597557            3 
   59000    1.2361825   -6.1697418    24.755238  0.034965025  0.043585495            3 
   60000    1.2101282   -6.1678512    25.207545  0.035010479  0.043561712            3 
   61000    1.2228311   -6.1755836    25.723622   0.03514156   0.04353186            4 
   62000    1.2034867   -6.1322029    26.322714  0.035379992  0.043519755            2 
   63000    1.2063438   -6.1488188    26.910903  0.035596432   0.04352235            3 
   64000    1.2421149   -6.1499105    27.316572  0.035568452  0.043519245            2 
   65000    1.1863178    -6.209164    27.757155  0.035586096  0.043511951            2 
   66000    1.2511418   -6.1984999    28.373639  0.035825301  0.043495504            4 
   67000    1.2117746   -6.1517867    28.957868  0.036017249  0.043488011            2 
   68000    1.2074681   -6.1909722    29.370138  0.035992816  0.043480785            3 
   69000    1.2138851   -6.1876679    29.908709  0.036121629  0.043461597            3 
   70000    1.2229813   -6.2012354    30.277334  0.036044445  0.043436946            5 
   71000    1.2361089   -6.1849638    30.742679  0.036082956  0.043409614            3 
   72000    1.2330815   -6.1922268    31.333073  0.036265131  0.043384428            2 
   73000     1.240399    -6.175698    31.762097  0.036258101  0.043355889            2 
   74000    1.2254261   -6.1944993    32.276794  0.036347741  0.043322657            2 
   75000    1.2264724   -6.1976598    32.800559  0.036445065  0.043289286            3 
   76000    1.2092783   -6.1904246    33.418971  0.036643608  0.043271366            2 
   77000    1.2134737   -6.2354381    33.869808  0.036655636  0.043265776            1 
   78000    1.2333577   -6.1735528    34.611967  0.036978597   0.04326594            2 
   79000    1.2063249   -6.2077611    35.166853  0.037095836  0.043275026            3 
   80000    1.2416022   -6.1981453    35.709956  0.037197871   0.04328683            2 
   81000    1.2339015   -6.1880885    36.120438  0.037160944  0.043296319            1 
   82000    1.2299032   -6.2141387    36.568472  0.037163081  0.043292407            3 
   83000    1.2036418   -6.2157882    36.929675  0.037077986  0.043290828            2 
   84000    1.1955493   -6.1555768    37.756376  0.037456722  0.043286429            3 
   85000    1.2136367    -6.174335    38.376121  0.037623647  0.043292395            5 
   86000    1.2391233   -6.1930888    38.909985  0.037703473  0.043304671            3 
   87000    1.2124202   -6.1841754    39.531557  0.037865476  0.043319683            4 
   88000    1.1984451   -6.2082258    40.145994   0.03801704  0.043344473            5 
   89000     1.231459    -6.197877    40.591445  0.038006971  0.043374093            3 
   90000     1.204255   -6.2044054    41.113844  0.038068374  0.043398093            2 
   91000    1.2362704   -6.1770845    41.470598  0.037976738  0.043415941            5 
   92000    1.2090882   -6.2009162    42.277812  0.038295119   0.04343482            2 
   93000    1.2160879   -6.2064981    42.664451  0.038229795  0.043456755            3 
   94000    1.2189578   -6.1870439    43.048627  0.038163676  0.043469529            2 
   95000     1.229788   -6.1939452    43.724492  0.038354817  0.043474857            1 
   96000    1.2246343   -6.1643907    44.195239  0.038363922  0.043474494            2 
   97000    1.2114882   -6.1756056    44.793844  0.038482683  0.043477479            2 
   98000    1.2322568   -6.2134886    45.232025  0.038462606  0.043486774            4 
   99000    1.2132961   -6.1977295    46.083925  0.038791183  0.043505882            2 
  100000    1.1960201    -6.203893    46.504618  0.038753848  0.043529335            2 
  101000    1.2115908   -6.2299826    47.033281  0.038806338   0.04355367            1 
  102000    1.2022077   -6.1725242    47.609367  0.038896542  0.043580756            3 
  103000    1.2327093   -6.1730033    48.192325  0.038990554  0.043603136            2 
  104000    1.2180276     -6.15674    48.756292  0.039067541  0.043626586            3 
  105000    1.1994773   -6.2087083     49.33484  0.039154635  0.043648104            3 
  106000    1.1981525   -6.2213929    49.781166  0.039136136  0.043672817            2 
  107000    1.2189915     -6.19622    50.227301  0.039117836  0.043693126            2 
  108000    1.2330866   -6.1534513    51.024637  0.039370862  0.043708783            3 
  109000    1.2410494   -6.2245611    51.523696  0.039391205  0.043734235            4 
  110000    1.2073807   -6.2361693    51.973738  0.039374044  0.043757802            3 
  111000    1.2178061   -6.2095798    52.698814  0.039563674   0.04378194            4 
  112000    1.2053661   -6.1900123    53.416013  0.039744057  0.043814863            3 
  113000    1.2053278   -6.2005116    53.657131  0.039570155  0.043844554            4 
  114000    1.2165884   -6.2294823    54.373142  0.039746449   0.04387036            3 
  115000    1.2052303   -6.1829112    55.058563  0.039897509  0.043901676            2 
  116000    1.2030518   -6.2034054    55.731127  0.040036729  0.043935081            4 
  117000     1.202791   -6.1733889    56.125396  0.039975353  0.043962062            2 
  118000    1.2035111   -6.2030159     55.89608  0.039474633  0.043971325            2 
  119000    1.1861542   -6.1943288    56.551907  0.039602176  0.043975238            6 
  120000    1.2156233   -6.2251754    57.180261  0.039708514  0.043983035            1 
  121000    1.2185274   -6.2087233    57.633757   0.03969267  0.043993588            3 
  122000    1.2112427    -6.223165    57.864761   0.03952511  0.043992497            2 
  123000    1.2173226   -6.1754494    58.762541   0.03981202  0.043992955            3 
  124000      1.20786   -6.2020575    59.103987  0.039720421  0.043994826            4 
  125000    1.1850529   -6.2105313    59.714989  0.039809993  0.044000717            8 
  126000    1.1902139   -6.2385317    60.009166  0.039688602  0.044002555            1 
  127000     1.201176   -6.2156271    60.543488  0.039726698  0.044000508            3 
  128000    1.2307711   -6.1901329    61.249055  0.039875687   0.04400023            3 
  129000    1.2149843   -6.1974647    61.866512  0.039965447   0.04400116            2 
  130000    1.2192141   -6.1613755    62.207036  0.039876305    0.0439979            4 
  131000    1.2041568    -6.190855    63.029622  0.040095179  0.043997906            3 
  132000    1.1981854   -6.1920649    63.248365  0.039929524  0.043997998            4 
  133000     1.205026   -6.2113723    63.946468  0.040066709     0.043994            3 
  134000    1.2237047   -6.2278703    64.512007  0.040119407  0.043995159            2 
  135000    1.2237861   -6.2196451    64.987729  0.040115882  0.043997884            2 
  136000    1.2152914   -6.2325748    65.476894  0.040120646  0.043997545            3 
  137000    1.2054849   -6.2172856    66.219195  0.040279315  0.043995736            2 
  138000    1.2167955   -6.2393276    66.508425  0.040162092  0.043993227            2 
  139000      1.22813   -6.2751059    66.385117  0.039799231  0.043982266            2 
  140000    1.2144232   -6.2484233    67.015471  0.039890161  0.043965507            5 
  141000    1.2085503   -6.2757094    67.211902  0.039723346  0.043948049            3 
  142000    1.2163842   -6.2737241    67.790012  0.039782871  0.043926768            2 
  143000    1.1882889   -6.2438179    68.111498  0.039692015  0.043902567            5 
  144000    1.2098559   -6.2362587    68.700259  0.039757094   0.04387946            4 
  145000    1.2001319   -6.1939037    68.890048  0.039591981   0.04385215            2 
  146000    1.2047931   -6.2376645    69.470059   0.03965186  0.043821809            3 
  147000    1.2177758   -6.2262361     69.64551  0.039481581  0.043788003            6 
  148000    1.1920177   -6.2225354    70.352067   0.03961265  0.043755438            2 
  149000    1.2061164   -6.2081437    70.815791  0.039606147    0.0437264            6 
  150000     1.219838   -6.2188304    71.352845  0.039640469  0.043696256            5 
  151000    1.1956678   -6.2501333    71.640509  0.039536705  0.043664475            5 
  152000    1.2014382    -6.241868    72.144769  0.039553053  0.043630917            2 
  153000    1.1881441   -6.2169824    72.716384  0.039605874  0.043600293            3 
  154000    1.2048562   -6.2232975    73.291401  0.039659849  0.043565981            3 
  155000    1.2026058   -6.2208807    73.379275  0.039451223  0.043531878            2 
  156000    1.2100243   -6.2228525    74.232824  0.039654286  0.043498127            2 
  157000    1.1986964   -6.2681044    74.566139   0.03957863  0.043462417            1 
  158000    1.1908671   -6.2406285    74.991557  0.039552509  0.043428543            3 
  159000    1.1863531   -6.2886884    75.558684  0.039600987  0.043392173            2 
  160000    1.1840991   -6.2142504    76.020083  0.039593793  0.043359882            3 
  161000    1.1760987   -6.2248183      76.1909  0.039436283  0.043323588            5 
  162000    1.2170957   -6.2525653    76.884133  0.039549451  0.043287818            2 
  163000    1.1959605   -6.2770526     77.26452  0.039501288  0.043253871            4 
  164000    1.2036324   -6.2360942    77.753615  0.039508951  0.043216248            4 
  165000    1.1681469   -6.2237964    78.328464   0.03955983  0.043180732            1 
  166000    1.1843945      -6.2055    78.533302  0.039424348  0.043144717            2 
  167000    1.1966891   -6.2814178    78.858488  0.039350543  0.043108374            5 
  168000    1.1872389   -6.2526883    79.652928  0.039510381   0.04307388            3 
  169000    1.1998561   -6.2464934     80.08909  0.039491661  0.043039766            1 
  170000    1.1592281   -6.2546852    80.291476  0.039358567  0.043004898            6 
  171000    1.1818112   -6.2645956    80.759735  0.039356596  0.042970813            3 
  172000    1.2154232   -6.2946482    81.279295  0.039379503  0.042934324            2 
  173000    1.1825852   -6.2511333    81.714415  0.039361471  0.042900223            3 
  174000    1.2030454   -6.2885268    82.205085  0.039370252  0.042868107            6 
  175000    1.2182281    -6.233303    82.884566  0.039468841  0.042837939            4 
  176000    1.1715158   -6.2752598    83.358039  0.039468769  0.042806215            2 
  177000    1.1754755   -6.2072068    83.778745  0.039443854  0.042777587            7 
  178000    1.1767368   -6.2587106    84.222988  0.039430238  0.042750388            7 
  179000    1.1882469   -6.2791019    84.973568  0.039559389  0.042722031            3 
  180000    1.2046717   -6.2777143    85.538137  0.039600989  0.042699959            2 
  181000    1.1740318   -6.2259455    86.075601  0.039629651  0.042677327            3 
  182000    1.1997355   -6.2616265    86.754448  0.039722732  0.042657836            7 
  183000    1.1775769   -6.2432506    87.176053  0.039697656  0.042641389            2 
  184000    1.1631608   -6.2769178    87.481342  0.039620173  0.042623356            3 
  185000    1.1798213   -6.2674742    88.264042  0.039758577  0.042603721            5 
  186000    1.1589669   -6.2497456    88.516228  0.039657808  0.042583673            2 
  187000    1.1545602   -6.2530272    89.062105  0.039688995  0.042560434            2 
  188000    1.1727009   -6.2678592    89.061665  0.039477688   0.04253589            6 
  189000    1.1834702   -6.2475694    89.384196  0.039411021  0.042507549            4 
  190000    1.1886884   -6.2444837    90.066011  0.039502636  0.042481054            2 
  191000    1.1574491   -6.2771917    90.301583  0.039398596  0.042454885            5 
  192000    1.2029909   -6.2394938    91.000798  0.039496874  0.042429459            5 
  193000    1.1784537   -6.2646142    91.272972  0.039409746  0.042402443            4 
  194000    1.1833782   -6.2674666    91.673436  0.039378624  0.042374551            3 
  195000    1.1841662   -6.2709408    92.156606  0.039383165  0.042345406            2 
  196000    1.1837439   -6.2855428    92.592214  0.039367438  0.042315311            2 
  197000    1.1642545   -6.2483545    92.743342  0.039231532  0.042286158            4 
  198000    1.1571569   -6.2474042    93.102323  0.039184479  0.042257399            6 
  199000    1.1821547   -6.2658774    93.980964  0.039355512   0.04222806            6 
  200000    1.1688414    -6.261209    94.303385  0.039293077  0.042201289            3 
  201000      1.14632   -6.2483976    94.817026  0.039310541  0.042174648            3 
  202000    1.1414106   -6.2682316    94.933122  0.039163829  0.042145955            1 
  203000     1.169998   -6.2804757     95.19004  0.039076371  0.042113741            3 
  204000    1.1803547   -6.2637174    95.771812  0.039122472  0.042080732            2 
  205000      1.15996    -6.297666    96.216412  0.039112362  0.042049072            2 
  206000    1.1569139   -6.2813305    96.965376  0.039225476  0.042019596            3 
  207000     1.192472    -6.301575    97.402306  0.039211878  0.041992038            4 
  208000    1.1653933   -6.3008495    97.832588  0.039195748  0.041962829            4 
  209000    1.1735633   -6.3187564    97.744544  0.038973104   0.04193134            2 
  210000    1.1624905   -6.2810816    98.830513  0.039218457  0.041902246            1 
  211000    1.1839866   -6.2665883    99.190182  0.039174637  0.041873821            1 
  212000    1.1795926   -6.2679566    99.394075  0.039069998  0.041846381            8 
  213000    1.1540579   -6.2665764    100.06111  0.039147539  0.041818322            2 
  214000    1.1816424   -6.2621286    100.85908  0.039275343  0.041789042            4 
  215000    1.1827306   -6.3020013    101.03013  0.039158965  0.041763267            3 
  216000    1.1611522   -6.3256129    101.59623  0.039196076  0.041738117            3 
  217000    1.1700287   -6.3152703    101.82189  0.039102106  0.041713026            5 
  218000    1.2017411   -6.2870281    102.01428  0.038996284  0.041686757            2 
  219000    1.1657653   -6.2158186    103.10675  0.039233923  0.041662987            5 
  220000    1.1475015   -6.2988784    103.36474  0.039153309  0.041637027            4 
  221000    1.1558373    -6.264094    104.27504  0.039319396  0.041614368            3 
  222000    1.1755771   -6.2589389    104.63406  0.039277048  0.041593174            1 
  223000    1.1676386   -6.2784243    105.02481  0.039246939  0.041570015            3 
  224000    1.1787481   -6.2937164    104.98818  0.039058104   0.04154716            3 
  225000    1.1467765   -6.2860741    105.90042  0.039222377  0.041524475            2 
  226000      1.17609   -6.2497033    106.62394  0.039315611  0.041502426            3 
  227000    1.1471858   -6.2715241    107.03974  0.039295058  0.041481872            3 
  228000    1.1542076   -6.2589495    107.24822   0.03919891  0.041462731            2 
  229000    1.1585644    -6.288943    107.54982  0.039137489   0.04144241            4 
  230000    1.1547997    -6.301555    108.08158  0.039159994  0.041420314            6 
  231000    1.1745922    -6.301901    108.53407  0.039153705  0.041396371           10 
  232000      1.15637   -6.2714577    108.47347  0.038963173  0.041373443            5 
  233000    1.1804929   -6.3101544    108.83468  0.038925135  0.041349459            4 
  234000    1.1680885   -6.3167873      109.095  0.038851496  0.041323968            2 
  235000    1.1310946   -6.3052682    109.70996   0.03890424  0.041296243            6 
  236000    1.1768925   -6.2925162    109.86215  0.038793133  0.041268737            3 
  237000    1.1427523   -6.2625802    110.50725  0.038856276  0.041241453            2 
  238000    1.1807977   -6.3154644    110.52692    0.0386999   0.04121505            9 
  239000    1.1645281   -6.2952917    111.19416  0.038770627  0.041185971            6 
  240000    1.1546354   -6.2740883     111.8759  0.038845798  0.041157878            2 
  241000    1.1976723   -6.3203152    111.72667  0.038633013   0.04113022            2 
  242000    1.1410704   -6.2648689    112.38273  0.038699288  0.041102673            2 
  243000    1.1524431   -6.2748136    112.95962  0.038737866  0.041077466            3 
  244000    1.1710567   -6.3268088    113.44538  0.038745007  0.041050979            6 
  245000    1.1489535   -6.3024344    114.44209  0.038925881  0.041025294            1 
  246000    1.1771969   -6.3071829    114.59541  0.038819583  0.041001367            6 
  247000    1.1603471    -6.329178     115.3123  0.038904285  0.040978735            3 
  248000    1.1271462   -6.2814051    116.19817  0.039045084  0.040956251            2 
  249000    1.1561549   -6.3013109    116.77985  0.039082947  0.040939292            3 
  250000    1.1548185   -6.2435629    117.12693  0.039042311  0.040921059            4 
  251000    1.1523543   -6.3008718    117.52089   0.03901756  0.040902541            3 
  252000    1.1552871   -6.3149123    118.45037  0.039170095  0.040883711            2 
  253000    1.1587774   -6.2888786    118.30938  0.038968835  0.040864364            3 
  254000     1.183824   -6.3250543     118.5316   0.03888832  0.040844191            2 
  255000    1.1572918   -6.3544812     118.8972  0.038855293   0.04082371            5 
  256000    1.1455106   -6.3110759    119.70588  0.038966757  0.040803876            2 
  257000    1.1549731   -6.3206741    119.81164  0.038849428  0.040784915            2 
  258000    1.1285406   -6.3041164     120.2132  0.038828552  0.040765179            3 
  259000    1.1435926   -6.3260205    121.00052  0.038931957  0.040744448            3 
  260000    1.1521486   -6.3178297    120.88337  0.038744669  0.040725062            2 
  261000    1.1391136   -6.3213276     121.5774  0.038817815  0.040706207            4 
  262000    1.1308581   -6.3048234    121.68933  0.038705257  0.040685848            3 
  263000    1.1562848   -6.3449566    122.09578  0.038686875  0.040664914            3 
  264000     1.141461   -6.3357048    122.65435   0.03871665  0.040643186            5 
  265000     1.166114   -6.3068256    123.27681  0.038766292  0.040622249            1 
  266000    1.1186157   -6.2962319    124.35532  0.038958433  0.040604879            6 
  267000    1.1460337   -6.3002542    124.67334   0.03891178  0.040588095            2 
  268000    1.1629482   -6.3120785    124.92398   0.03884452  0.040570562            3 
  269000    1.1778292   -6.2864156    125.66712  0.038930335  0.040554437            7 
  270000    1.1337707    -6.322996    125.61946   0.03877144  0.040536422            6 
  271000    1.1524031   -6.2979873    126.51623  0.038904129  0.040518881            3 
  272000    1.1677164   -6.3130864    127.10987  0.038942976  0.040503057            4 
  273000    1.1545184   -6.3516382     127.1311  0.038806808  0.040486555            3 
  274000     1.143926     -6.32943     127.8937   0.03889711  0.040469981            5 
  275000     1.142495   -6.3264967    128.22543   0.03885619  0.040453433            4 
  276000    1.1427698   -6.3371846    128.77282  0.038880683  0.040438798            2 
  277000    1.1455618   -6.2951037    129.38651  0.038924943  0.040424407            3 
  278000    1.1373222   -6.3036788    130.23912  0.039040505  0.040410892            3 
  279000    1.1488793   -6.2864301    130.23903  0.038900546  0.040397908            4 
  280000    1.1508018   -6.3185244    130.49781  0.038838634  0.040383724            1 
  281000    1.1508382   -6.3355533    131.00783   0.03885167  0.040368706            4 
  282000    1.1378318   -6.3239992    132.01356  0.039011098  0.040354941            2 
  283000    1.1174334   -6.2963729    132.39991  0.038987016  0.040340671            2 
  284000    1.1529053   -6.3593215    132.48837  0.038875695  0.040327947            6 
  285000    1.1557515   -6.3385854    132.82845  0.038838728  0.040314129            1 
  286000    1.1336791    -6.320418    133.11035  0.038785068  0.040299993            5 
  287000    1.1347045   -6.3194006    133.43843  0.038745188  0.040284401            3 
  288000    1.1263273   -6.3820893    133.99433  0.038771508  0.040268013            4 
  289000    1.1381496   -6.3447223    133.87144  0.038601916  0.040251785            3 
  290000    1.1395152   -6.3346681    134.92019   0.03877017   0.04023414            4 
  291000    1.1499741   -6.3795103    135.03947  0.038671096  0.040217607            3 
  292000    1.1383856   -6.3723528    135.04017  0.038538862  0.040200938            2 
  293000    1.1281471   -6.2850379    135.94135  0.038663636  0.040184875            6 
  294000    1.1496321   -6.3795859    136.06798  0.038568021  0.040169164            3 
  295000    1.1095931   -6.3091198    136.54765  0.038572784  0.040153444            2 
  296000    1.1472583   -6.3942375    137.12303  0.038604457  0.040137665            4 
  297000    1.1344685   -6.3077532    137.81274  0.038667996  0.040121164            2 
  298000    1.1388006   -6.3902247    137.43648  0.038433021  0.040105209            3 
  299000    1.1482278   -6.3159942    138.51168  0.038604148  0.040088434            4 
  300000    1.1470003   -6.3145314    138.71359  0.038531553  0.040071826            4 
  301000    1.1356639   -6.3311733    139.15609  0.038526049  0.040054936            2 
  302000     1.144969   -6.3429105    139.83956  0.038587075  0.040037571            2 
  303000    1.1293658   -6.3789226    139.78281  0.038444118   0.04002015            3 
  304000    1.1134489   -6.3389058    140.54352  0.038526185  0.040001926            2 
  305000    1.1311578   -6.3318817    140.71451  0.038446586  0.039983566            4 
  306000    1.1262469   -6.3705763    140.64894  0.038303087  0.039963539            3 
  307000    1.1231549   -6.3686503    141.55591  0.038424514  0.039944083            2 
  308000     1.117147   -6.3202656    142.04703  0.038432638  0.039925736            4 
  309000    1.1256013   -6.3573613    142.33098  0.038384839  0.039907757            2 
  310000    1.1364675    -6.346065    142.52422  0.038312962  0.039887823            3 
  311000    1.1465297   -6.3135037    142.99932  0.038317074  0.039867769            2 
  312000    1.1296641   -6.3239667    143.61216  0.038357948  0.039847731            3 
  313000    1.1130506   -6.3542168      144.277  0.038412407  0.039828537            2 
  314000     1.144973   -6.3443063    144.34841  0.038309026  0.039808817            5 
  315000    1.1283577   -6.3726286    144.46902  0.038219317  0.039789424            6 
  316000     1.140519   -6.3667232    145.40419  0.038344986  0.039771648            3 
  317000    1.1450102   -6.3307308    145.49742  0.038248534  0.039753515            4 
  318000    1.1476976   -6.3810253    145.69078  0.038178927  0.039735103            2 
  319000    1.1341501   -6.3856278    146.38109  0.038239573   0.03971593            3 
  320000    1.1578986   -6.3696957    146.23083  0.038080946  0.039696604            2 
  321000    1.1208778   -6.3574435    146.74405  0.038095547  0.039675609            2 
  322000    1.1503151   -6.3687067    147.20891  0.038097545   0.03965483            3 
  323000    1.1084885   -6.3548094    147.40399  0.038029924  0.039633859           10 
  324000    1.1221733   -6.3435125    148.09566  0.038090448  0.039614056            3 
  325000    1.1183063   -6.3810774    148.33936  0.038035734  0.039594525            3 
  326000    1.1306946   -6.3578375    149.16949  0.038131261  0.039574501            2 
  327000    1.1129133   -6.3761885    148.91997  0.037951061  0.039554993            3 
  328000    1.1285654   -6.3621385    150.81133  0.038315888  0.039536563            4 
  329000    1.1410384   -6.3396759     150.6252  0.038152281  0.039518666            2 
  330000    1.1113407    -6.365357    150.81578  0.038084794  0.039501054            2 
  331000    1.1252172   -6.3874597    151.19716   0.03806575  0.039482972            3 
  332000    1.1237467   -6.3334883    152.16104  0.038193033  0.039465487            9 
  333000    1.1248821   -6.4043496    152.53436  0.038171761  0.039448052            3 
  334000    1.1311333   -6.3778179     152.8451  0.038135004  0.039430598            3 
  335000    1.1052648   -6.3650055     153.3036  0.038135223  0.039414163            3 
  336000    1.1187519   -6.3715127     153.2715  0.038013765  0.039397914            4 
  337000     1.122888     -6.40156    154.02336  0.038086885  0.039382392            3 
  338000    1.1227757   -6.3313556     154.5247  0.038097805   0.03936639            5 
  339000    1.1334781   -6.3772975    154.83581  0.038061901  0.039350125            2 
  340000    1.1234578   -6.3429892    155.66176  0.038152393  0.039333769            2 
  341000    1.1080554   -6.3656487    155.71664   0.03805392  0.039317477            2 
  342000    1.1067387   -6.3613411    155.78993   0.03796051  0.039300517            3 
  343000    1.1151233   -6.3087225    156.75364  0.038083974  0.039284051            2 
  344000    1.1014637   -6.3777352    157.26624  0.038097442   0.03926772            2 
  345000    1.1076598   -6.3608839    157.52981  0.038050679  0.039251411            2 
  346000    1.1428416   -6.3579046    157.48325  0.037929491  0.039234151            4 
  347000    1.1124456   -6.4014482    157.60071  0.037848392  0.039215212            3 
  348000    1.1038132   -6.3644826    158.01072  0.037837817  0.039195982            4 
  349000    1.0995426   -6.3615035    158.42313  0.037827872  0.039177529            5 
  350000    1.1323548   -6.3499576    159.28502  0.037925004  0.039159261            3 
  351000    1.1328849   -6.3467006    159.35991  0.037834737  0.039140738            3 
  352000     1.116707   -6.3835685    159.53815  0.037769448  0.039121144            3 
  353000    1.1197071   -6.4218743    159.51385  0.037656717  0.039101098            3 
  354000    1.1047063   -6.3548217    159.96982  0.037657678    0.0390811            3 
  355000    1.1003651   -6.3679163    160.73582  0.037731412  0.039062406            2 
  356000    1.1328082   -6.3907503    161.13264  0.037718314  0.039043032            3 
  357000    1.1181797   -6.3986694     161.7049  0.037746241  0.039024989            5 
  358000    1.1298164   -6.3495734    162.28869  0.037776697  0.039005699            5 
  359000    1.1173224   -6.4018302     162.1931  0.037649279  0.038986829            6 
  360000    1.1062504   -6.3856245    162.36865  0.037585337  0.038967223            3 
  361000      1.11787   -6.3767487    162.57888  0.037529749  0.038947787            3 
  362000    1.0985157    -6.389757    163.13618   0.03755437   0.03892861            3 
  363000    1.1054434   -6.3962022    163.89749  0.037625687  0.038907985            2 
  364000    1.1165624   -6.3819463    164.51491  0.037663669  0.038888169            5 
  365000    1.1189286   -6.3905441    164.44101   0.03754361  0.038869067            4 
  366000    1.1154162   -6.3885993    165.40336  0.037660145  0.038850072            3 
  367000    1.1073413   -6.3567943    165.61042  0.037604547  0.038831082            3 
  368000    1.1294854   -6.4131545    165.47241  0.037471107  0.038811812            6 
  369000    1.1347759   -6.3809842    166.25518  0.037546337  0.038792184            3 
  370000     1.093771   -6.4231059    165.48567  0.037271546  0.038772865            8 
  371000    1.0832698   -6.4145873    166.23181  0.037338682  0.038751406            4 
  372000    1.1137415   -6.3855913    166.46476  0.037290493  0.038729179            2 
  373000    1.1123748    -6.441338    166.99034   0.03730794  0.038707457            3 
  374000    1.0904707    -6.409099    167.23382  0.037262437  0.038685713            2 
  375000    1.1296645   -6.3986429    167.51159  0.037224797  0.038663398            7 
  376000    1.1071384   -6.3691739    168.18151  0.037274271  0.038640517            3 
  377000    1.1082939   -6.3666553    168.16974  0.037172798  0.038618728            3 
  378000    1.1092485   -6.3949341    169.10062  0.037279679  0.038597571            3 
  379000    1.0934996    -6.399926    169.40153  0.037247477  0.038576233            2 
  380000    1.0967883   -6.3993104    170.17985  0.037320143   0.03855562            7 
  381000    1.1011796   -6.4087154    169.98261  0.037179049  0.038534559            5 
  382000    1.1241106   -6.3971126    170.17571  0.037123845  0.038512931            3 
  383000     1.098087    -6.397004     170.6515  0.037130439  0.038492046            7 
  384000    1.1113467   -6.4418435    171.00845  0.037111209  0.038471919            5 
  385000    1.1172202    -6.441714    171.91875  0.037211851  0.038451434            5 
  386000    1.0970662   -6.3918707    172.31953  0.037201971  0.038431075            6 
  387000    1.1142128   -6.3942749    172.78033  0.037205068  0.038411416            3 
  388000    1.1113035   -6.4291297    172.50249  0.037049503  0.038390865            4 
  389000    1.0971048   -6.3828808     173.4817  0.037164031  0.038370688            3 
  390000     1.103045   -6.4341985     173.8036   0.03713752   0.03835091            6 
  391000    1.0996341   -6.4049192    174.33604  0.037156019   0.03833042            3 
  392000     1.072601   -6.4179616    174.88899  0.037178783  0.038311227            2 
  393000    1.0811337    -6.441841    174.69639  0.037043341  0.038292407            4 
  394000    1.0793582   -6.3737387    175.55782  0.037131519  0.038272912            3 
  395000    1.0799255   -6.4218755    175.29722  0.036982535  0.038252712            4 
  396000    1.0704187   -6.4244783    175.92629  0.037021525  0.038231588            8 
  397000    1.0841578   -6.4051001    175.78223  0.036898033  0.038210654            2 
  398000    1.0740509   -6.4351287    175.48651  0.036743407  0.038188537            6 
  399000    1.0971244   -6.4091739    176.29342  0.036819846  0.038165994            3 
  400000      1.08579   -6.3942892    176.71764  0.036816174  0.038143531            2 
  401000    1.0956188   -6.4139846    177.00414  0.036783903  0.038121789            3 
  402000    1.1073205   -6.3991641    177.73958  0.036844855  0.038100668            3 
  403000    1.1011397   -6.4002078     178.4234  0.036894831   0.03807978            3 
  404000    1.0934637   -6.4642589    178.09429  0.036735621  0.038057615            3 
  405000    1.0965292    -6.396009    178.47619  0.036723495  0.038035304            4 
  406000    1.0956734    -6.450917    178.60997  0.036660504  0.038012951           11 
  407000    1.0885512   -6.4115947    179.43151  0.036738638  0.037990375            2 
  408000    1.1194644   -6.4396616     178.9942  0.036559272   0.03796802            2 
  409000     1.110644   -6.4213809    179.84855   0.03664396  0.037945899            8 
  410000    1.0943624   -6.4337003    179.86868  0.036558676   0.03792304            2 
  411000    1.0676833    -6.426227    179.64565  0.036424503  0.037899673            3 
  412000    1.1000055   -6.4450594    180.66604  0.036542484  0.037876218            4 
  413000    1.0781651   -6.4595072    180.71218  0.036463313  0.037853131            7 
  414000    1.0956707   -6.4454924    181.79911  0.036594024  0.037830076            2 
  415000    1.0800428   -6.4368576    181.96843  0.036539846  0.037807277            4 
  416000    1.0650538   -6.4074934    182.75457  0.036609489  0.037785772            3 
  417000    1.0977909   -6.4108799    183.43555  0.036657783  0.037765343            5 
  418000    1.0777787   -6.4361298    183.29707  0.036542477  0.037744835            6 
  419000    1.0873445   -6.4410648    183.89755  0.036574691  0.037723344            2 
  420000    1.0933971   -6.4390132    183.37848   0.03638462   0.03770268            6 
  421000    1.0995921   -6.3762815    184.29558  0.036479726  0.037681689            3 
  422000    1.0838747   -6.4120625    185.20329   0.03657253  0.037661785            2 
  423000    1.0818894    -6.417248    185.04715   0.03645531   0.03764126            5 
  424000    1.0816338   -6.4620652    185.27848  0.036414796  0.037619784            4 
  425000    1.0772749   -6.4345107    185.86511  0.036444139  0.037598372            2 
  426000    1.0778079   -6.4977015    185.75109  0.036336285  0.037577451            3 
  427000     1.088986   -6.4581394    186.34754  0.036367591  0.037556787            3 
  428000    1.1161155   -6.4238867    186.73971  0.036358977  0.037535753            2 
  429000    1.0913066   -6.4624807    186.63512  0.036253909  0.037514756            4 
  430000    1.0536976   -6.4136716    187.77612  0.036390722  0.037493572            3 
  431000    1.0670143   -6.4253749    187.32562  0.036219183  0.037471255            3 
  432000    1.1068902   -6.4566073    188.10497  0.036285682  0.037449356            1 
  433000    1.0634079   -6.4664331    188.35386   0.03624978  0.037427295            3 
  434000    1.0898834   -6.4063596    189.35922  0.036359297  0.037406964            7 
  435000    1.0958434   -6.4168116    189.29975   0.03626432  0.037387027            3 
  436000    1.0774721   -6.4809793    189.26283  0.036174089  0.037366149            4 
  437000    1.0858423   -6.4547894    190.14317  0.036259186  0.037344999            5 
  438000    1.0760381   -6.4487834    189.59923  0.036072913  0.037324318            4 
  439000     1.071015   -6.4393948     190.9624  0.036249506  0.037302966            4 
  440000    1.0585632   -6.4258027    190.97505  0.036169517  0.037282162            7 
  441000    1.0609856    -6.455588    191.47359  0.036181706  0.037261301            3 
  442000    1.0673264   -6.4317408    191.52072  0.036108733  0.037239599            3 
  443000     1.108527   -6.4353664    192.12337  0.036140589  0.037218654            6 
  444000    1.0592403   -6.4533954    192.29959  0.036092266  0.037198162            2 
  445000    1.0642388   -6.4570617    192.77009  0.036099267  0.037178108            6 
  446000      1.09934   -6.4818017    193.27627  0.036112906  0.037157912            3 
  447000    1.0844316   -6.4180963    194.17545  0.036199749  0.037138459            2 
  448000    1.0764814   -6.4623383    194.37628  0.036156302  0.037119011            2 
  449000    1.0739459   -6.4065826    194.38338  0.036077093  0.037099362            5 
  450000    1.0737721   -6.4851849    194.64345  0.036045083  0.037079671            5 
  451000     1.073996   -6.4487958    194.83486  0.036000528  0.037059756            2 
  452000    1.0611076   -6.4618029    195.19783    0.0359878    0.0370397            3 
  453000    1.0801753   -6.4544957    196.14752  0.036083061  0.037019812            8 
  454000    1.0477587   -6.4579017    196.01817  0.035979841  0.036999428            3 
  455000    1.0796101   -6.4426452    195.68482  0.035839711   0.03697915            2 
  456000    1.0958106   -6.4604296    196.83865  0.035971976  0.036958713            6 
  457000    1.0545706   -6.4617838    197.01312  0.035925077  0.036938819            9 
  458000    1.0656266   -6.4394431    197.31344   0.03590128  0.036918668            5 
  459000     1.081233   -6.4848356    197.51187   0.03585909  0.036899224            3 
  460000    1.0683128   -6.4897337    197.92555  0.035856078  0.036878661            2 
  461000     1.079989   -6.4640244    198.76513  0.035930068  0.036859054            4 
  462000    1.0728929   -6.4340308    198.80151  0.035858858   0.03683908            2 
  463000     1.038995   -6.4390406    199.33852  0.035878062  0.036819393            3 
  464000    1.0704611   -6.4804918    199.46642  0.035823711  0.036799706            5 
  465000    1.0641782   -6.4839836    199.36114  0.035727802   0.03677965            1 
  466000    1.0633057     -6.49526    200.24929  0.035809958  0.036759636            2 
  467000    1.0754161    -6.480465    200.74607  0.035821925  0.036739978            5 
  468000    1.0811669   -6.4475231    200.74976  0.035746039  0.036720142            3 
  469000    1.0756638   -6.4823775    200.61413  0.035645723  0.036700204            6 
  470000    1.1050989   -6.4753303    201.51253  0.035729171  0.036679365            3 
  471000    1.0798876   -6.4417754    201.50336  0.035651691  0.036658995            3 
  472000    1.0461175   -6.4714505    201.98467  0.035661135  0.036639157            3 
  473000    1.0711203   -6.4410651    202.57909  0.035690467  0.036619247            4 
  474000    1.0723822   -6.5118687    201.95466  0.035505391  0.036599485            5 
  475000    1.0568467   -6.4450449    202.83427  0.035584959  0.036578906            3 
  476000    1.0685643   -6.4721871    203.07202  0.035551824  0.036558494            3 
  477000    1.0672708   -6.4699595    203.16329  0.035493238  0.036538497            3 
  478000    1.0754713   -6.4589147     204.1245  0.035586558  0.036518376            5 
  479000     1.051372   -6.4839102    203.66047  0.035431536  0.036497842            9 
  480000     1.048294   -6.4921545    204.39258  0.035484823  0.036476917            3 
  481000    1.0505859   -6.4529891    204.23026  0.035382928  0.036456238            4 
  482000    1.0762433   -6.4659152     205.9104       0.0356   0.03643609            3 
  483000    1.0518301   -6.5235757    205.76701  0.035501555  0.036416434            3 
  484000    1.0693935   -6.5205648    206.08273  0.035482564  0.036396588            4 
  485000    1.0487269   -6.4509296    206.60253  0.035498716   0.03637664            3 
  486000    1.0588333   -6.5186216    206.46798  0.035402602  0.036356475            4 
  487000    1.0731673   -6.4725129    206.98428  0.035418254  0.036336503            4 
  488000    1.0762908   -6.4793613    207.40913  0.035418226  0.036316213            3 
  489000    1.0398177   -6.4597774    206.96243  0.035269672  0.036296013            4 
  490000    1.0520981   -6.5100381    207.54753  0.035297199  0.036275885            3 
  491000    1.0532469   -6.4630311    208.36927  0.035364777  0.036255849            3 
  492000    1.0701804   -6.4632006    208.37786  0.035294352  0.036235163            5 
  493000    1.0498239    -6.504935     209.1782  0.035358046  0.036214905            4 
  494000    1.0595046   -6.4869117    209.51881  0.035343929  0.036195056            3 
  495000    1.0851812   -6.4921292    209.58343  0.035283405  0.036175932            2 
  496000     1.050983    -6.482366    209.84923  0.035256927  0.036156771            3 
  497000    1.0614555   -6.4656334    209.92695  0.035199019  0.036136546            5 
  498000      1.05092   -6.4748773    209.98636   0.03513828  0.036116423            6 
  499000    1.0454287   -6.5038475    210.53603  0.035159658  0.036095937            6 
  500000    1.0542073   -6.4892614    210.65732  0.035109553  0.036074618            3 
  501000    1.0441318   -6.4715722    211.57274  0.035191741  0.036053532           10 
  502000    1.0423759   -6.4814826    211.24299  0.035066898  0.036032618            5 
  503000    1.0808948   -6.5074414    211.13262  0.034978897  0.036011294            5 
  504000     1.065375   -6.4880896    212.22947  0.035090851  0.035990497            2 
  505000    1.0623313   -6.4779597    212.18348  0.035013775  0.035970061            2 
  506000     1.036973   -6.4964447    212.57072  0.035008353  0.035949436            3 
  507000    1.0572218   -6.4995267    213.02142  0.035013382  0.035928953            5 
  508000    1.0526184   -6.4641237    213.28252  0.034987289  0.035908834            4 
  509000    1.0385433   -6.4997433    214.31402   0.03508743   0.03588843            1 
  510000    1.0399454   -6.4614437    214.31899  0.035019442  0.035868263            4 
  511000    1.0504439   -6.4886868    215.01581  0.035064548  0.035847473            3 
  512000    1.0695594   -6.5097705    214.79877  0.034960738   0.03582719            3 
  513000    1.0257085   -6.4764342    215.17221   0.03495325  0.035807321            1 
  514000    1.0359024   -6.5181123    215.28975  0.034904304  0.035787455            6 
  515000     1.041794   -6.4778117    216.84492  0.035088174  0.035768358            2 
  516000    1.0657031    -6.537403    216.31855  0.034935166   0.03574929            6 
  517000    1.0320711   -6.5196647    216.26391  0.034858786  0.035729762            2 
  518000    1.0318403   -6.5066977    217.21581  0.034944629  0.035710897            4 
  519000    1.0594788   -6.5040859    217.21689  0.034877471  0.035691362            3 
  520000    1.0435029   -6.4926406    218.15853  0.034961303  0.035672086           10 
  521000    1.0501356   -6.5240094    217.89452  0.034851971  0.035652449            5 
  522000    1.0483158     -6.51301    217.75636  0.034763149  0.035632942            4 
  523000     1.060012   -6.4987759    217.72802  0.034692164  0.035612929            6 
  524000     1.057781   -6.5148617    218.07234  0.034680715  0.035592666            2 
  525000    1.0501996   -6.4909438    218.54903  0.034690323  0.035572494            3 
  526000    1.0095214   -6.4882021    218.40595  0.034601704  0.035552133            8 
  527000    1.0508153   -6.5123914    219.45538  0.034701989  0.035531707            5 
  528000    1.0480201   -6.5204265    219.94405  0.034713392  0.035512129            7 
  529000    1.0440303   -6.4974666    220.26189  0.034697841  0.035492889            5 
  530000    1.0412965    -6.508877    220.83891    0.0347231  0.035473634            3 
  531000    1.0404829   -6.5004431    221.15383   0.03470713  0.035454922            2 
  532000    1.0247502   -6.5354008    220.53834   0.03454548  0.035435655            4 
  533000    1.0161234   -6.5310073     221.5923  0.034645451  0.035416053            4 
  534000    1.0405833   -6.5102812    221.60821  0.034583054  0.035396993            3 
  535000    1.0442514   -6.5033561    221.93555  0.034569401  0.035377974            2 
  536000    1.0367283    -6.528284    221.94865  0.034506941  0.035358464            3 
  537000   0.99876792    -6.515926    222.57948  0.034540578  0.035339028            3 
  538000    1.0447037   -6.5267366    223.64962  0.034642135  0.035319711            4 
  539000    1.0267585   -6.5334805    223.62122  0.034573472  0.035300717            7 
  540000    1.0357313   -6.5431902    223.18539  0.034442189  0.035280837            4 
  541000    1.0372582   -6.5369856    223.81715   0.03447584  0.035260424            3 
  542000    1.0132068   -6.5118015    223.66173  0.034388336  0.035239765            4 
  543000    1.0436897   -6.5246989    224.07848  0.034388963  0.035219125            6 
  544000    1.0103486   -6.5307715     224.5467  0.034397473  0.035199163            4 
  545000    1.0382589   -6.5474462    224.61113   0.03434421  0.035179139            6 
  546000    1.0258057   -6.5436028    225.28894  0.034384759  0.035159271           10 
  547000    1.0560705   -6.5309874    225.42771   0.03434304  0.035139319            5 
  548000    1.0692621    -6.538639    225.59396  0.034305651  0.035119425            6 
  549000    1.0363087   -6.5520532    226.47404  0.034376752  0.035099286            9 
  550000    1.0301044   -6.5281387    225.91279  0.034229211  0.035079983            2 
  551000    1.0360316   -6.5321079    226.12442  0.034199095  0.035059876            4 
  552000    1.0512282   -6.5008951    226.59667  0.034208434  0.035039851            3 
  553000     1.040737   -6.5426815     227.2924  0.034251416   0.03502014            3 
  554000    1.0302098   -6.5036145    228.01368  0.034298086  0.035000029            3 
  555000     1.046505    -6.517619    227.87715  0.034215788  0.034979864            4 
  556000    1.0196388   -6.5298292    228.63489  0.034267819  0.034959901            5 
  557000    1.0306265      -6.5506    228.22937  0.034145626  0.034940297            4 
  558000    1.0287494   -6.5427704    229.12623  0.034218374  0.034920678            3 
  559000    1.0386622   -6.5569282    229.35662  0.034191505  0.034901209            5 
  560000     1.012135   -6.5032807    230.13709   0.03424659  0.034882363           10 
  561000    1.0380018   -6.5561147    229.27912  0.034058098  0.034863465            3 
  562000      1.03053   -6.5524414    229.80635  0.034075675  0.034843946            3 
  563000    1.0499655   -6.5186007    230.05621  0.034052133  0.034824366            5 
  564000    1.0063099   -6.5506429    229.93828  0.033974332  0.034804745            2 
  565000    1.0408489   -6.5147767    230.79718  0.034040881  0.034784712            3 
  566000    1.0586192    -6.561481    229.79224  0.033832779  0.034764725           10 
  567000    1.0411059   -6.5218785    230.83476  0.033926332  0.034744708            6 
  568000    1.0508744   -6.5358722    231.32916  0.033939138  0.034724674            3 
  569000   0.99508386   -6.5623032    231.69202  0.033932633  0.034704394            3 
  570000    1.0086135   -6.5537889    231.82541  0.033892604  0.034683995            6 
  571000    1.0095484    -6.532577    231.67447  0.033811219  0.034663408            5 
  572000    1.0202078   -6.5482538    232.02474  0.033803138  0.034642381            2 
  573000    1.0225393   -6.5570363    232.27245  0.033780171  0.034621443            7 
  574000    1.0151696   -6.5446705    233.35061  0.033877847  0.034600675            3 
  575000    1.0383631   -6.5179474    233.39684  0.033825629  0.034579907           11 
  576000    1.0233985   -6.5420591    233.83537  0.033830349  0.034559494            4 
  577000    1.0119915   -6.5481061    233.65777  0.033746067  0.034539009            3 
  578000    1.0079056    -6.546361    234.84627  0.033859036  0.034519073           19 
  579000    1.0216336   -6.5031234    234.67821  0.033776369  0.034499636            4 
  580000    1.0233829   -6.5188863     235.2073  0.033794152  0.034479592            6 
  581000    1.0130413   -6.5902957    235.04357  0.033712503  0.034459861            4 
  582000    1.0188152   -6.5664189    236.13307  0.033810576  0.034440331            6 
  583000    1.0326868   -6.5300689    236.44667  0.033797409  0.034420861            5 
  584000    1.0198145    -6.535053    236.48521  0.033745035  0.034401966            6 
  585000    1.0317255   -6.5704613    237.58463  0.033843964  0.034383555            3 
  586000    1.0140339   -6.5695094    237.69234  0.033801528  0.034364595            4 
  587000    1.0213981    -6.575507    236.76641  0.033612494  0.034345753            4 
  588000    1.0363599   -6.5289425     237.8169   0.03370421  0.034326981            3 
  589000    1.0501293   -6.5641468    238.26143   0.03370988  0.034307924            4 
  590000    1.0168182   -6.5523138    238.43472   0.03367722  0.034288756            7 
  591000   0.98685213   -6.5686763    238.02289  0.033562167  0.034269388            5 
  592000    1.0367242   -6.5392363    237.88543  0.033486124  0.034249885            5 
  593000    1.0252618   -6.5309478    239.30265  0.033628815  0.034231013            4 
  594000    1.0086559   -6.5448906    239.08285  0.033541365  0.034212262            3 
  595000    1.0080952   -6.5296517     239.4739  0.033539762  0.034193608            3 
  596000    1.0458486   -6.5599891    240.18052  0.033582287  0.034175063            4 
  597000     1.005707   -6.5573754    240.19638   0.03352825  0.034155803            5 
  598000    1.0011844   -6.5643375    240.77906  0.033553381  0.034136673            6 
  599000    1.0198397   -6.5545275    240.71731  0.033488774  0.034117509            6 
  600000    1.0070659   -6.6034065    239.93892   0.03332485  0.034097915            8 
  601000    1.0308706   -6.5590904     240.9612  0.033411148  0.034078432            5 
  602000    1.0267868   -6.5627326    242.04887  0.033506211  0.034059042            4 
  603000   0.98667274   -6.5657215    241.20104  0.033333477  0.034039048            4 
  604000   0.99454344   -6.6015203    241.94914  0.033381504  0.034019244            7 
  605000    1.0094979   -6.5294637    241.66196  0.033286772  0.033999218            3 
  606000    1.0100282   -6.5436467    242.08269  0.033289698  0.033979088            3 
  607000       1.0162   -6.5719896    241.23736  0.033118802  0.033958719            4 
  608000   0.99523575   -6.5968678    241.82649  0.033145078  0.033938573            7 
  609000    1.0107003   -6.5937533    242.75494  0.033217699   0.03391835            3 
  610000    1.0077726   -6.5932773    242.61498  0.033144123  0.033898167            8 
  611000    1.0101653   -6.5728505    243.11701  0.033158349  0.033877911            6 
  612000    1.0265367   -6.5840584    244.11266  0.033239742  0.033858083            3 
  613000    1.0223235   -6.5604472    244.38629  0.033222715  0.033838522            4 
  614000    1.0134408    -6.607425    244.21125  0.033144849  0.033818697            4 
  615000    1.0270449    -6.576484     243.7936  0.033034363  0.033798729            5 
  616000    1.0049901   -6.5718937    244.82038   0.03311964  0.033778548            4 
  617000    1.0264836    -6.547434    245.03542  0.033095006  0.033758665            8 
  618000    1.0456748   -6.5698121    244.83373  0.033014257  0.033738812            5 
  619000    1.0149358   -6.5768699    245.10214  0.032997057  0.033718799            3 
  620000    1.0162539   -6.6052367    245.45936  0.032991849  0.033698924            3 
  621000      1.03939   -6.5698014    246.30351  0.033052001   0.03367895            4 
  622000    1.0107396   -6.6186844      244.719  0.032786575  0.033658391            7 
  623000    1.0188297   -6.5774406    245.28294  0.032809383  0.033637609            4 
  624000    1.0290944   -6.5892287    245.73369  0.032816999  0.033616303            2 
  625000   0.98315586   -6.5973284    246.71928  0.032895904  0.033595806            6 
  626000    1.0060266   -6.5454441    247.15017  0.032900715  0.033575397            5 
  627000    1.0208637   -6.5766103    247.32589  0.032871596  0.033554888            4 
  628000    1.0112257   -6.5951527    247.20739  0.032803528  0.033534584            4 
  629000     1.001037   -6.5863359    246.77351  0.032693893  0.033513905            9 
  630000   0.99076485   -6.6115574    247.58106  0.032748818  0.033493205            4 
  631000   0.99176465   -6.5622838    247.43298  0.032677361  0.033472445            3 
  632000   0.99483649   -6.5778369    247.80111  0.032674197  0.033451703            4 
  633000   0.97742943   -6.5909529    248.64074  0.032733114  0.033431075            3 
  634000   0.98940291   -6.5861848    248.81399  0.032704258  0.033410377            2 
  635000   0.98743245   -6.5791991    249.11066  0.032691687  0.033389683            5 
  636000     1.010919   -6.6001078    249.40993  0.032679497  0.033368933            6 
  637000   0.98964521   -6.5931546    249.33302  0.032618135  0.033347967            4 
  638000    1.0217364   -6.5706214    249.75166   0.03262169  0.033326993            9 
  639000   0.99706462    -6.597686    248.84513  0.032452417  0.033306162            3 
  640000   0.96800027   -6.6041961    249.89958  0.032539007  0.033285044            4 
  641000    1.0196358   -6.5453395    250.77919  0.032602599  0.033264433            2 
  642000    1.0055401   -6.6251713    250.49574  0.032515023  0.033243534            2 
  643000   0.99896529    -6.587917    250.49095  0.032463835  0.033222209            6 
  644000   0.98332485   -6.6125351    251.10335   0.03249267  0.033201229            5 
  645000    1.0003495    -6.575203    252.52313  0.032625728  0.033180541            4 
  646000    0.9936382   -6.5825714    251.70084  0.032469148  0.033160266            9 
  647000   0.97762043   -6.6391521    251.98135  0.032455094  0.033139714            2 
  648000   0.98073871    -6.629817    252.75831  0.032504926  0.033119361            3 
  649000    0.9840457   -6.6109334    252.87931  0.032470378  0.033098981            4 
  650000    1.0047199   -6.6095884    253.64104  0.032518083  0.033078948            6 
  651000    1.0094463   -6.5798742    253.41317  0.032438962  0.033058977            6 
  652000    0.9914663   -6.6126077    253.99685   0.03246381  0.033039313            4 
  653000    1.0097614   -6.5890465    253.84859  0.032395175  0.033019501            3 
  654000   0.98970821   -6.6100735    254.35253  0.032409853  0.032999768            3 
  655000    1.0033954   -6.6345756    253.76378  0.032285469  0.032979978            2 
  656000   0.99098597   -6.6296004    254.71402  0.032356964  0.032959749            5 
  657000   0.98544815   -6.6239404     254.9595  0.032338851   0.03293969            7 
  658000   0.99215691   -6.5873632    255.63591  0.032375368  0.032919637            4 
  659000   0.99564926   -6.6143879    255.07949  0.032255879  0.032899673            2 
  660000    1.0008489   -6.6386568    255.19002  0.032220962  0.032879307            3 
  661000   0.98048798   -6.6161796    255.49293  0.032210405  0.032858896            4 
  662000    1.0050366   -6.6236659    256.05678  0.032232726  0.032838762            5 
  663000   0.98653108   -6.6169416    256.31104  0.032216069  0.032818494            3 
  664000   0.99034714   -6.6125429    256.75964   0.03222385  0.032798395           16 
  665000    1.0016412   -6.6165884    256.11932  0.032095153  0.032778037            7 
  666000     1.000298   -6.6517439    256.03197  0.032036032   0.03275726            6 
  667000    1.0025716   -6.6247665    257.22674  0.032137274  0.032736699           17 
  668000   0.97498817    -6.631719    257.21776  0.032088044  0.032716309            4 
  669000   0.99673551   -6.5908396    257.59229  0.032086733  0.032696368            3 
  670000   0.98343878   -6.6148866    257.81529  0.032066579  0.032676413            4 
  671000   0.99345543   -6.6030946    258.64603  0.032121961   0.03265686            3 
  672000   0.99572025   -6.6092404    258.66598  0.032076634  0.032637314            6 
  673000   0.98890185   -6.6519177    258.53866  0.032013207  0.032617276            6 
  674000    1.0172329   -6.6229536    259.10434  0.032035651  0.032597465            3 
  675000   0.99022056   -6.6502262    258.69882  0.031938126  0.032577414            9 
  676000   0.99212186   -6.6142356    259.23838  0.031957394  0.032557458            5 
  677000   0.97367645   -6.6260441    259.63525  0.031959042  0.032537501            3 
  678000   0.98185494   -6.6377822    258.72601  0.031800149  0.032517258            6 
  679000   0.98941452   -6.6637013    260.05535  0.031916464  0.032496926            3 
  680000   0.97361724   -6.6462873    260.31873  0.031901806  0.032476484            5 
  681000    1.0129513   -6.5984423    260.50567  0.031877835  0.032456711            6 
  682000   0.98399797   -6.6299292    260.36469  0.031813867  0.032436249           15 
  683000    1.0067039   -6.6162065    261.24486  0.031874678  0.032415766            6 
  684000   0.99944614   -6.6329473    260.65418  0.031756113   0.03239517            6 
  685000   0.94526844   -6.5939622    260.84181  0.031732581  0.032374767            7 
  686000   0.99393185   -6.6062564     261.1172  0.031719776  0.032354348            7 
  687000   0.97336178    -6.649669    261.43704  0.031712402  0.032333776            7 
  688000   0.98768765   -6.6672073    261.26302   0.03164523  0.032313508            3 
  689000     0.961423   -6.6196252    262.12884   0.03170402  0.032293258            4 
  690000   0.97810865   -6.6085336    262.47598  0.031699998  0.032273082            4 
  691000   0.96840896    -6.625247    261.67232  0.031557202  0.032253009            7 
  692000   0.96959846   -6.6380523    262.27852    0.0315846  0.032232397            4 
  693000   0.97473277    -6.648249    262.20316  0.031529961  0.032211687            4 
  694000   0.97241038   -6.6184164    263.46298  0.031635804  0.032191181           16 
  695000   0.95798407   -6.6142119    263.59478  0.031606089  0.032170908            5 
  696000   0.96250566   -6.6707015    263.28875  0.031524037  0.032150401            5 
  697000   0.97046328   -6.6445266    264.07644  0.031572984  0.032129754            5 
  698000   0.97748508   -6.6461316    264.08733  0.031529051  0.032109222            6 
  699000   0.97728634   -6.6601565    263.99924  0.031473443  0.032088613            4 
  700000   0.99363075    -6.609494    263.97295  0.031425352  0.032068156            3 
  701000   0.98007795   -6.6563751    264.35614  0.031426074  0.032047966            3 
  702000   0.98320023   -6.6288863    265.15597  0.031476255  0.032027897           11 
  703000   0.96719554   -6.6483728    264.90148  0.031401314  0.032007759            2 
  704000    0.9752812   -6.6263556    265.43179  0.031419482  0.031987524            5 
  705000   0.96445425   -6.6330943    265.84299  0.031423521  0.031967444            4 
  706000    0.9692386    -6.651449    265.59494  0.031349734  0.031947161            3 
  707000   0.98703399    -6.598818    266.21915  0.031378966  0.031927125            6 
  708000   0.97299625   -6.6676883    265.27276  0.031223253  0.031906857            5 
  709000   0.96953583    -6.610903    267.14234  0.031398959  0.031886583            2 
  710000   0.96823194    -6.633337    266.00786  0.031221579  0.031866056            5 
  711000   0.97380904   -6.6599494    266.26842  0.031208207  0.031845449            4 
  712000   0.94082032   -6.6531212    266.18265  0.031154337  0.031824881            5 
  713000    0.9572028   -6.6592824    267.83333  0.031303568   0.03180449           12 
  714000   0.93446983   -6.6774645    266.45588  0.031098959  0.031783802            6 
  715000   0.95434273   -6.6544188     267.5344  0.031181165  0.031763142            7 
  716000   0.97370431   -6.6435858    267.62419  0.031148067  0.031742958            5 
  717000   0.95744341   -6.6848117     267.6331   0.03110566  0.031722656            8 
  718000   0.96067408   -6.6584589    267.65714  0.031065127  0.031702154            8 
  719000   0.99085497   -6.6503949    268.88419  0.031164139  0.031681805            5 
  720000   0.96017242   -6.6505542    268.20505  0.031042251  0.031661554            3 
  721000   0.96577527   -6.6726723    268.44881  0.031027371  0.031641034            5 
  722000   0.94795098   -6.6617345    269.48748   0.03110428  0.031620915            7 
  723000   0.96991877   -6.6365474    269.19323  0.031027343  0.031600735            3 
  724000   0.95567704   -6.6464272    269.52988  0.031023237   0.03158043            5 
  725000   0.97296393   -6.6465745     269.2565  0.030949023  0.031560016            4 
  726000    0.9626643   -6.6596865    268.61527  0.030832791  0.031539226            6 
  727000   0.96284607    -6.620753    268.85922  0.030818343  0.031518229            9 
  728000   0.96179144   -6.6687085    269.43269  0.030841654  0.031497261            9 
  729000   0.96101232   -6.6475579    269.61947  0.030820699  0.031476268            7 
  730000   0.97945291   -6.6833677    269.69362  0.030786943  0.031455216            5 
  731000   0.96988626   -6.6557037    270.68263  0.030857572  0.031434207            4 
  732000   0.95494328   -6.6626548    270.26033  0.030767342  0.031413245            9 
  733000   0.96169008   -6.6805638     269.7957  0.030672545  0.031392297            7 
  734000   0.95279107   -6.6611314    270.44236  0.030704173  0.031371191            8 
  735000   0.97982477   -6.6708645    270.67919  0.030689251  0.031349857            7 
  736000    0.9663019   -6.6287267    270.65208  0.030644484  0.031328745            3 
  737000   0.94958546   -6.6534451    271.78715  0.030731247  0.031307711           10 
  738000   0.97295757   -6.6754277    271.75822  0.030686339  0.031286816            6 
  739000   0.95079078   -6.6754215    271.41743  0.030606386  0.031266041            4 
  740000   0.97048817   -6.6365591    271.87707  0.030616788  0.031245188            7 
  741000   0.95428979    -6.650389    272.06409  0.030596501  0.031224295            5 
  742000   0.96942994   -6.6612401    272.33273  0.030585437  0.031203334            6 
  743000   0.96074952   -6.6907109    273.10631  0.030631035  0.031182692           11 
  744000     0.956627   -6.6719675    272.55779  0.030528427  0.031162211            7 
  745000    0.9491557   -6.6618091    274.13131  0.030663458  0.031141958            4 
  746000   0.96745931   -6.6679956    273.20034  0.030518358   0.03112185            6 
  747000   0.97682554    -6.670277    274.29327  0.030599428  0.031101575            6 
  748000   0.96064299   -6.6919079    274.43346  0.030574138  0.031081283            3 
  749000   0.94818117   -6.6941919    273.98085  0.030482961   0.03106085            4 
  750000   0.93471406   -6.6741956    275.20656  0.030578507  0.031040352            4 
  751000   0.96656447   -6.6897503    274.86369  0.030499743  0.031020013            8 
  752000   0.93178745   -6.6692243    274.50425  0.030419354  0.030999711            4 
  753000   0.96360773   -6.6858746    274.32236  0.030358827  0.030979305            4 
  754000   0.96794371   -6.6690067    275.11812  0.030406512   0.03095862            6 
  755000    0.9344938   -6.6881842    275.63848  0.030423673  0.030938163            3 
  756000   0.97652555   -6.6918593    274.97832  0.030310661  0.030917661            5 
  757000    0.9546675   -6.7130459    275.20025  0.030295052  0.030897047            4 
  758000   0.93163185   -6.6798757    276.42243  0.030389449  0.030876479            6 
  759000   0.95524935   -6.6921002    276.32024  0.030338191  0.030856393           10 
  760000    0.9585588   -6.7000989    276.71057  0.030341071  0.030836325            6 
  761000   0.97697377   -6.6656261    276.98819  0.030331602  0.030816157            5 
  762000   0.96736999   -6.6883116    277.12737  0.030307018  0.030795767            4 
  763000   0.95830046   -6.6797275    276.34233  0.030181557  0.030775462            3 
  764000   0.95186005   -6.6822247    277.01168  0.030215061  0.030755111            8 
  765000   0.93514333   -6.6896206    277.34054  0.030211388  0.030735018           11 
  766000    0.9317189   -6.6966846    276.97196  0.030131849  0.030714897           11 
  767000   0.94763928   -6.6730932    277.88171  0.030191407  0.030694729            4 
  768000   0.95028734   -6.6948074    278.09095  0.030174799  0.030674801            7 
  769000   0.92129425    -6.680093    277.81484   0.03010564   0.03065486            4 
  770000   0.96908197   -6.6840075    278.85928  0.030179576  0.030634817            3 
  771000   0.94555179   -6.6930067    278.56148  0.030108245  0.030614758            5 
  772000    0.9354446   -6.6657097    278.65497  0.030079336  0.030594926            4 
  773000   0.94418799   -6.6857445    279.26062  0.030105715  0.030575027            4 
  774000   0.94261169   -6.7284873     279.1814   0.03005829  0.030555092            5 
  775000   0.93639366   -6.6839608    280.40828  0.030151428  0.030535237            6 
  776000   0.94163318   -6.7109406    279.53743  0.030019054   0.03051528            3 
  777000   0.94110278   -6.7143196    280.09677  0.030040409  0.030495636            4 
  778000   0.95742727   -6.7120322    280.48169  0.030043026  0.030476114            5 
  779000   0.93689282   -6.7317117    280.69261  0.030027022  0.030456601            5 
  780000   0.93717505   -6.7061519    280.93466  0.030014386   0.03043724            6 
  781000   0.96643841    -6.690523    281.70465  0.030058115  0.030417994            3 
  782000   0.93582837   -6.7100988    281.51579  0.029999552  0.030398775            4 
  783000   0.94137727   -6.6981896    282.04226  0.030017269  0.030379524            6 
  784000   0.94905617    -6.709645    281.94422  0.029968561  0.030360325            3 
  785000   0.94478798   -6.7154929    282.13508  0.029950645  0.030341093           13 
  786000   0.92729804   -6.7158637    282.56947  0.029958595  0.030321814            7 
  787000   0.97350879   -6.7179075    282.66509  0.029930653  0.030302423           11 
  788000   0.92007191   -6.6857896    283.25058  0.029954588  0.030283196            4 
  789000   0.92928732   -6.6660421    283.47314  0.029940129  0.030264025            6 
  790000   0.92989441   -6.6868899    282.65789  0.029816233  0.030244935           14 
  791000   0.93555455   -6.7352675    282.77887  0.029791284  0.030225752            6 
  792000   0.94954541   -6.6998985    284.45276  0.029929794  0.030206582            4 
  793000   0.94050212   -6.6919549    284.17351  0.029862706  0.030187459            6 
  794000   0.94599165   -6.7055007    283.75153  0.029780807   0.03016816            8 
  795000    0.9431015   -6.7157978    284.78169  0.029851331  0.030148778            6 
  796000   0.92774352   -6.7167171    284.01567  0.029733633  0.030129405            5 
  797000   0.93643805   -6.7163796    283.05021   0.02959538  0.030109991            3 
  798000   0.94684071   -6.7136066    284.27063  0.029685739  0.030090459            4 
  799000    0.9494726   -6.6984061    285.59925  0.029787155  0.030071128            5 
  800000   0.95842812   -6.7341682    284.82132  0.029668888  0.030051854            4 
  801000   0.93465243   -6.7625615    285.17684  0.029668835  0.030032517            8 
  802000   0.91603167   -6.7349328    285.49054  0.029664437   0.03001324            3 
  803000   0.93295633   -6.6962236    286.35207  0.029716902  0.029994128            9 
  804000   0.92280503   -6.7413116    285.19568  0.029560083  0.029974769            6 
  805000   0.92009598   -6.7408811    285.54514  0.029559538  0.029955276            5 
  806000    0.9253364   -6.6933785    285.62991  0.029531629  0.029935829            6 
  807000   0.93389921   -6.7223068    285.97514  0.029530683  0.029916389           10 
  808000    0.9389189   -6.7270896    285.73479  0.029469347  0.029896824            8 
[...]
 1800000    0.5358189   -7.5659681    340.92314  0.015783479   0.01460683          610 
 1801000   0.52752598   -7.5889483    340.69788  0.015764292  0.014595235          670 
 1802000   0.53793662   -7.5788922    341.14327  0.015776141  0.014583655          667 
 1803000   0.52588269   -7.5609749     341.1255  0.015766569  0.014572081          654 
 1804000   0.52084397   -7.5709253    341.06884  0.015755212  0.014560514          710 
 1805000   0.52571771   -7.5816171    341.16676  0.015751005  0.014548956          611 
 1806000   0.53199188   -7.5779064    341.00274  0.015734715   0.01453742          606 
 1807000   0.53727343   -7.5852365     340.8844   0.01572055  0.014525885          669 
 1808000   0.54226653   -7.5813299    341.15522  0.015724337  0.014514356          715 
 1809000   0.52893339   -7.5612023    341.28016    0.0157214  0.014502841          717 
 1810000   0.53462215   -7.5852541    340.97923   0.01569886  0.014491342          689 
 1811000   0.51126708   -7.5851096    340.84019  0.015683793  0.014479837          722 
 1812000   0.53621281   -7.5803534    341.01316  0.015683092  0.014468344          708 
 1813000   0.53312818   -7.5962754    341.08194  0.015677604   0.01445687          679 
 1814000   0.52377571   -7.5729697    341.07188  0.015668499  0.014445392          743 
 1815000   0.51970839   -7.5728518    340.90277  0.015652102  0.014433939          661 
 1816000    0.5296958   -7.5989715    340.91344  0.015643972  0.014422473          672 
 1817000   0.53558693   -7.5856346    340.52379  0.015617492  0.014411037          660 
 1818000   0.52860071   -7.5773975    340.94866  0.015628377  0.014399618          623 
 1819000   0.51936905   -7.5627369    340.50356  0.015599393  0.014388204          652 
 1820000   0.52618625   -7.5841579    341.60752   0.01564137  0.014376802          672 
 1821000   0.51834789    -7.587919    341.03957   0.01560679  0.014365399          596 
 1822000    0.5252205   -7.6002186    341.48613  0.015618648  0.014354003          638 
 1823000   0.53366045   -7.5746773    340.79413  0.015578448  0.014342634          714 
 1824000   0.52756911   -7.5951097    340.90387  0.015574921  0.014331267          674 
 1825000   0.52759106   -7.5742981    340.71311  0.015557676  0.014319898          731 
 1826000   0.52728204   -7.5612068    341.44413  0.015582518  0.014308562          679 
 1827000   0.52732312   -7.5680546    340.59362  0.015535195  0.014297245          633 
 1828000   0.53634669   -7.5997609    340.24917  0.015510994  0.014285912          684 
 1829000   0.52630032   -7.5784967    340.85934  0.015530314  0.014274592          735 
 1830000   0.52741138   -7.6066685      340.606  0.015510291  0.014263286          695 
 1831000   0.52247121   -7.6176149    340.69747  0.015505984  0.014251983          709 
 1832000   0.52839707   -7.5872699    340.40497  0.015484214  0.014240683          697 
 1833000   0.52950328   -7.5836334    340.68767  0.015488619  0.014229399          649 
 1834000   0.53582879   -7.5757677    340.47037    0.0154703  0.014218125          663 
 1835000   0.51924597   -7.5972874    340.54977  0.015465476  0.014206848          706 
 1836000   0.53323997   -7.6059727    341.31148  0.015491625  0.014195602          667 
 1837000   0.51661512    -7.582422    340.71027  0.015455919  0.014184359          692 
 1838000   0.52845069   -7.5989163    341.02605  0.015461827  0.014173126          713 
 1839000   0.51961575   -7.5860267    340.29825  0.015420439  0.014161903          703 
 1840000   0.51109038   -7.6023544    340.72711  0.015431481  0.014150696          714 
 1841000   0.51176278   -7.5777689    341.24089  0.015446356  0.014139494          668 
 1842000   0.52555781   -7.5810196    340.77518  0.015416901  0.014128299          672 
 1843000   0.51546168   -7.6001401    340.74451  0.015407149  0.014117123          705 
 1844000   0.50977082   -7.5952831    341.02338  0.015411396  0.014105946          678 
 1845000   0.53491876    -7.587189    340.38339  0.015374137   0.01409477          686 
 1846000   0.51715491   -7.5994381     340.4674  0.015369601  0.014083613          689 
 1847000   0.51569629   -7.6001866    340.17355  0.015348021  0.014072477          640 
 1848000   0.51221597   -7.6012198    340.36765  0.015348469  0.014061346          690 
 1849000   0.51952699   -7.6095101    340.48564  0.015345486  0.014050214          662 
 1850000   0.50582075   -7.5905395     340.4586  0.015335973  0.014039097          652 
 1851000   0.50827157   -7.5972479     341.1314  0.015357978  0.014027991          616 
 1852000   0.51026837   -7.6017231    340.48316  0.015320517  0.014016893          684 
 1853000   0.51236515   -7.6010938    340.81156  0.015327018  0.014005798          661 
 1854000   0.52153076   -7.6048841    340.64224   0.01531114  0.013994727          667 
 1855000   0.51011323   -7.5905401    340.21138   0.01528353   0.01398366          711 
 1856000   0.50560868   -7.6094877    340.30689  0.015279584  0.013972596          685 
 1857000   0.51669367   -7.6012319    340.62338  0.015285558   0.01396155          627 
 1858000   0.51336006   -7.6083388    339.69172  0.015235546  0.013950508          650 
 1859000   0.51503333   -7.5893647    340.47884  0.015262634  0.013939491          644 
 1860000   0.51005715   -7.6024893    340.02052  0.015233894  0.013928474          660 
 1861000   0.50883615   -7.6078908    340.30144  0.015238288  0.013917465          640 
 1862000   0.51095201   -7.6136835    340.59702  0.015243332   0.01390646          659 
 1863000   0.51065861   -7.6100106    339.91628    0.0152047  0.013895468          647 
 1864000   0.50954701   -7.6095642    340.81203  0.015236589  0.013884498          659 
 1865000   0.49774111   -7.5955701    340.34831  0.015207699  0.013873533          644 
 1866000   0.50971786   -7.6273169    340.39023  0.015201422  0.013862574          644 
 1867000   0.51396579   -7.6071682    340.17591  0.015183713  0.013851631          634 
 1868000   0.51296504   -7.5999718    340.09185  0.015171835  0.013840699          717 
 1869000    0.4974514   -7.6120505    340.44267  0.015179359  0.013829774          677 
 1870000   0.50910875   -7.6122571    340.62424  0.015179333  0.013818856          685 
 1871000    0.5024576   -7.6200815    340.37007    0.0151599  0.013807936          723 
 1872000   0.50750371   -7.6045756    340.24029  0.015146024  0.013797037          667 
 1873000   0.50188741   -7.6230972    340.55866  0.015152103  0.013786144          685 
 1874000   0.49661426      -7.6239     340.5618  0.015144157  0.013775274          650 
 1875000   0.50406922   -7.6137442    340.29072  0.015124032  0.013764406          654 
 1876000   0.50870139   -7.6293428    339.74903  0.015091908  0.013753546          663 
 1877000   0.51115642   -7.6194311    340.02881  0.015096289  0.013742696          718 
 1878000   0.50837176   -7.6161906    339.65441  0.015071637  0.013731861          663 
 1879000   0.49573913   -7.6329013    340.33714  0.015093895  0.013721028          709 
 1880000   0.50073253   -7.5930369    340.31461  0.015084867  0.013710206          659 
 1881000   0.50464781   -7.6190734    340.61566  0.015090185  0.013699394          673 
 1882000    0.4924889   -7.6272208    340.56626   0.01507998  0.013688585          615 
 1883000   0.49281897   -7.6129603    340.48098  0.015068197  0.013677787          661 
 1884000    0.4964879   -7.6287505    339.85988  0.015032726  0.013666988          714 
 1885000   0.51078301   -7.6207292    339.83669  0.015023727  0.013656207          632 
 1886000    0.5056899   -7.6198409    340.59801  0.015049399  0.013645424          680 
 1887000   0.50225833   -7.6035132    340.51026  0.015037549  0.013634673          637 
 1888000    0.4964104   -7.6228643     339.8314  0.014999621  0.013623922          655 
 1889000   0.50164218   -7.6146102    339.84026  0.014992071  0.013613168          633 
 1890000   0.50920991    -7.614168    340.37348  0.015007649  0.013602449          671 
 1891000   0.50083904   -7.6279399    339.91395  0.014979462  0.013591727          605 
 1892000   0.50745707   -7.6353385    339.91625  0.014971646  0.013581016          635 
 1893000   0.49963029   -7.6280692    339.45487  0.014943426  0.013570324          609 
 1894000   0.49566077   -7.6241154    340.32954  0.014974021  0.013559637          639 
 1895000   0.49974434   -7.6214547      339.581  0.014933201  0.013548963          661 
 1896000   0.49773866   -7.6366139    339.89765  0.014939243  0.013538291          669 
 1897000   0.49911375   -7.6284072     340.1654  0.014943129  0.013527628          662 
 1898000   0.48898074    -7.625371    340.23357   0.01493825   0.01351698          675 
 1899000   0.50326565   -7.6221911    340.48194  0.014941282  0.013506341          678 
 1900000   0.49603252   -7.6171703    339.99339  0.014911991  0.013495718          635 
 1901000   0.49182286   -7.6336201    340.11972  0.014909684  0.013485108          662 
 1902000   0.49089159   -7.6121912    339.88673  0.014891637  0.013474488          662 
 1903000   0.49496314   -7.6380946    339.52569  0.014868002  0.013463891          644 
 1904000   0.48235778   -7.6163883    340.13069  0.014886673  0.013453306          650 
 1905000     0.488337   -7.6284307    340.37425  0.014889512  0.013442728          629 
 1906000   0.49354269   -7.6198923    339.64508   0.01484982  0.013432155          699 
 1907000    0.4969515   -7.6215873    339.93211  0.014854576  0.013421592          698 
 1908000   0.49892249   -7.6455462    340.15816  0.014856663  0.013411043          679 
 1909000   0.48691126   -7.6408754    339.93213  0.014839014  0.013400486          648 
 1910000   0.48431462    -7.635113    339.65617  0.014819205  0.013389956          728 
 1911000   0.48621041   -7.6474589    339.42573  0.014801401  0.013379436          676 
 1912000   0.48632642     -7.64235    339.98681  0.014818114  0.013368928          729 
 1913000   0.48144993   -7.6417738     339.8185  0.014803036  0.013358423          715 
 1914000   0.49861157   -7.6392142    339.62723  0.014786974  0.013347922          709 
 1915000   0.47282965   -7.6431912     339.9675   0.01479406  0.013337435          690 
 1916000   0.48269871   -7.6350587    339.71276  0.014775259  0.013326947          699 
 1917000   0.48919669   -7.6314592    339.94952  0.014777844  0.013316482          686 
 1918000   0.48235446   -7.6414542    339.54782  0.014752686  0.013306024          695 
 1919000   0.47870423   -7.6346091    339.78894  0.014755469  0.013295584          680 
 1920000   0.47864798   -7.6286797    340.21189  0.014766141  0.013285149          660 
 1921000   0.47770298    -7.649832    339.89886  0.014744875  0.013274719          669 
 1922000    0.4759264   -7.6385991    339.55983  0.014722504  0.013264295          702 
 1923000   0.49724935   -7.6367511    340.23178  0.014743967  0.013253899          606 
 1924000   0.49476495   -7.6534097    340.24677  0.014736953  0.013243514          653 
 1925000   0.49215754    -7.643934    339.59102   0.01470091  0.013233124          625 
 1926000    0.4868424   -7.6461003    339.60764  0.014693996  0.013222744          688 
 1927000   0.49193231    -7.644102    339.70385  0.014690532  0.013212382          692 
 1928000   0.48147579   -7.6419937    339.73264  0.014684156  0.013202025          678 
 1929000   0.48320427   -7.6565259    339.47654   0.01466548  0.013191677          712 
 1930000   0.46741594   -7.6381252     339.6991  0.014667491  0.013181336          706 
 1931000   0.48211287   -7.6475659    339.66337  0.014658354  0.013171005          677 
 1932000   0.48256916   -7.6489892    339.51001  0.014644152  0.013160685          686 
 1933000   0.47349293   -7.6445709     339.3066  0.014627806  0.013150387          702 
 1934000   0.47966264    -7.650701    339.48315   0.01462785  0.013140079          730 
 1935000   0.47799966   -7.6418719    339.53004   0.01462231  0.013129786          651 
 1936000   0.47951412   -7.6440557    339.37694  0.014608167  0.013119496          711 
 1937000   0.47942488   -7.6472776    339.98645  0.014626848  0.013109216          732 
 1938000   0.47867596   -7.6536108    339.78108   0.01461047  0.013098957          711 
 1939000   0.47649963   -7.6481651    339.65637  0.014597575   0.01308869          660 
 1940000   0.47634571   -7.6660961    340.00304  0.014604942  0.013078443          663 
 1941000   0.47882446   -7.6426855    340.18606  0.014605275   0.01306821          717 
 1942000   0.46985666   -7.6658403    339.50439  0.014568503  0.013057983          666 
 1943000    0.4889381   -7.6626053    339.46177  0.014559177  0.013047758          638 
 1944000   0.47536972   -7.6595988    339.62931   0.01455887  0.013037549          632 
 1945000   0.48490623   -7.6586102    338.93372  0.014521582  0.013027342          658 
 1946000   0.46682705   -7.6646277    339.74809  0.014548993  0.013017146          711 
 1947000   0.47055636   -7.6565477    339.43337   0.01452805  0.013006949          706 
 1948000   0.48752885   -7.6571245    339.46181  0.014521809  0.012996774          713 
 1949000   0.47641347   -7.6564515    340.31669  0.014550911  0.012986606          727 
 1950000   0.47353179   -7.6601257    339.60267  0.014512934   0.01297645          695 
 1951000   0.47666428   -7.6606389    339.76752  0.014512537  0.012966307          746 
 1952000   0.47631104   -7.6744884    339.16101   0.01447921  0.012956165          680 
 1953000   0.47411563   -7.6693685    339.63403  0.014491979  0.012946039          713 
 1954000    0.4732328    -7.661679    339.23183   0.01446741  0.012935914          747 
 1955000   0.48312764   -7.6629122    339.56252  0.014474106  0.012925797          685 
 1956000   0.45685334   -7.6465578    339.20217  0.014451353   0.01291569          648 
 1957000   0.48277863   -7.6759565    339.68404  0.014464488  0.012905587          700 
 1958000   0.47723423   -7.6653626     339.2687  0.014439424  0.012895504          678 
 1959000   0.46220747   -7.6715372    339.60574   0.01444639  0.012885423          715 
 1960000   0.46917732    -7.679545    339.60415  0.014438952  0.012875352          690 
 1961000   0.46878226   -7.6607253    339.18157  0.014413631  0.012865291          697 
 1962000   0.46195454   -7.6736776    339.42876  0.014416784  0.012855234          678 
 1963000   0.46342982    -7.659321    339.36243  0.014406624  0.012845188          735 
 1964000   0.47282968   -7.6658834    339.11351  0.014388726  0.012835151          678 
 1965000   0.46638857    -7.680098    339.36219   0.01439195  0.012825132          686 
 1966000   0.47439575   -7.6701376    339.71623  0.014399637  0.012815112          667 
 1967000   0.46836855    -7.663334    339.53946  0.014384827    0.0128051          672 
 1968000   0.47195446   -7.6661483    339.90965  0.014393193  0.012795095          683 
 1969000   0.46709217   -7.6722615    339.22582  0.014356942  0.012785102          683 
 1970000   0.46306879   -7.6851504    339.10776   0.01434466  0.012775119          662 
 1971000   0.46821584   -7.6712498    339.59854  0.014358132  0.012765145          717 
 1972000   0.47043803   -7.6871162    339.09713  0.014329662  0.012755182          708 
 1973000   0.45985082   -7.6759398    339.31583  0.014331637  0.012745234          708 
 1974000   0.45724111   -7.6738722    339.20085  0.014319523  0.012735292          739 
 1975000   0.45626077    -7.683115    338.89026  0.014299167  0.012725367          707 
 1976000    0.4708497   -7.6781741    339.55715  0.014320055  0.012715445          696 
 1977000   0.46037479   -7.6738434    339.35206  0.014304167  0.012705531          695 
 1978000   0.47478923   -7.6708115    338.88127  0.014277101  0.012695617          701 
 1979000   0.46700526   -7.6656058    339.32459  0.014288554  0.012685724          748 
 1980000   0.46929895    -7.674693    338.73732  0.014256621  0.012675831          660 
 1981000   0.46677811   -7.6870563    339.31284  0.014273635  0.012665951          679 
 1982000   0.45493534    -7.675678    339.07855  0.014256582  0.012656082          714 
 1983000   0.44937291   -7.6728623     339.3568  0.014261086  0.012646224          731 
 1984000   0.45610986   -7.6876233    338.98125  0.014238124  0.012636377          678 
 1985000   0.45875389   -7.6782795    339.27636   0.01424334  0.012626543          723 
 1986000   0.44928587   -7.6780029    339.32234  0.014238097  0.012616716          707 
 1987000   0.47091039   -7.6754997    339.14572  0.014223525  0.012606897          708 
 1988000   0.45571694   -7.6949724    339.22676  0.014219767  0.012597082          678 
 1989000   0.45944674   -7.6868645    339.64697  0.014230223  0.012587278          720 
 1990000   0.45761983   -7.6705251    338.68596  0.014182829   0.01257749          723 
 1991000   0.45888825    -7.688317    339.40653  0.014205865  0.012567721          698 
 1992000    0.4580424   -7.6916854    338.75454  0.014171458  0.012557955          678 
 1993000   0.46957748    -7.673223    339.22125  0.014183862  0.012548197          673 
 1994000   0.45252377   -7.6947747     339.3173  0.014180763  0.012538446          716 
 1995000    0.4551382   -7.6751818    338.98213  0.014159655  0.012528697          686 
 1996000    0.4514547   -7.6777708    338.80564  0.014145192  0.012518958          719 
 1997000   0.46702672   -7.6945046    338.90571  0.014142284  0.012509227          720 
 1998000   0.46285416   -7.6910717    339.09479  0.014143093  0.012499509          674 
 1999000   0.46585941   -7.6864143    338.72965  0.014120796  0.012489796          767 
 2000000     0.451902   -7.6831799    339.34343   0.01413931  0.012480092          695 
 2001000   0.46296948   -7.7045675    339.25207  0.014128439  0.012470405          696 
 2002000   0.44913119   -7.6814834    338.85815  0.014104985  0.012460724          753 
 2003000   0.45043336   -7.6896968    338.77315  0.014094406   0.01245105          710 
 2004000   0.45326747   -7.6911646    339.21831  0.014105884  0.012441383          703 
 2005000   0.45667896   -7.6949786    339.42853  0.014107586  0.012431738          722 
 2006000   0.44323522   -7.6985134     338.6337  0.014067535  0.012422088          766 
 2007000   0.45062671   -7.6816472    339.14252  0.014081653  0.012412442          729 
 2008000   0.45931544   -7.6941103    338.45146   0.01404596  0.012402815          681 
 2009000   0.44489712   -7.6941653    338.70201  0.014049362  0.012393195          743 
 2010000   0.45217865   -7.6749871    339.20359  0.014063167  0.012383581          724 
 2011000   0.44761385   -7.6944094    338.79347  0.014039179  0.012373983          727 
 2012000   0.45490801   -7.6897188    339.15574  0.014047206  0.012364387          700 
Loop time of 4316.99 on 48 procs for 2000000 steps with 4000 atoms

Performance: 80055.819 tau/day, 463.286 timesteps/s
99.4% CPU use with 48 MPI tasks x no OpenMP threads

MPI task timing breakdown:
Section |  min time  |  avg time  |  max time  |%varavg| %total
---------------------------------------------------------------
Pair    | 283.1      | 303.75     | 318.68     |  53.0 |  7.04
Neigh   | 26.951     | 27.432     | 28.319     |   4.9 |  0.64
Comm    | 237.5      | 251.13     | 275.63     |  56.6 |  5.82
Output  | 4.1034     | 4.1052     | 4.1363     |   0.2 |  0.10
Modify  | 3666.8     | 3682.5     | 3697.3     |  14.4 | 85.30
Other   |            | 48.02      |            |       |  1.11

Nlocal:        83.3333 ave          91 max          77 min
Histogram: 7 1 9 3 4 13 1 4 3 3
Nghost:        1792.04 ave        1811 max        1766 min
Histogram: 1 2 3 2 5 10 11 7 2 5
Neighs:        10966.2 ave       12271 max       10063 min
Histogram: 6 8 5 8 4 6 2 5 2 2
FullNghs:      21932.7 ave       24057 max       20287 min
Histogram: 7 5 6 4 7 6 4 0 6 3

Total # of neighbors = 1052769
Ave neighs/atom = 263.19225
Neighbor list builds = 107764
Dangerous builds = 0

#clear
#
#next RN
#
#jump SELF
Total wall time: 1:11:59
