
units lj                  # Use reduced LJ style units
atom_style atomic         # Uncharged point particles
atom_modify map hash      # Needed for indexing of clusters etc
                          # Used to be able to find where atoms are in relation to each other.

# Define a lattice with which to populate the simulation cell. With units
# set to 'lj' the second argument to the lattice command is the reduced
# density rho* and the spacings are multiples of that required to acheive
# that density. Also define a simulation cell called 'box' in lattice units
# and fill it with atoms. Here we're creating a box which is ten lattice
# constants in each direction.
lattice fcc 1.0 spacing 1 1 1                 # All equal sizes - gives the right reduced density.
Lattice spacing in x,y,z = 1.5874011 1.5874011 1.5874011

region box block 0 10 0 10 0 10 units lattice # Defines a region, "box", in lattice units
create_box 1 box                              # Creates a simulation box as specified above,
Created orthogonal box = (0.0000000 0.0000000 0.0000000) to (15.874011 15.874011 15.874011)
  2 by 2 by 5 MPI processor grid
                                              # with one type of atom
create_atoms 1 box                            # Creates particles on lattice points
Created 4000 atoms
  using lattice units in orthogonal box = (0.0000000 0.0000000 0.0000000) to (15.874011 15.874011 15.874011)
  create_atoms CPU = 0.001 seconds


# Set the mass of the first (and only) atom type.
mass 1 1.0

# Lennard-Jones interactions between particles, 3.5 sigma cut-off. Apply
# long range tail corrections to energy and pressure and set all coefficients
# to unity since we work in reduced units here. Note that this doesn't shift
# the potential such that it goes to zero at the cutoff. That would require
# pair_modify('shift', 'yes').
pair_style lj/cut  3.5      # non-GPU version
pair_modify tail  yes
pair_coeff 1  1  1.0  1.0   # Intearaction between 1 and 1 set with epsilon = 1 and sigma = 1

write_data data.*
System init for write_data ...
Neighbor list info ...
  update every 1 steps, delay 10 steps, check yes
  max neighbors/atom: 2000, page size: 100000
  master list distance cutoff = 3.8
  ghost atom cutoff = 3.8
  binsize = 1.9, bins = 9 9 9
  1 neighbor lists, perpetual/occasional/extra = 1 0 0
  (1) pair lj/cut, perpetual
      attributes: half, newton on
      pair build: half/bin/atomonly/newton
      stencil: half/bin/3d
      bin: standard

#############################
#   M E L T   S Y S T E M   #
#############################

velocity all create 2.4 5833274 mom yes dist gaussian # Assign velocities
                                                    # Temperature 2.4, random number seed, zero linear momentum
						                                                        # Gaussian distribution

timestep 0.002   # simulation timestep
thermo 100       # output thermodynamic data every 100 steps

# Define a fix  in this case with index 1 applied to all
# particles in the simulation. This fix is for simulations
# in the anisotropic NPT ensemble. Note that we use the MTK
# correction.
fix 1 all npt temp 2.4 2.4 0.1 iso 5.68 5.68 0.5 mtk yes tchain 5 pchain 5 # Use NPT ensemble
                                                                         # Set temperature and pressure and damping
                                                                         # Numbers of thermostats in chain and in barostat
run 1000         # run for 10000 steps
Per MPI rank memory allocation (min/avg/max) = 3.681 | 3.682 | 3.682 Mbytes
Step Temp E_pair E_mol TotEng Press Volume 
       0          2.4   -8.3859253            0   -4.7868253   -2.2405722         4000 
     100    1.2560543   -6.5166947            0   -4.6330842    5.4738617     4090.264 
     200    1.4620147   -6.2944328            0    -4.101959    6.0489469    4141.8953 
     300    1.5805517   -6.0148662            0   -3.6446313    5.8775706    4268.7287 
     400    1.6834669   -5.7107066            0   -3.1861375    5.9071358    4403.4982 
     500    1.7905016   -5.4263411            0   -2.7412601    5.8268731    4549.0839 
     600    1.8978346    -5.162881            0   -2.3168407    5.7228626    4703.0892 
     700    1.9845484    -4.865807            0   -1.8897287     6.002426    4840.6855 
     800    2.1384022    -4.696791            0   -1.4899895    5.9101296    4967.4306 
     900    2.2534752   -4.5516747            0    -1.172307    5.7523082    5085.8653 
    1000    2.3409821   -4.4247023            0  -0.91410702    5.7016656    5179.7126 
Loop time of 0.482291 on 20 procs for 1000 steps with 4000 atoms

Performance: 358289.660 tau/day, 2073.436 timesteps/s
99.8% CPU use with 20 MPI tasks x no OpenMP threads

MPI task timing breakdown:
Section |  min time  |  avg time  |  max time  |%varavg| %total
---------------------------------------------------------------
Pair    | 0.2606     | 0.28087    | 0.30539    |   2.2 | 58.24
Neigh   | 0.050207   | 0.053275   | 0.056494   |   0.7 | 11.05
Comm    | 0.095978   | 0.12088    | 0.1429     |   3.8 | 25.06
Output  | 0.00020513 | 0.00021184 | 0.00026668 |   0.0 |  0.04
Modify  | 0.021407   | 0.023746   | 0.027538   |   1.4 |  4.92
Other   |            | 0.003309   |            |       |  0.69

Nlocal:        200.000 ave         214 max         185 min
Histogram: 1 1 2 4 1 2 4 2 2 1
Nghost:        2060.35 ave        2080 max        2025 min
Histogram: 1 0 0 1 4 0 5 5 0 4
Neighs:        17663.0 ave       19553 max       16156 min
Histogram: 1 3 2 3 4 1 1 4 0 1

Total # of neighbors = 353260
Ave neighs/atom = 88.315000
Neighbor list builds = 87
Dangerous builds = 21

# Equilibrate just above the melting temperature to avoid step fn in T

fix 1 all npt temp 1.25 1.25 0.1 iso 5.68 5.68 0.5 mtk yes tchain 5 pchain 5
run 1000
Per MPI rank memory allocation (min/avg/max) = 3.682 | 3.683 | 3.683 Mbytes
Step Temp E_pair E_mol TotEng Press Volume 
    1000    2.3409821   -4.4247023            0  -0.91410702    5.7016656    5179.7126 
    1100    1.9394202   -4.6489983            0   -1.7405953    5.7043192    5010.4975 
    1200    1.7538302   -4.9709308            0   -2.3408432    5.7068483    4807.0107 
    1300    1.5722219   -5.1950829            0   -2.8373396    5.6802724    4673.3381 
    1400    1.4568845   -5.4057081            0   -3.2209276    5.5567683    4573.8845 
    1500    1.3503547   -5.5212706            0   -3.4962449    5.7302676    4490.7966 
    1600    1.3147643   -5.6482764            0   -3.6766229    5.6898925    4434.2315 
    1700    1.2716924   -5.7297408            0   -3.8226791    5.6958397    4391.1098 
    1800    1.2648862   -5.7893213            0   -3.8924664    5.8003465    4355.9343 
    1900    1.2354209   -5.8175189            0   -3.9648509     5.800932    4342.1233 
    2000    1.2349334    -5.850737            0      -3.9988    5.7262948    4335.4701 
Loop time of 0.46981 on 20 procs for 1000 steps with 4000 atoms

Performance: 367808.529 tau/day, 2128.522 timesteps/s
100.0% CPU use with 20 MPI tasks x no OpenMP threads

MPI task timing breakdown:
Section |  min time  |  avg time  |  max time  |%varavg| %total
---------------------------------------------------------------
Pair    | 0.25643    | 0.27793    | 0.29467    |   2.2 | 59.16
Neigh   | 0.043578   | 0.04639    | 0.049268   |   0.6 |  9.87
Comm    | 0.098543   | 0.11796    | 0.14058    |   3.7 | 25.11
Output  | 0.00020581 | 0.00021342 | 0.0002703  |   0.0 |  0.05
Modify  | 0.022023   | 0.023584   | 0.025735   |   1.0 |  5.02
Other   |            | 0.003732   |            |       |  0.79

Nlocal:        200.000 ave         208 max         193 min
Histogram: 3 2 2 0 3 2 4 1 0 3
Nghost:        2288.05 ave        2299 max        2264 min
Histogram: 1 0 0 2 0 3 2 3 5 4
Neighs:        21066.1 ave       22634 max       19412 min
Histogram: 1 2 3 1 3 1 2 4 2 1

Total # of neighbors = 421322
Ave neighs/atom = 105.33050
Neighbor list builds = 76
Dangerous builds = 7


# Small amount of linear quench

fix 1 all npt temp 1.25 ${temp} 0.1 iso 5.68 5.68 0.5 mtk yes tchain 5 pchain 5
fix 1 all npt temp 1.25 0.67 0.1 iso 5.68 5.68 0.5 mtk yes tchain 5 pchain 5
run 2000
Per MPI rank memory allocation (min/avg/max) = 3.683 | 3.683 | 3.684 Mbytes
Step Temp E_pair E_mol TotEng Press Volume 
    2000    1.2349334    -5.850737            0      -3.9988    5.7262948    4335.4701 
    2100    1.2411127   -5.8611836            0     -3.99998    5.5501566    4344.6945 
    2200    1.2005613    -5.876887            0   -4.0764953    5.5552656    4334.1769 
    2300    1.1890857    -5.938663            0   -4.1554804    5.3934052    4321.9689 
    2400    1.1411737   -5.9473978            0   -4.2360651    5.4543628    4310.9012 
    2500    1.1373093   -5.9923813            0   -4.2868438    5.6922311    4271.7979 
    2600    1.1334175   -6.0399229            0   -4.3402217    5.8488616    4240.2712 
    2700    1.0607991    -6.047842            0   -4.4570412    5.7039439      4244.21 
    2800    1.0507401   -6.1053531            0    -4.529637    5.7632538    4214.9686 
    2900    1.0247258   -6.1503719            0   -4.6136675     5.643367    4205.8561 
    3000    0.9984297   -6.1984168            0   -4.7011466    5.6961423    4180.8496 
    3100   0.97022283   -6.2412082            0   -4.7862378    5.8483651    4149.1162 
    3200    0.9416264   -6.3045253            0   -4.8924388    5.6961473    4135.7925 
    3300    0.9170881   -6.3613879            0   -4.9860997    5.6661683    4113.7724 
    3400   0.88214719   -6.4190923            0   -5.0962023    5.5370736    4102.0919 
    3500    0.8521364   -6.4592574            0   -5.1813723    5.5995267    4081.8126 
    3600   0.83390472   -6.5177135            0   -5.2671691    5.5547685    4060.9555 
    3700   0.78754454   -6.5541666            0   -5.3731451    5.5375083    4047.7158 
    3800   0.77118293   -6.6046142            0    -5.448129    5.6068451    4023.7889 
    3900   0.74533385   -6.6470253            0    -5.529304    5.7605614    3995.8533 
    4000   0.70956762   -6.6897198            0   -5.6256345    5.8361865    3974.5429 
Loop time of 0.967608 on 20 procs for 2000 steps with 4000 atoms

Performance: 357169.385 tau/day, 2066.952 timesteps/s
100.0% CPU use with 20 MPI tasks x no OpenMP threads

MPI task timing breakdown:
Section |  min time  |  avg time  |  max time  |%varavg| %total
---------------------------------------------------------------
Pair    | 0.56137    | 0.60552    | 0.64575    |   3.1 | 62.58
Neigh   | 0.071226   | 0.074735   | 0.079711   |   0.8 |  7.72
Comm    | 0.18706    | 0.23177    | 0.27359    |   5.3 | 23.95
Output  | 0.00040668 | 0.00042033 | 0.00052234 |   0.0 |  0.04
Modify  | 0.041417   | 0.046624   | 0.052281   |   1.6 |  4.82
Other   |            | 0.008543   |            |       |  0.88

Nlocal:        200.000 ave         207 max         191 min
Histogram: 2 1 1 2 1 1 6 1 4 1
Nghost:        2404.40 ave        2431 max        2386 min
Histogram: 3 2 2 3 5 1 1 1 1 1
Neighs:        23102.7 ave       24995 max       21325 min
Histogram: 2 1 3 3 0 3 4 0 2 2

Total # of neighbors = 462053
Ave neighs/atom = 115.51325
Neighbor list builds = 118
Dangerous builds = 0

#############################
# F R E E Z E  S Y S T E M  #
#############################

# Define solid atoms. This closely follows ten Wolde  Ruiz-Montero and Frenkel  Faraday Discuss  1996  104  93-110
# Compute components of the per-atom q6 vector
compute q6 all orientorder/atom degrees 1 6 components 6 nnn NULL cutoff 1.3 # compute the Q6 parameter.
                                                                             # Use all neighbours within 1.3 unit cell.

# get number of connections
compute coord_number all coord/atom orientorder q6 0.5

# An atom is solid if it has 8 or more connections (of a possible 14)
variable is_solid atom c_coord_number>=8
group solid dynamic all var is_solid    # Must be dynamic to update
dynamic group solid defined

# do clustering
compute cluster solid cluster/atom 1.3 # Create a cluster where all atoms within are solid and max 1.3 units from another member

# define chunks one chunk per cluster
compute clus_chunks solid chunk/atom c_cluster nchunk every compress yes  # Says which atoms are in which chunk

# count the size of each chunk
compute size_chunks solid property/chunk clus_chunks count


# Find the maximum entry in the vector of chunk sizes
variable max_n equal max(c_size_chunks)


# Thermo style which includes this variable
thermo_style custom step temp pe vol v_max_n

thermo ${N}  # Print the thermo information every 100 steps
thermo 100  

# Reset the npt fix at a lower temperature (below freezing)
fix 1  all npt temp  ${temp} ${temp}  0.1  iso  5.68  5.68  0.5  mtk yes tchain  5  pchain  5
fix 1  all npt temp  0.67 ${temp}  0.1  iso  5.68  5.68  0.5  mtk yes tchain  5  pchain  5
fix 1  all npt temp  0.67 0.67  0.1  iso  5.68  5.68  0.5  mtk yes tchain  5  pchain  5

dump dmp2 all dcd ${N} traj_${rand}.dcd
dump dmp2 all dcd 100 traj_${rand}.dcd
dump dmp2 all dcd 100 traj_462431.dcd


# fix rnuntil all halt ${N} v_max_n >= 3980 error soft message no   # Stop when solidified


run 100000 # 5000000  # Run for this many steps
Neighbor list info ...
  update every 1 steps, delay 10 steps, check yes
  max neighbors/atom: 2000, page size: 100000
  master list distance cutoff = 3.8
  ghost atom cutoff = 3.8
  binsize = 1.9, bins = 9 9 9
  4 neighbor lists, perpetual/occasional/extra = 1 3 0
  (1) pair lj/cut, perpetual
      attributes: half, newton on
      pair build: half/bin/atomonly/newton
      stencil: half/bin/3d
      bin: standard
  (2) compute orientorder/atom, occasional
      attributes: full, newton on
      pair build: full/bin/atomonly
      stencil: full/bin/3d
      bin: standard
  (3) compute coord/atom, occasional
      attributes: full, newton on
      pair build: full/bin/atomonly
      stencil: full/bin/3d
      bin: standard
  (4) compute cluster/atom, occasional
      attributes: full, newton on
      pair build: full/bin/atomonly
      stencil: full/bin/3d
      bin: standard
Per MPI rank memory allocation (min/avg/max) = 9.519 | 9.523 | 9.527 Mbytes
Step Temp PotEng Volume v_max_n 
    4000   0.70956762   -6.6897198    3974.5429           14 
    4100   0.70037022   -6.7469709    3963.6003           20 
    4200   0.68371777   -6.7899732    3956.2081           13 
    4300   0.66584795   -6.7773919    3935.9704           15 
    4400    0.6819457   -6.8086128    3941.6941           18 
    4500   0.67951821   -6.7941173    3941.2911           23 
    4600   0.67253315    -6.824954    3937.8745           19 
    4700   0.66661393   -6.8157795    3942.9347           23 
    4800   0.68887389   -6.8112456     3937.507           20 
    4900   0.66281322   -6.8042031    3937.8286           14 
    5000   0.66596197   -6.8319776    3949.9461           12 
    5100   0.66269508   -6.8423959    3937.1562           17 
    5200   0.68115056   -6.8396735    3923.1476           20 
    5300   0.67603606   -6.8331538    3943.0773           19 
    5400   0.66539362   -6.8389136    3938.2907           10 
    5500   0.65697769   -6.8469033    3927.7551           37 
    5600    0.6739415   -6.8438713    3929.9423           18 
    5700   0.67133178   -6.8602727    3928.7905           17 
    5800   0.66946438   -6.8640901    3923.8068           26 
    5900   0.66630654   -6.8621985    3921.2859           23 
    6000   0.67967495   -6.8462893    3923.0463           35 
    6100   0.67750402   -6.8675525    3940.2294           49 
    6200   0.67790736   -6.8644654    3922.0141           35 
    6300   0.65849345   -6.8521601    3909.7764           47 
    6400   0.67418357   -6.8629433    3936.2456           68 
    6500   0.67006193   -6.8623845    3927.7728           71 
    6600   0.67310139   -6.8743665    3914.0387           83 
    6700   0.66625834   -6.8691952    3920.8175          109 
    6800   0.68735208   -6.8621679    3926.4134           67 
    6900   0.67282399    -6.869964    3915.3833           83 
    7000   0.68937489   -6.8916329    3922.3656           76 
    7100   0.65762433   -6.8553109    3912.0184           88 
    7200   0.67530284   -6.8676871    3917.5984           72 
    7300   0.67304906   -6.8837355    3933.3512           69 
    7400   0.67157771   -6.8661159      3923.64           76 
    7500   0.66120185    -6.873952    3910.7626           90 
    7600   0.67285825   -6.8721283    3922.9425           81 
    7700   0.67634934    -6.874033    3919.7844           50 
    7800   0.65763753   -6.8660984     3915.853           63 
    7900   0.67627501   -6.8871883    3923.0152           80 
    8000   0.66398567   -6.8673852    3925.5901           62 
    8100   0.68071721   -6.8595674    3917.2416           61 
    8200   0.67395351   -6.8862659    3910.7217           46 
    8300   0.65908342   -6.8894682    3919.3782           30 
    8400   0.67375449   -6.8801146    3924.8875           27 
    8500   0.66550478   -6.8517217    3916.4285           52 
    8600    0.6913937    -6.876806    3920.4461           43 
    8700   0.67046834   -6.8972626    3923.9659           46 
    8800   0.67205368   -6.8547777    3916.5546           64 
    8900   0.68630809   -6.8930714    3916.8518           92 
    9000   0.65847807   -6.8792813     3913.143           32 
    9100   0.66857328   -6.8777663    3923.5269           41 
    9200   0.66970125   -6.8816061    3920.7708           18 
    9300   0.67739821   -6.9010609    3917.0029           46 
    9400   0.67384088   -6.8754368    3912.1078           72 
    9500   0.66303037    -6.882533    3922.7974           20 
    9600   0.65856135   -6.8924881    3926.8335           26 
    9700   0.67514731   -6.8951669    3909.6597           56 
    9800   0.68109157   -6.9029313    3907.5978           83 
    9900   0.68649125   -6.8811644    3911.9489          108 
   10000   0.67873828    -6.876141    3908.5747           84 
   10100   0.65815204   -6.8947333    3921.4487           35 
   10200   0.67379548   -6.8826353    3913.0463           81 
   10300   0.67183557   -6.8760526    3906.3757          109 
   10400   0.66352002   -6.8843037     3912.724          131 
   10500   0.68054219   -6.8761551    3921.1234           32 
   10600   0.66172919   -6.8713683    3919.8349           40 
   10700    0.6620456   -6.8828795    3918.5839           54 
   10800   0.66607676   -6.8972043    3904.6838           41 
   10900   0.68512669   -6.9126007     3910.773           40 
   11000   0.67990742   -6.8852063    3912.0065           59 
   11100   0.66585731   -6.8994842    3912.9964           28 
   11200   0.66336109   -6.9125025     3906.043           38 
   11300   0.66933708    -6.902094    3909.3795           36 
   11400   0.67098316   -6.8954565    3913.4238           45 
   11500   0.67260998     -6.88929    3916.4315           34 
   11600    0.6665818   -6.8953053    3912.2737           52 
   11700   0.65227173   -6.8789651    3896.0934           34 
   11800   0.67118957   -6.8941965    3924.2026           36 
   11900   0.65982917     -6.88808    3922.1109           47 
   12000   0.66811102   -6.8949279    3909.7512           56 
   12100   0.68066897   -6.9083983    3901.5895           41 
   12200   0.67303115    -6.914845    3914.4616           48 
   12300   0.65912426   -6.8819549    3912.3686           27 
   12400   0.67068642   -6.9104508    3917.3368           61 
   12500   0.66164186   -6.9146429    3904.3851           46 
   12600   0.67408554   -6.8852442    3904.8321           46 
   12700   0.68934592   -6.9033568    3902.9986           58 
   12800   0.67618981    -6.896262    3898.9989           44 
   12900   0.66833696   -6.9194835    3916.2681           46 
   13000   0.67919565   -6.9061412    3917.9774           64 
   13100   0.67960543   -6.9105508    3909.8788           37 
   13200   0.65825087    -6.899154    3906.4578           49 
   13300   0.66544333   -6.8923056    3907.5172           86 
   13400    0.6766103   -6.9186991    3911.4222           90 
   13500   0.66944412   -6.8895962    3906.4098           85 
   13600   0.67430417   -6.8765137    3908.0647           83 
   13700   0.66022384   -6.9112809    3911.2545           65 
   13800   0.66414424   -6.8986101    3915.9052           94 
   13900   0.68039502   -6.8943861    3913.0093           80 
   14000   0.67139317   -6.8994199    3902.3832          187 
   14100   0.66990031   -6.9017992    3895.4047          136 
   14200    0.6862742   -6.9100342    3916.4874           92 
   14300   0.66559416   -6.9003848    3911.0484          162 
   14400   0.67181722   -6.9120481    3904.2603          184 
   14500   0.67163924   -6.8999169    3910.2015          256 
   14600   0.66863128   -6.9057803    3912.8423          312 
   14700   0.66190258   -6.8885468    3906.0744          239 
   14800   0.67576095   -6.8887648    3913.4214          180 
   14900   0.67962896   -6.8986795    3915.9146          162 
   15000    0.6698442   -6.9175654    3906.6057          308 
   15100   0.66768196   -6.9075687    3911.8952          225 
   15200   0.66580942   -6.8998318    3908.1105          334 
   15300   0.66598465   -6.9147269    3904.6327          130 
   15400   0.66345241   -6.9144954    3901.3891          143 
   15500   0.67430892   -6.9066667    3910.0953          186 
   15600   0.66624088   -6.9141178    3907.9341          157 
   15700   0.68287858   -6.9182179    3902.9334          124 
   15800     0.679517     -6.90021    3904.4754          206 
   15900   0.66474974   -6.9210408     3908.167          204 
   16000   0.67217742   -6.9217905    3909.6714          321 
   16100   0.66289288   -6.8875225    3906.6573          369 
   16200   0.65990039   -6.9108657     3909.431          184 
   16300   0.66719396   -6.9253673    3908.6896          377 
   16400    0.6790785    -6.902299    3912.4106          411 
   16500   0.67219879   -6.8841729    3896.4102          347 
   16600   0.65880627    -6.920449    3905.0372          488 
   16700    0.6717352   -6.9274782    3916.4548          415 
   16800   0.69427302   -6.9092772    3911.4625          441 
   16900   0.67301565    -6.908929    3903.5644          440 
   17000   0.66035845   -6.9087758    3895.2691          418 
   17100   0.67032856   -6.9304347    3903.6509          394 
   17200   0.66593133   -6.9280048    3908.8846          401 
   17300   0.67218848   -6.9066604    3904.8537          369 
   17400   0.67417253    -6.903713    3913.4747          194 
   17500    0.6608238   -6.9050931    3909.9435          338 
   17600   0.65411066   -6.9185517    3896.0646          265 
   17700   0.66306222   -6.9241273    3909.9555          176 
   17800   0.66628387   -6.9308101    3922.8664          164 
   17900   0.66650123   -6.8895741    3896.6594          269 
   18000   0.68949992   -6.9001682    3900.8309          323 
   18100   0.67560018   -6.9224183    3903.1293          283 
   18200    0.6757099   -6.9231692     3907.238          259 
   18300   0.69033489   -6.9064647    3912.0895          457 
   18400    0.6749894    -6.910495    3908.2187          521 
   18500   0.67561615   -6.9258084    3902.6793          522 
   18600   0.67236384   -6.9056557    3899.6039          469 
   18700   0.66851841   -6.9045672     3906.286          478 
   18800   0.65452049   -6.9269393    3907.9723          427 
   18900   0.65001606      -6.9361    3911.2404          497 
   19000   0.67725587   -6.9094161    3896.6272          432 
   19100   0.66691999   -6.8908362    3896.6161          432 
   19200   0.65401257   -6.9260292    3913.4379          514 
   19300   0.66205282    -6.905217    3911.3682          404 
   19400   0.66547232   -6.9179151    3908.4203          505 
   19500   0.66610846   -6.9109071    3904.2839          274 
   19600   0.68507452   -6.9126851     3907.898          514 
   19700    0.6701575   -6.9160309    3904.5898          509 
   19800    0.6734892   -6.9156273    3897.0537          578 
   19900   0.65899322   -6.9377301    3900.6173          585 
   20000   0.66430019   -6.9331189    3918.0298          560 
   20100   0.67194966   -6.9080405    3906.5981          530 
   20200   0.67223716   -6.9172981    3899.7349          501 
   20300   0.66067895   -6.9127522     3901.154          550 
   20400   0.67077246   -6.9120216    3909.6448          539 
   20500   0.67559941   -6.9285175    3908.2631          624 
   20600   0.65287125   -6.9303766    3905.5886          648 
   20700   0.67276975   -6.9278645    3905.4103          666 
   20800   0.66314457   -6.9092169    3896.4601          542 
   20900   0.68941388   -6.9089924    3899.5421          574 
   21000   0.66966811    -6.909469    3909.4364          588 
   21100   0.65500012   -6.9277853    3908.6993          520 
   21200   0.67504054   -6.9259036    3907.3551          537 
   21300   0.68156016   -6.8944513     3907.973          296 
   21400   0.67576417   -6.9165739    3904.1539          531 
   21500   0.65748229   -6.9210828    3908.7553          529 
   21600   0.67959262    -6.920992    3914.5459          539 
   21700   0.66479257   -6.8954853    3903.9014          565 
   21800   0.67014461   -6.9301965    3903.7467          470 
   21900   0.65395774   -6.9202932    3901.7603          552 
   22000   0.68108976   -6.9292743    3908.5514          555 
   22100   0.66383134   -6.9226778    3895.4594          524 
   22200   0.66303195   -6.9231896    3892.2845          525 
   22300   0.67366174   -6.9156514    3910.2143          524 
   22400   0.66066652    -6.921636    3906.0279          563 
   22500   0.67627111   -6.9316414    3898.0795          577 
   22600   0.68779819   -6.9143198    3898.8503          543 
   22700    0.6680832   -6.9313228    3906.8914          605 
   22800   0.66530618   -6.9363074     3915.222          551 
   22900   0.67692721   -6.9172588    3906.5567          526 
   23000   0.66558417   -6.9319343    3891.3367          393 
   23100   0.66032297   -6.9272964    3904.7153          568 
   23200   0.67886362   -6.9396384    3911.7931          551 
   23300   0.66051897   -6.9146507    3895.5145          584 
   23400   0.67695119   -6.9080316    3904.6762          535 
   23500   0.66619271   -6.9189883    3907.2173          576 
   23600   0.67881933   -6.9255745    3897.0651          592 
   23700   0.67674505   -6.9410127    3901.8461          609 
   23800   0.65680922   -6.9442824    3901.8376          724 
   23900   0.67095411   -6.9426469    3906.2356          731 
   24000   0.67184262   -6.9311832    3899.7663          654 
   24100   0.68841082   -6.9316019    3895.0893          633 
   24200   0.68623889   -6.8946061    3897.5363          625 
   24300     0.664405   -6.9151755    3904.9182          630 
   24400   0.65276485   -6.9374632    3906.2656          651 
   24500   0.66154692   -6.9295682      3898.14          663 
   24600   0.67772818   -6.9373032    3910.1861          645 
   24700   0.66358445   -6.9208109    3910.1639          605 
   24800   0.68056319   -6.9295611    3894.8694          671 
   24900   0.66197933   -6.9246451     3876.914          661 
   25000    0.6705291   -6.9650648    3909.4511          648 
   25100   0.67210641   -6.9268233    3906.2529          663 
   25200   0.66518564   -6.9289085    3898.9724          657 
   25300   0.67267884   -6.9310621    3899.0809          643 
   25400   0.66456579   -6.9174511    3892.8295          733 
   25500   0.65969211   -6.9516987    3895.6437          716 
   25600   0.65434241   -6.9190806    3909.0003          675 
   25700   0.67559856   -6.9286364     3907.308          712 
   25800   0.66615574   -6.9309691    3893.5291          660 
   25900   0.67159295   -6.9558021    3895.4783          668 
   26000   0.67608739   -6.9368822    3899.4686          586 
   26100   0.68415541   -6.9131321     3910.769          616 
   26200   0.67587246    -6.925395    3899.5851          636 
   26300   0.67220484   -6.9328297    3897.0912          745 
   26400   0.65969863   -6.9639031    3906.8598          806 
   26500   0.66809094   -6.9445399    3897.6102          784 
   26600   0.67694704   -6.9285948    3888.6049          767 
   26700   0.66122992   -6.9469297    3893.9026          743 
   26800   0.67209359   -6.9546912    3901.4824          710 
   26900   0.67755047   -6.9300856    3905.2879          619 
   27000   0.67127416   -6.9434653    3902.9187          790 
   27100   0.66035184   -6.9398049    3896.5274          822 
   27200    0.6705835   -6.9408103    3900.5039          849 
   27300   0.65519272   -6.9368052    3906.3645          834 
   27400   0.66030819   -6.9490484    3902.1249          858 
   27500   0.69338197   -6.9569116    3897.8822          853 
   27600   0.67600407   -6.9471183    3880.8975          867 
   27700    0.6656887   -6.9578795    3894.5634          872 
   27800   0.67328806   -6.9587735    3901.8567          835 
   27900   0.67107164    -6.962895    3898.6968          864 
   28000   0.65290127   -6.9583725     3885.396          834 
   28100   0.66604522   -6.9538227    3893.5028          824 
   28200   0.67494891   -6.9584944    3903.3391          836 
   28300    0.6661872   -6.9601319    3899.2397          807 
   28400   0.66309958   -6.9603382    3884.9262          821 
   28500   0.67310936   -6.9494288    3889.0382          787 
   28600   0.66602732   -6.9474657    3895.5085          788 
   28700   0.65498559   -6.9740199    3898.9996          785 
   28800   0.67623812   -6.9633059     3890.729          767 
   28900   0.67416159   -6.9612585    3884.0391          824 
   29000   0.67145101   -6.9544502    3891.1002          834 
   29100   0.67056339    -6.955731    3898.5776          788 
   29200    0.6790006   -6.9625154    3899.0672          807 
   29300   0.66483687   -6.9658885    3893.1352          827 
   29400   0.66543765   -6.9577206    3886.8239          791 
   29500   0.68934007   -6.9475464     3891.427          799 
   29600   0.67606287    -6.942338    3888.1804          844 
   29700   0.66185576   -6.9712204     3899.036          797 
   29800   0.67081309   -6.9413107    3885.4304          808 
   29900   0.66608164   -6.9609876    3895.8239          827 
   30000   0.66903958   -6.9540789    3896.1609          824 
   30100    0.6838003   -6.9482573    3896.6474          905 
   30200   0.67096688   -6.9554329    3882.9458          902 
   30300   0.67054364    -6.958346    3883.4339          865 
   30400   0.67189832   -6.9547141    3901.3098          853 
   30500   0.67265925   -6.9854576    3899.4264          867 
   30600   0.65504485    -6.973867    3887.4262          884 
   30700   0.67329925   -6.9529126    3891.1515          875 
   30800   0.66571997   -6.9488739    3887.8932          885 
   30900   0.66172563   -6.9780181    3889.9938          971 
   31000   0.66010258   -6.9700127    3899.6946          916 
   31100   0.67958576   -6.9647621    3883.7989          890 
   31200   0.67412282   -6.9719447    3882.6562          871 
   31300   0.68318879   -6.9518628    3892.6032          822 
   31400   0.67160631   -6.9714938    3896.8057          792 
   31500   0.66094362   -6.9675961    3881.2878          791 
   31600   0.66303012   -6.9598264    3885.1621          887 
   31700   0.67277284   -6.9628039    3899.9429          870 
   31800   0.65785765   -6.9609204    3891.7135          838 
   31900   0.67778244   -6.9679298    3886.3019          871 
   32000    0.6502592   -6.9621881    3892.2822          863 
   32100    0.6632005    -6.953336     3893.111          809 
   32200   0.66960549   -6.9628307     3890.652          888 
   32300   0.66497947   -6.9653173    3879.8343          926 
   32400   0.68166738   -6.9655861    3885.8178          871 
   32500   0.66554942   -6.9942403    3900.8438          855 
   32600   0.67975704   -6.9791493    3888.1324          837 
   32700   0.68166876   -6.9451935    3882.7586          904 
   32800    0.6584024    -6.971499    3883.5143          917 
   32900   0.65499462   -6.9709506    3883.7207          931 
   33000   0.66820325   -6.9698616     3894.782          903 
   33100   0.67914493   -6.9738516    3893.6343          920 
   33200   0.65998082   -6.9483375    3872.0452          954 
   33300   0.66154969     -6.97665    3884.6872          983 
   33400   0.67363469     -6.96978    3891.6842          994 
   33500   0.67892101   -6.9669497    3880.0191          979 
   33600    0.6736488   -6.9774289    3884.7729         1021 
   33700   0.69484461   -6.9845732     3898.206         1001 
   33800   0.68479465   -6.9753599    3878.8866         1046 
   33900   0.67247743   -6.9773446    3882.6948         1059 
   34000   0.67065552    -6.970886    3890.5648         1078 
   34100   0.67144473   -6.9718986    3893.1176         1048 
   34200   0.66499474   -6.9556372    3890.9103         1058 
   34300   0.66569767   -6.9845807    3885.5842         1010 
   34400   0.67652437    -6.956985    3880.7335         1078 
   34500   0.65838143    -6.967917    3896.2431          994 
   34600   0.67383324   -6.9538712    3893.3703          966 
   34700   0.67865041   -6.9742386    3886.5265         1031 
   34800   0.66150153    -6.976156    3882.3431          955 
   34900   0.66828616   -6.9514385    3885.3262          951 
   35000   0.66897756   -6.9719695    3892.4663         1023 
   35100   0.66693224   -6.9954572    3883.1442          969 
   35200    0.6730269    -6.973139    3888.2345          978 
   35300   0.67230338   -6.9586229    3893.2271          996 
   35400   0.67845698   -6.9616471    3886.1343         1029 
   35500   0.66557793   -6.9719079    3888.3877          993 
   35600   0.66894135   -6.9740618    3905.8745         1049 
   35700   0.66589811   -6.9612367    3887.8216         1019 
   35800   0.67670656   -6.9973462    3878.4477         1063 
   35900    0.6652045   -6.9658522    3887.0105         1011 
   36000   0.66408137    -6.951604    3879.4315         1047 
   36100   0.67438558   -6.9854935    3890.1452         1165 
   36200   0.64761228   -6.9728027    3891.2288         1114 
   36300    0.6766197    -6.979854    3892.3792         1162 
   36400   0.66979977   -6.9764088    3882.7788         1169 
   36500   0.67060849   -6.9663762     3884.802         1182 
   36600   0.67770153   -6.9764131    3887.1031         1193 
   36700   0.66596492   -6.9621995    3885.4946         1144 
   36800   0.67448413   -6.9639957       3882.4         1087 
   36900   0.66965267   -6.9903438    3888.8103         1171 
   37000   0.66166164   -7.0069346    3886.1207         1213 
   37100   0.68357628   -6.9793679    3872.2811         1184 
   37200   0.69161638   -6.9705284    3870.1392         1209 
   37300   0.66745969   -6.9821338    3889.1206         1188 
   37400   0.67074056   -6.9675208    3892.6943         1201 
   37500   0.66601045   -6.9668324    3883.2749         1181 
   37600   0.65088147   -6.9856088    3885.6641         1248 
   37700   0.65552298   -6.9769977    3898.6026         1307 
   37800   0.66562857   -6.9712758    3892.5142         1319 
   37900   0.67121752   -6.9795868    3885.4316         1289 
   38000   0.67557879   -6.9727715    3879.9305         1330 
   38100   0.68734897   -6.9644438     3892.651         1245 
   38200   0.67804507   -6.9651879    3888.5714         1228 
   38300   0.67156579   -6.9780289    3883.7532         1220 
   38400   0.66772395   -6.9689917    3886.6299         1270 
   38500   0.67228663   -6.9596827    3882.1126         1232 
   38600   0.67231418   -6.9886676    3875.1677         1239 
   38700   0.67239747   -6.9942927    3896.0628         1290 
   38800   0.67513371   -6.9732381    3891.0985         1181 
   38900   0.65965912   -6.9512771    3877.3915         1196 
   39000     0.682291   -6.9881847    3889.5613         1251 
   39100   0.65745127   -6.9751015    3889.3184         1230 
   39200   0.66426874   -6.9627538    3891.0729         1186 
   39300   0.66807976   -6.9735388    3884.0232         1197 
   39400   0.66725642   -6.9926557    3883.9415         1219 
   39500   0.66299531   -6.9711151    3885.1776         1254 
   39600   0.66923492   -6.9845259    3891.7438         1331 
   39700   0.66972543   -6.9732075     3893.594         1300 
   39800   0.67071826   -6.9610153     3886.161         1283 
   39900   0.65811014   -6.9691849     3877.497         1343 
   40000   0.66470851   -6.9745479     3886.461         1327 
   40100   0.66184879   -6.9635263     3888.425         1251 
   40200   0.67334885   -6.9886144     3881.686         1313 
   40300   0.66589297    -6.974178    3876.9677         1338 
   40400   0.68471023   -6.9825657     3895.797         1296 
   40500   0.68202154    -6.965796    3878.2633         1275 
   40600   0.67317959   -6.9702598    3879.4896         1298 
   40700   0.65307463   -6.9876379    3885.5111         1332 
   40800   0.67346991   -6.9841778    3884.0076         1345 
   40900   0.66714893   -6.9753452    3890.7991         1277 
   41000   0.67243418   -6.9695443     3891.944         1298 
   41100   0.66275451   -6.9864225    3884.7022         1333 
   41200   0.66891871   -6.9907304    3885.8715         1387 
   41300   0.67557018   -6.9712954    3889.9983         1311 
   41400   0.66232972   -6.9837011    3883.8181         1281 
   41500   0.66422445   -6.9913082    3885.8877         1345 
   41600    0.6701487    -6.979146    3886.9607         1360 
   41700   0.67501404   -6.9706437    3877.4912         1364 
   41800   0.67316839    -6.985642    3890.5537         1428 
   41900   0.65651562    -7.006638    3893.3315         1427 
   42000    0.6672831   -6.9806061    3881.7445         1395 
   42100   0.68213325   -6.9761375    3881.7636         1413 
   42200   0.65493293   -6.9692866    3882.6942         1354 
   42300   0.67841414    -6.982973    3894.5741         1399 
   42400   0.67387889   -6.9869282    3886.9901         1397 
   42500   0.67733469   -6.9784635    3874.4417         1394 
   42600   0.66816167    -7.015245    3887.1987         1437 
   42700   0.65287067   -6.9732433    3880.3327         1394 
   42800   0.66303822   -6.9798894    3885.6005         1439 
   42900    0.6595217   -6.9864191    3894.5469         1404 
   43000   0.67711078   -6.9854324    3891.3799         1485 
   43100   0.66759487   -7.0023483     3874.018         1498 
   43200   0.67066108   -6.9816246    3877.5153         1498 
   43300   0.66995361   -6.9970788    3884.3377         1511 
   43400   0.66879199   -6.9872812    3872.8975         1525 
   43500   0.66064613   -7.0114652    3872.4645         1497 
   43600   0.67381632    -6.997132    3884.1798         1485 
   43700   0.66448939   -6.9653066    3886.3318         1517 
   43800   0.66427198   -6.9986713    3877.1025         1484 
   43900   0.68498387   -7.0040861    3868.7509         1552 
   44000   0.69210332   -6.9797363      3877.92         1605 
   44100   0.66992974   -6.9989644    3893.8483         1566 
   44200   0.65523692   -7.0093318     3891.822         1610 
   44300   0.65520159   -6.9968936    3878.1692         1666 
   44400   0.67278848   -7.0056357    3875.5942         1667 
   44500   0.66956113   -6.9959264     3883.869         1645 
   44600   0.67475809   -6.9944361    3883.8323         1620 
   44700   0.66919962   -7.0104015    3876.2014         1653 
   44800   0.67457702   -6.9811542    3873.0178         1653 
   44900   0.67452273   -7.0357358    3882.0675         1699 
   45000   0.65623141   -7.0040001    3873.9343         1762 
   45100   0.66266709   -6.9999373     3886.937         1817 
   45200   0.67714583   -7.0067692    3873.0462         1798 
   45300   0.67447078   -7.0151101    3865.3593         1837 
   45400   0.66303121    -7.013576    3864.6896         1820 
   45500   0.66085756   -7.0445444    3867.1538         1851 
   45600   0.67358115   -7.0436966    3872.4826         1849 
   45700   0.67585179   -7.0199392     3876.861         1828 
   45800   0.66401322    -7.020666    3873.1488         1863 
   45900   0.66496431   -7.0234252    3878.4973         1834 
   46000    0.6770794   -7.0196484    3874.6745         1853 
   46100   0.66401263   -7.0277153     3866.631         1830 
   46200   0.67312769   -7.0154551    3873.1956         1792 
   46300   0.67625693   -7.0162441    3871.0567         1846 
   46400   0.66939041    -7.016809    3867.5564         1855 
   46500   0.67683002   -6.9995609    3879.2111         1808 
   46600   0.67732156   -7.0211036    3871.5778         1756 
   46700   0.67540901   -7.0167466    3861.9082         1787 
   46800   0.66545257   -7.0466157    3864.9214         1822 
   46900   0.67868558   -7.0368286     3862.522         1824 
   47000   0.67425905   -7.0059769    3868.7499         1853 
   47100   0.67094557   -7.0503705     3878.831         1888 
   47200   0.66966859    -7.049535    3864.2484         1957 
   47300   0.67078453   -7.0151173    3866.8641         1915 
   47400   0.68319149   -7.0368228    3866.7697         1867 
   47500   0.67255314   -7.0628141    3866.1756         1900 
   47600   0.67744708   -7.0470977    3864.1737         1876 
   47700   0.67350367   -7.0132833    3871.1863         1865 
   47800   0.66657786   -7.0361775    3863.3945         1954 
   47900   0.67471044   -7.0512237    3861.8545         1979 
   48000   0.68462146   -7.0493595    3866.4323         1932 
   48100   0.67239592   -7.0572298    3866.4295         2001 
   48200   0.65678102   -7.0525194    3858.5868         1985 
   48300   0.67656265   -7.0630633    3862.7524         1958 
   48400   0.68130504   -7.0395078    3871.0056         1966 
   48500   0.67407804   -7.0414873    3862.1679         2009 
   48600   0.66258534       -7.036    3854.2682         2009 
   48700   0.68173183   -7.0708134    3866.6596         2021 
   48800   0.66279877   -7.0279878    3862.0825         2026 
   48900   0.67170675   -7.0681918    3869.5215         2095 
   49000   0.67433589   -7.0591421    3859.0404         2076 
   49100    0.6716364   -7.0657392    3846.8669         2051 
   49200   0.67554359   -7.0830851    3857.8097         2127 
   49300   0.67313283   -7.0548094    3873.2451         2098 
   49400   0.66693087   -7.0383545    3860.7842         2089 
   49500   0.66911413   -7.0665156    3850.3867         2106 
   49600   0.67388138   -7.0683934    3855.0956         2094 
   49700   0.66078713   -7.0472747    3865.0336         2141 
   49800   0.64818099   -7.0633572    3859.5788         2243 
   49900   0.66383503   -7.0561515    3856.0263         2156 
   50000   0.67033578    -7.062708    3854.1261         2215 
   50100     0.665892   -7.0864691    3861.1812         2215 
   50200   0.67152397   -7.0476774    3857.7747         2164 
   50300    0.6826839   -7.0497222    3863.3226         2162 
   50400   0.69386418   -7.0437432    3870.7276         2177 
   50500   0.68114195   -7.0652113    3860.0848         2240 
   50600   0.65923239    -7.054504    3861.6244         2235 
   50700   0.66928366   -7.0652668    3866.3055         2154 
   50800   0.67505932   -7.0662841    3855.0113         2140 
   50900   0.66518596   -7.0543421    3853.8606         2216 
   51000   0.67062981   -7.0658127    3862.7775         2255 
   51100   0.67046317    -7.054574    3858.9702         2202 
   51200   0.68042219   -7.0800677    3858.7984         2217 
   51300   0.67393622   -7.0398593    3858.8153         2172 
   51400   0.67527088   -7.0711449    3856.5083         2221 
   51500   0.66341337   -7.0528995    3858.2312         2213 
   51600   0.67336801   -7.0897032    3873.5819         2251 
   51700   0.67328693   -7.0842902    3853.4182         2306 
   51800   0.67275914   -7.0754756    3844.6028         2308 
   51900   0.67872443   -7.0828943    3854.8432         2311 
   52000   0.67504968   -7.0769381    3855.9278         2325 
   52100   0.65854966   -7.0833237    3855.0682         2368 
   52200   0.68221365   -7.0702812    3860.4185         2350 
   52300   0.67009901   -7.0624563     3858.539         2292 
   52400    0.6645021   -7.0810678    3849.4208         2309 
   52500   0.66714655   -7.0704501    3854.0348         2311 
   52600   0.67447346   -7.0678896    3862.0401         2295 
   52700     0.663207   -7.0887036    3851.6976         2347 
   52800   0.67011214   -7.0866386    3852.1909         2299 
   52900   0.68644681   -7.0748723    3864.2041         2269 
   53000   0.66296775   -7.0652318    3852.0567         2287 
   53100   0.67686705   -7.0876349    3850.5152         2405 
   53200   0.66521879   -7.0938076    3840.0085         2432 
   53300   0.66875684   -7.1016216    3850.3265         2418 
   53400   0.67413998   -7.0797854     3860.189         2385 
   53500   0.67244351    -7.095786    3855.3807         2370 
   53600    0.6691454   -7.0857753    3847.9404         2423 
   53700   0.66595301    -7.092183    3849.1447         2441 
   53800    0.6670906   -7.1014402    3844.4738         2430 
   53900    0.6604676   -7.0768246    3854.9228         2409 
   54000   0.67240386    -7.080834    3859.7721         2384 
   54100    0.6780325   -7.0979598    3852.5611         2421 
   54200   0.67565293   -7.0960549    3849.1101         2460 
   54300     0.669225   -7.1041377    3852.5529         2449 
   54400   0.67309795   -7.0698802    3845.4341         2407 
   54500   0.67975801    -7.083798    3849.8917         2407 
   54600   0.66783728   -7.1015178    3847.0213         2435 
   54700   0.67715015   -7.0878831      3854.04         2389 
   54800   0.66914871    -7.085915    3855.8075         2397 
   54900   0.66785076   -7.0957329    3859.3013         2335 
   55000   0.66616371    -7.074289    3844.1367         2427 
   55100   0.67573837   -7.0862005    3848.4532         2424 
   55200   0.67326191   -7.0973838    3848.2129         2415 
   55300   0.68369553   -7.1286953    3839.3543         2457 
   55400     0.662972   -7.0846519    3829.7888         2463 
   55500    0.6761351   -7.0993047    3852.7855         2437 
   55600    0.6611901   -7.1132824    3854.5108         2444 
   55700   0.66502471   -7.0996444    3836.2216         2469 
   55800   0.67966691   -7.0980577    3850.2604         2445 
   55900   0.66623667   -7.1015926    3851.5081         2457 
   56000   0.65319208   -7.0974817    3841.5104         2403 
   56100   0.66366413   -7.0834006    3849.4101         2428 
   56200   0.68601507   -7.0976546    3854.1895         2469 
   56300   0.66153946   -7.0805298    3844.2478         2443 
   56400   0.66022112   -7.0890672     3855.876         2423 
   56500   0.65270907   -7.0858846    3855.2598         2428 
   56600   0.66259632   -7.0641645    3851.0111         2468 
   56700   0.67347556   -7.0775828    3855.3955         2444 
   56800   0.66526847   -7.0952415    3848.3198         2483 
   56900   0.65993351   -7.0888972    3846.9608         2483 
   57000   0.67197218   -7.0981216    3854.9631         2483 
   57100   0.66287522   -7.0890518    3859.0971         2470 
   57200   0.66331111   -7.1002424    3852.9458         2477 
   57300   0.65450932   -7.1006267    3849.5456         2488 
   57400   0.66556296   -7.0940419    3853.9467         2463 
   57500   0.67697835   -7.0935565     3844.053         2473 
   57600   0.66346567   -7.1016279    3840.2791         2435 
   57700   0.66915116   -7.0960627    3858.0174         2413 
   57800   0.67928187   -7.0941313    3845.1111         2431 
   57900   0.65865821   -7.0872972    3847.7836         2427 
   58000   0.66368313    -7.086798    3864.3098         2448 
   58100   0.65212127    -7.086105     3860.562         2463 
   58200   0.67364989   -7.0994315    3845.2947         2535 
   58300   0.69125418   -7.0831117    3850.5919         2488 
   58400   0.65956062   -7.0888068    3853.4103         2502 
   58500   0.66559952   -7.1080532    3856.1324         2542 
   58600   0.67237564   -7.0787879    3839.8595         2501 
   58700   0.67508017    -7.075196    3844.3167         2462 
   58800   0.66446161   -7.0829927    3866.3036         2466 
   58900   0.65642213   -7.0863496     3847.636         2510 
   59000   0.65413642   -7.0869278    3845.1704         2491 
   59100   0.67337415   -7.1066577    3861.6074         2527 
   59200   0.67157261   -7.1022034    3852.8417         2510 
   59300   0.67120023   -7.1061934    3836.8757         2520 
   59400   0.66174796   -7.1105832    3837.4957         2572 
   59500   0.67909856   -7.1150786    3847.5092         2560 
   59600   0.67165367   -7.0927274    3851.2547         2581 
   59700   0.66290544   -7.1125416    3846.8572         2534 
   59800    0.6693287   -7.1094507    3850.6444         2600 
   59900    0.6702696   -7.0900272    3847.6661         2633 
   60000   0.67428432   -7.0911085    3835.9744         2632 
   60100   0.67581546    -7.126617    3840.4794         2595 
   60200   0.66423739   -7.1109532    3852.9185         2586 
   60300   0.66603621   -7.0935784    3856.7985         2521 
   60400   0.69143937   -7.0817907    3843.4311         2554 
   60500   0.67882097   -7.1029534    3838.4357         2582 
   60600   0.67670068   -7.1223267    3840.5083         2568 
   60700   0.66449675   -7.1301132     3847.396         2536 
   60800   0.67090097   -7.0918048    3845.6685         2565 
   60900   0.68775841   -7.1083295     3837.222         2597 
   61000   0.66985584   -7.1223119    3840.4563         2617 
   61100   0.65328881   -7.1158604    3843.5939         2662 
   61200   0.67089792   -7.1046485    3842.2599         2640 
   61300   0.66733734   -7.1287055    3848.5296         2648 
   61400   0.65221969    -7.107987    3845.9177         2608 
   61500   0.66918703   -7.1014009     3841.639         2585 
   61600   0.65339046   -7.1148546    3840.2931         2610 
   61700   0.66999034   -7.1411235    3842.5541         2637 
   61800   0.67701287   -7.1116363     3842.537         2665 
   61900   0.67465284   -7.1209036    3841.0601         2654 
   62000   0.67146206   -7.1230714    3835.3502         2694 
   62100   0.67028171   -7.1318679    3846.2069         2676 
   62200   0.67629736   -7.1152763    3856.3246         2622 
   62300   0.66478521    -7.101075    3835.0116         2684 
   62400   0.66686241   -7.1246537    3838.5808         2712 
   62500   0.67529939   -7.1301736    3844.5072         2712 
   62600   0.66928415   -7.1064473    3836.5894         2722 
   62700   0.66288059   -7.1277472    3831.7492         2717 
   62800   0.67348079   -7.1254378    3839.6566         2692 
   62900   0.66938848   -7.1121701     3844.509         2717 
   63000   0.65863926   -7.1291758     3854.147         2657 
   63100   0.66241035    -7.113345    3838.2849         2685 
   63200   0.67669004   -7.1094073    3831.0406         2706 
   63300   0.67125739   -7.1338694    3843.3084         2786 
   63400   0.66117704   -7.1312952    3843.1931         2740 
   63500   0.67520897   -7.1226428    3845.6419         2794 
   63600   0.66458299   -7.1179556     3838.303         2787 
   63700   0.68073435   -7.1294256    3837.1345         2819 
   63800   0.68175263    -7.112107    3854.0293         2742 
   63900   0.66371391   -7.1092493    3836.4383         2760 
   64000   0.67164658   -7.1314106    3832.8685         2784 
   64100   0.65482682   -7.1336088    3834.4162         2813 
   64200   0.67768598   -7.1269985     3837.951         2849 
   64300   0.66836834   -7.1434338    3844.9933         2813 
   64400   0.65410777   -7.1400324    3828.0712         2860 
   64500   0.66759602    -7.128569    3832.6198         2793 
   64600   0.67206581    -7.122919    3837.4312         2799 
   64700   0.66304119   -7.1463393    3840.1347         2857 
   64800   0.67368376    -7.128742    3835.8613         2852 
   64900   0.66596809   -7.1310298    3839.6231         2854 
   65000   0.66987497    -7.133617    3844.1721         2866 
   65100   0.68885268   -7.1096825    3831.3934         2851 
   65200   0.68015038   -7.1193796    3830.2564         2912 
   65300   0.67051413   -7.1580688    3840.5091         2940 
   65400   0.66320392   -7.1435872    3833.7053         2899 
   65500   0.66507784   -7.1107274    3834.9583         2881 
   65600      0.68433   -7.1426131    3838.9545         2880 
   65700   0.67078015   -7.1251081     3831.131         2892 
   65800   0.69047052   -7.1400226    3845.2382         2859 
   65900     0.664918   -7.1239769    3838.8584         2872 
   66000   0.66155935   -7.1243222    3835.9517         2849 
   66100   0.66925412   -7.1556774    3832.8294         2877 
   66200   0.66448851   -7.1321744    3822.3363         2904 
   66300   0.67860608    -7.138839    3836.0535         2888 
   66400    0.6674416   -7.1372584    3842.1842         2883 
   66500   0.66012933   -7.1570521    3831.7583         2917 
   66600    0.6696536   -7.1283339      3830.47         2921 
   66700   0.66433627   -7.1348102    3843.2769         2926 
   66800   0.65080488    -7.135529      3831.27         2963 
   66900   0.68148826   -7.1342293    3830.8671         2890 
   67000   0.66295874   -7.1178692    3834.7186         2868 
   67100   0.67810738   -7.1258452    3853.3279         2859 
   67200   0.66411618   -7.1090189    3835.9501         2921 
   67300   0.67451007   -7.1477475    3831.2163         2945 
   67400   0.65047433   -7.1615828    3846.2565         2962 
   67500    0.6713072   -7.1491611    3843.0797         2972 
   67600   0.67194633    -7.101596    3827.1382         2940 
   67700    0.6737358   -7.1344498    3838.4318         2968 
   67800   0.64817571    -7.133602    3835.0218         3010 
   67900   0.66522168    -7.133928    3836.1181         2998 
   68000   0.68027173   -7.1225008    3839.7506         2912 
   68100    0.6681292   -7.1113484    3836.6192         2917 
   68200   0.66729631   -7.1306065    3833.9501         2994 
   68300   0.66794205   -7.1725324    3837.8864         3061 
   68400   0.66541186   -7.1611821    3836.3841         3019 
   68500   0.67274837     -7.13585    3823.1998         3056 
   68600   0.68426121   -7.1395922    3839.3676         3059 
   68700   0.66176103   -7.1498833    3839.6796         3028 
   68800    0.6763869   -7.1526389    3833.9674         3094 
   68900   0.67629042   -7.1308181    3828.7217         3053 
   69000   0.67389522    -7.143882    3837.1736         3049 
   69100   0.67338992   -7.1782409    3833.4942         3030 
   69200   0.67150616   -7.1423173    3822.5626         2996 
   69300   0.66967632   -7.1330588    3831.4367         3008 
   69400   0.66127078   -7.1477144    3838.9214         3045 
   69500   0.65038888   -7.1483479    3835.5691         3106 
   69600   0.66948697   -7.1567046    3826.8778         3150 
   69700   0.67583301   -7.1397295    3827.8128         3058 
   69800   0.67611613   -7.1628257    3828.1046         3047 
   69900   0.66920994    -7.156445    3824.7969         3060 
   70000   0.66350352    -7.140847    3836.3656         3072 
   70100   0.66316533   -7.1467223    3834.7021         3084 
   70200   0.65010953   -7.1426433    3831.6592         3033 
   70300   0.67161734   -7.1578937    3834.1302         3092 
   70400   0.66808563   -7.1553829    3833.6783         3098 
   70500   0.66827662   -7.1384567    3823.6758         3114 
   70600   0.67077582   -7.1524925    3830.1989         3122 
   70700   0.66579728   -7.1389967    3829.6095         3086 
   70800   0.67113573   -7.1738858    3837.1042         3088 
   70900   0.67202582    -7.154154    3826.0165         3131 
   71000   0.68099756   -7.1683499    3820.3484         3173 
   71100   0.65889406   -7.1585003    3822.9958         3149 
   71200   0.68081325   -7.1655523    3837.2866         3151 
   71300   0.66665271   -7.1451419    3826.2601         3142 
   71400   0.66904179   -7.1621685    3822.8742         3161 
   71500   0.65470576   -7.1394809    3830.9541         3125 
   71600   0.67012578   -7.1472426    3835.9672         3138 
   71700   0.65623859   -7.1516388    3833.9102         3149 
   71800   0.65838622   -7.1785295    3830.2818         3141 
   71900   0.67583923    -7.173306    3814.6508         3149 
   72000   0.68792084   -7.1644997    3821.1813         3145 
   72100    0.6733506   -7.1635163    3837.8707         3088 
   72200   0.67378014    -7.164113    3825.7035         3169 
   72300   0.68263578   -7.1839324    3817.2812         3213 
   72400   0.66026857   -7.1748322    3822.3079         3218 
   72500   0.66787575   -7.1610599    3834.5531         3237 
   72600    0.6635423   -7.1601382    3831.8107         3241 
   72700   0.66477944   -7.1783335    3829.6574         3234 
   72800   0.65943258   -7.1622013    3815.7904         3243 
   72900   0.65806444   -7.1864168    3825.2293         3242 
   73000   0.66364374     -7.15836    3833.5353         3176 
   73100   0.66699059   -7.1498083    3819.4873         3244 
   73200   0.66848655   -7.1860683    3825.4834         3204 
   73300   0.66990422   -7.1581348    3829.2369         3235 
   73400   0.66120255   -7.1602005    3830.8852         3230 
   73500   0.66110677   -7.1740938    3828.8012         3208 
   73600   0.68678293   -7.1670105     3822.711         3178 
   73700   0.67411368   -7.1556707    3826.0675         3194 
   73800   0.67165843   -7.1826488    3823.8642         3226 
   73900   0.65305104   -7.1858018    3827.0165         3246 
   74000   0.67174218   -7.1735565    3831.4982         3201 
   74100   0.65987268    -7.155048    3829.4847         3200 
   74200   0.68334753   -7.1630814    3828.6138         3252 
   74300   0.66766884   -7.1702301    3831.2222         3225 
   74400   0.65478055   -7.1716445    3816.9492         3208 
   74500   0.67332831   -7.1831506     3820.826         3227 
   74600   0.66757138   -7.1690284    3827.8621         3210 
   74700   0.67362796   -7.1767389    3831.6108         3193 
   74800    0.6672365   -7.1783029    3821.4029         3210 
   74900   0.65963984   -7.1835299    3810.0876         3240 
   75000    0.6712952    -7.176305    3819.4631         3286 
   75100   0.67773347   -7.1924249    3830.5364         3261 
   75200   0.65278127   -7.1704872    3818.3772         3213 
   75300   0.67294303   -7.1840634    3825.4968         3233 
   75400   0.67462713   -7.1602242    3826.6229         3212 
   75500   0.66783706   -7.1488234     3815.541         3181 
   75600   0.67733778   -7.1801126     3822.374         3272 
   75700   0.66140547   -7.1858673     3822.405         3271 
   75800   0.66447274   -7.1586593    3826.7025         3224 
   75900   0.67223211   -7.1634874    3834.5246         3240 
   76000   0.66537038    -7.177357    3821.6836         3243 
   76100   0.66648707   -7.1771495    3818.5612         3249 
   76200   0.66010802   -7.1949343    3823.5878         3256 
   76300   0.66281283     -7.16741    3823.4132         3281 
   76400   0.66101687    -7.158054    3820.1328         3234 
   76500   0.66698822   -7.1605138    3826.3672         3263 
   76600   0.66933766   -7.1689174    3821.6875         3271 
   76700   0.66362585   -7.1791096     3823.264         3276 
   76800   0.66464092   -7.1545015    3830.5788         3221 
   76900   0.66851775   -7.1572645     3838.818         3207 
   77000   0.65569212   -7.1778916    3831.9891         3265 
   77100    0.6777354   -7.1748947    3816.1645         3262 
   77200   0.68634982   -7.1705437    3826.3227         3196 
   77300   0.67915981   -7.2034798    3828.2123         3279 
   77400   0.67206783   -7.1836188     3815.003         3293 
   77500   0.66658406   -7.1884418    3824.8321         3291 
   77600   0.66389215   -7.1815678    3829.5787         3278 
   77700   0.66137175   -7.1921899    3812.5476         3311 
   77800   0.67096561   -7.1825156    3822.1537         3295 
   77900    0.6730814   -7.1885011    3831.1025         3270 
   78000   0.65571396   -7.1831018    3817.0601         3326 
   78100    0.6710313   -7.1921175    3819.4606         3311 
   78200   0.67155464   -7.1793592    3810.4034         3311 
   78300   0.68537706   -7.2032567    3818.3485         3291 
   78400   0.68077382    -7.169505    3828.8059         3270 
   78500   0.66430746   -7.1795284    3824.6494         3258 
   78600   0.65727707   -7.1806086     3813.205         3295 
   78700   0.66580604   -7.1988187    3820.6238         3309 
   78800   0.67218908   -7.1934848    3824.3824         3313 
   78900   0.67085707   -7.1788515    3824.0329         3279 
   79000   0.67639411   -7.2140132    3815.4543         3289 
   79100   0.67321205   -7.1965396    3815.5527         3291 
   79200   0.67942005   -7.1836375    3822.1347         3305 
   79300    0.6603964    -7.185821    3820.5781         3293 
   79400   0.66308125   -7.2018097    3812.9945         3290 
   79500   0.67334609    -7.195522    3812.5261         3319 
   79600   0.66655239   -7.1807569     3820.439         3330 
   79700   0.65753172   -7.2102113    3819.9163         3289 
   79800   0.67433891   -7.1997051    3827.0555         3311 
   79900    0.6714813   -7.1693697    3813.6995         3337 
   80000   0.67768503   -7.2075413    3809.0864         3354 
   80100    0.6685843   -7.1886018    3822.7135         3324 
   80200   0.66211061    -7.181712    3825.2603         3312 
   80300    0.6686605   -7.1992888    3811.7921         3330 
   80400   0.66518372   -7.2027364    3801.9044         3334 
   80500     0.676573   -7.1989818    3822.4247         3344 
   80600   0.67192685   -7.2005878    3819.7162         3319 
   80700   0.66434073   -7.2029694    3805.0159         3333 
   80800   0.68183334   -7.1981925    3816.4275         3323 
   80900   0.65666473    -7.192105    3817.9667         3354 
   81000   0.66469457   -7.2081877    3826.5209         3362 
   81100   0.66149996    -7.200478     3820.823         3329 
   81200   0.67591827   -7.2072736    3803.0798         3359 
   81300   0.67818817   -7.1836382    3819.3742         3326 
   81400   0.67431231    -7.202562    3821.1209         3371 
   81500   0.67239195   -7.2031422    3811.9778         3375 
   81600   0.68077677   -7.2052475    3813.7893         3347 
   81700   0.68989676   -7.1902177    3815.4683         3346 
   81800   0.67320106   -7.2077747    3818.8071         3329 
   81900   0.64918061   -7.1906879    3815.2568         3335 
   82000   0.65385295   -7.2239455    3810.8362         3399 
   82100   0.66277188    -7.189778    3812.8608         3306 
   82200    0.6805225   -7.1945063    3817.5237         3314 
   82300   0.66390961   -7.2128617     3809.082         3352 
   82400   0.67010199   -7.2146356    3815.9363         3349 
   82500   0.67618884    -7.195856    3818.3261         3365 
   82600   0.66682155   -7.1879146    3809.7468         3388 
   82700    0.6695211   -7.2293423    3813.9001         3405 
   82800    0.6775619   -7.2224214    3807.6375         3416 
   82900    0.6719269   -7.1703073    3802.8913         3386 
   83000   0.69011962     -7.18788    3821.7249         3364 
   83100   0.67548786   -7.1964276    3816.8885         3336 
   83200   0.67366645   -7.2195831    3819.3938         3389 
   83300   0.66609824    -7.192587    3811.8306         3375 
   83400   0.67486368   -7.1901999    3811.6795         3370 
   83500   0.65412451   -7.1958176    3817.5175         3389 
   83600   0.68216707   -7.2073454    3819.9906         3368 
   83700   0.67685266   -7.1691892    3812.9934         3374 
   83800   0.66731158   -7.2046087    3817.9486         3362 
   83900    0.6705593   -7.2015174    3818.9346         3390 
   84000   0.68134663   -7.2064966    3814.5502         3404 
   84100   0.66716066   -7.2124672    3809.3041         3368 
   84200   0.67203669    -7.208252    3821.2416         3379 
   84300   0.68503952    -7.184499    3825.3797         3332 
   84400   0.68168464   -7.1966851    3809.2779         3366 
   84500   0.67586824   -7.2203526    3809.5265         3401 
   84600    0.6690414   -7.2275027    3819.7101         3393 
   84700   0.67134708   -7.1996204    3817.0138         3387 
   84800   0.66826834   -7.1953226    3819.2722         3361 
   84900   0.65805637   -7.1988216    3819.9339         3387 
   85000   0.67273979   -7.1972952     3810.578         3360 
   85100   0.65901445   -7.2117628    3810.8045         3355 
   85200   0.67539802   -7.2086045    3811.7787         3398 
   85300   0.68017191   -7.2190785     3817.123         3423 
   85400   0.67227221   -7.2095359     3807.684         3430 
   85500    0.6705251   -7.2260248      3809.58         3436 
   85600   0.66615789   -7.2239933    3820.3158         3439 
   85700   0.67901515   -7.2073291    3810.0038         3427 
   85800    0.6675895   -7.2048842    3803.1427         3389 
   85900    0.6716991   -7.1995067      3807.13         3376 
   86000   0.68156701   -7.1942618      3819.25         3397 
   86100   0.66485928    -7.204016     3818.554         3403 
   86200   0.66151397   -7.2064998    3813.3359         3383 
   86300   0.66483044   -7.1992212    3818.6712         3417 
   86400   0.68046326   -7.1980761    3818.3079         3408 
   86500   0.66378302   -7.1927984    3806.4167         3435 
   86600   0.67039722   -7.2292942    3825.2918         3442 
   86700    0.6806402   -7.1994369    3821.3655         3423 
   86800    0.6669698    -7.203377    3811.4697         3477 
   86900   0.67145694   -7.2155547    3807.9122         3495 
   87000   0.66533827   -7.2169344    3811.9011         3506 
   87100   0.66962945   -7.1955759    3820.2462         3475 
   87200   0.66963916   -7.2179717    3821.3277         3475 
   87300   0.67287936   -7.2140976    3807.9127         3486 
   87400   0.68759626   -7.1997762    3804.1994         3488 
   87500   0.66955012   -7.2072984    3816.5804         3458 
   87600   0.66826256    -7.214416    3818.5073         3481 
   87700   0.65781867   -7.2300325    3809.6003         3505 
   87800    0.6774067    -7.221745     3807.902         3499 
   87900   0.67595488   -7.1962905    3803.4021         3456 
   88000   0.67050568   -7.2050367    3805.6599         3498 
   88100   0.66358646   -7.2226379    3803.7722         3516 
   88200   0.65659774   -7.2148007    3817.9318         3466 
   88300   0.66140379   -7.1992612    3823.4004         3470 
   88400   0.66227337   -7.2059873    3817.9874         3450 
   88500    0.6778257   -7.2445762    3809.9033         3482 
   88600   0.65532031    -7.223957    3802.6145         3474 
   88700   0.67265137     -7.21296    3817.4282         3448 
   88800   0.66188083   -7.2011821    3817.9747         3449 
   88900   0.67546283   -7.2557144      3809.44         3463 
   89000   0.66580637   -7.2240625    3805.8375         3476 
   89100   0.67385125   -7.2165058    3811.3351         3432 
   89200   0.66261559   -7.2048404    3805.5317         3453 
   89300   0.67251611   -7.2310438    3812.4181         3446 
   89400   0.67537452   -7.2012724    3809.3371         3474 
   89500   0.69135967   -7.2088931    3803.7911         3476 
   89600   0.66072848    -7.209181    3809.6025         3454 
   89700   0.67820952   -7.2301535    3813.9266         3491 
   89800   0.65311465    -7.201927     3803.745         3459 
   89900   0.67690825   -7.2278512    3821.0673         3436 
   90000   0.66058974   -7.2227563    3826.0264         3436 
   90100   0.66341727   -7.2158268    3813.1164         3506 
   90200   0.66422977   -7.2398585    3807.9281         3515 
   90300   0.67111279    -7.213958    3802.0894         3501 
   90400   0.68052539   -7.2087865    3810.1787         3462 
   90500   0.66257106   -7.2050047    3803.1732         3489 
   90600   0.66207009   -7.2359087    3808.3019         3529 
   90700   0.66459373   -7.2271867    3811.9187         3513 
   90800    0.6693607   -7.2123156    3815.5327         3521 
   90900    0.6533535   -7.2091445    3802.1282         3532 
   91000   0.66729981   -7.2289404    3810.1176         3560 
   91100   0.67515573   -7.2190023    3825.5019         3572 
   91200   0.66625764   -7.2131846    3800.0201         3544 
   91300   0.68152288    -7.224584    3803.0737         3525 
   91400   0.66459914    -7.227569    3813.8183         3569 
   91500   0.68520023   -7.2468913    3814.8846         3561 
   91600   0.66459787    -7.229078    3794.8577         3576 
   91700   0.67593866   -7.2392153    3808.7811         3592 
   91800   0.66422196   -7.2144312    3813.0865         3554 
   91900   0.68065806   -7.2336919    3804.7805         3619 
   92000   0.67813038   -7.2319786    3803.5054         3623 
   92100   0.66698437   -7.2245613    3799.4865         3634 
   92200   0.66861188   -7.2433307    3813.5051         3614 
   92300   0.66558746   -7.2246953    3815.8095         3550 
   92400   0.66403657   -7.2351778    3811.7549         3579 
   92500   0.66837689   -7.2250436    3801.4051         3565 
   92600   0.67293494   -7.2306523    3799.7221         3586 
   92700    0.6699789   -7.2496273    3799.9623         3597 
   92800   0.66302624   -7.2322721    3806.3405         3589 
   92900   0.67067436   -7.2176383    3810.9706         3550 
   93000   0.66505795   -7.2425797    3814.8844         3589 
   93100   0.65556592   -7.2460486    3796.5208         3600 
   93200   0.66382263   -7.2361972    3790.1969         3582 
   93300     0.657327   -7.2275385    3808.0374         3549 
   93400   0.66314136   -7.2342022    3818.9677         3509 
   93500   0.67016464   -7.2266351    3814.9398         3537 
   93600   0.66302214   -7.2252851    3809.1125         3572 
   93700   0.65829611   -7.2539238    3806.2022         3609 
   93800   0.66727743   -7.2615924    3793.7937         3573 
   93900   0.67095279   -7.2356752    3796.4901         3615 
   94000   0.65837782   -7.2153062    3810.5018         3586 
   94100   0.68249407   -7.2203521    3809.3317         3555 
   94200   0.67360734   -7.2343354    3799.8049         3630 
   94300   0.66575812   -7.2277279    3806.2041         3598 
   94400   0.68060051   -7.2398932    3814.3044         3593 
   94500   0.67294699   -7.2360831    3798.9695         3653 
   94600    0.6534321   -7.2251692    3803.4792         3634 
   94700   0.66460693   -7.2239276    3809.5094         3619 
   94800   0.65872591   -7.2574587    3803.3523         3635 
   94900   0.66784261   -7.2389105    3804.1907         3648 
   95000   0.66911772   -7.2386438    3805.8619         3604 
   95100   0.67778391   -7.2443559    3803.0383         3584 
   95200   0.66077243   -7.2288524    3793.0376         3627 
   95300    0.6852118   -7.2527277    3806.3908         3591 
   95400   0.67003093   -7.2530313    3802.5558         3584 
   95500   0.66356782   -7.2332467    3798.3259         3587 
   95600   0.66724216    -7.238124    3811.2466         3588 
   95700   0.68964082   -7.2335653    3810.6306         3581 
   95800   0.66912782   -7.2334241    3802.4116         3562 
   95900   0.66586608   -7.2444308    3798.4983         3601 
   96000   0.66016425   -7.2463811    3802.8886         3582 
   96100   0.67633021   -7.2362294    3811.4843         3609 
   96200   0.66814806   -7.2513946     3805.941         3606 
   96300   0.67485997   -7.2511472    3796.3524         3611 
   96400    0.6834753    -7.247323     3787.451         3607 
   96500   0.68569729   -7.2605224    3799.6737         3598 
   96600   0.68115529   -7.2428893    3804.5116         3562 
   96700   0.67136948   -7.2690285    3799.8919         3595 
   96800   0.66435401   -7.2459714    3794.3519         3610 
   96900   0.66664618   -7.2406597    3799.3521         3596 
   97000   0.67099394   -7.2460922    3805.5801         3599 
   97100   0.66365236   -7.2515157    3797.1897         3584 
   97200   0.67607467   -7.2486529    3796.2581         3597 
   97300   0.68922895   -7.2565628    3799.3343         3552 
   97400   0.66952026   -7.2531405    3793.7549         3565 
   97500   0.66367123   -7.2476527    3799.1164         3575 
   97600   0.67592367   -7.2598504     3816.189         3562 
   97700   0.67742325   -7.2521758    3797.9827         3592 
   97800    0.6736594   -7.2439567    3786.1939         3590 
   97900   0.66765561   -7.2530818    3806.0036         3589 
   98000   0.67434576   -7.2676485    3815.1825         3580 
   98100   0.67180391   -7.2387234    3784.8475         3599 
   98200   0.66927166   -7.2818453    3793.8217         3610 
   98300   0.66385378   -7.2538927    3808.5946         3578 
   98400   0.66124956   -7.2576699    3798.6915         3603 
   98500   0.67388862   -7.2486176    3796.3791         3606 
   98600   0.68378419   -7.2538177     3804.584         3618 
   98700   0.66566157   -7.2440763    3795.0963         3600 
   98800   0.67295301   -7.2656622    3799.1995         3597 
   98900   0.65846269   -7.2543324    3788.7909         3591 
   99000   0.66893121   -7.2426176    3799.8362         3561 
   99100   0.65676806   -7.2405703    3807.2444         3533 
   99200   0.65286294   -7.2761373    3802.2233         3575 
   99300   0.66473055   -7.2607446    3794.1329         3592 
   99400   0.67085582   -7.2490803     3798.251         3577 
   99500   0.67293449   -7.2495669    3805.6147         3569 
   99600   0.66350491   -7.2507833    3799.5529         3537 
   99700   0.67328617   -7.2782222    3805.0712         3545 
   99800   0.66105253   -7.2457605    3795.4807         3538 
   99900   0.66499764   -7.2805483    3801.9887         3607 
  100000   0.68186532   -7.2628039    3803.1215         3607 
  100100   0.67863731   -7.2507137    3795.2277         3581 
  100200   0.65835179   -7.2577413    3793.7757         3625 
  100300   0.68243777   -7.2580135    3795.9538         3623 
  100400   0.68034214   -7.2529934    3804.7758         3611 
  100500   0.67737084   -7.2726594    3796.3281         3625 
  100600   0.66716424   -7.2680576    3795.9836         3596 
  100700   0.68616557   -7.2551415    3794.2278         3590 
  100800   0.67458429   -7.2694558    3796.8738         3553 
  100900   0.66809067    -7.277759    3798.7388         3544 
  101000    0.6688812   -7.2577441    3801.7852         3576 
  101100   0.66800208   -7.2560206    3789.6727         3576 
  101200   0.65845195   -7.2666575    3793.0267         3549 
  101300   0.67432978   -7.2599907    3804.9774         3596 
  101400   0.66577547   -7.2565683    3799.1042         3535 
  101500   0.66551985   -7.2778008    3795.8714         3567 
  101600   0.66290606   -7.2526873    3803.3737         3548 
  101700   0.67384649   -7.2484823    3798.5209         3587 
  101800   0.66892656   -7.2682507    3792.5564         3602 
  101900   0.65911623   -7.2606054    3792.3337         3587 
  102000   0.67678336   -7.2681278    3814.4423         3555 
  102100   0.66943005   -7.2443578    3797.5802         3560 
  102200   0.66815383   -7.2615073     3797.234         3573 
  102300   0.65806604   -7.3064041    3806.1781         3606 
  102400   0.66252208   -7.2554998     3788.962         3582 
  102500   0.67524444   -7.2647685    3794.4823         3658 
  102600   0.66965838   -7.2832722     3797.852         3651 
  102700   0.67080532    -7.266598     3798.738         3642 
  102800   0.67033474   -7.2655599    3799.1691         3625 
  102900   0.66736535   -7.2715103    3801.2599         3626 
  103000   0.66421013   -7.2483224    3791.6377         3622 
  103100   0.66290098     -7.28763     3788.019         3659 
  103200   0.65326976   -7.2729277    3802.0724         3667 
  103300   0.65689148   -7.2720912    3809.2775         3670 
  103400     0.670454   -7.2429312    3794.8274         3707 
  103500   0.67296289   -7.2809131    3791.7907         3695 
  103600   0.67226572   -7.2815458    3790.6641         3683 
  103700   0.66286104    -7.263889    3789.1744         3664 
  103800   0.66596464   -7.2693975    3794.5398         3678 
  103900   0.66697986   -7.2745892    3793.3391         3657 
  104000   0.66333395   -7.2458614    3797.2011         3678 
Loop time of 343.478 on 20 procs for 100000 steps with 4000 atoms

Performance: 50308.857 tau/day, 291.139 timesteps/s
99.9% CPU use with 20 MPI tasks x no OpenMP threads

MPI task timing breakdown:
Section |  min time  |  avg time  |  max time  |%varavg| %total
---------------------------------------------------------------
Pair    | 31.49      | 33.65      | 35.882     |  21.6 |  9.80
Neigh   | 3.0168     | 3.1494     | 3.2729     |   3.9 |  0.92
Comm    | 12.499     | 14.913     | 17.06      |  33.8 |  4.34
Output  | 8.9626     | 8.9644     | 8.98       |   0.1 |  2.61
Modify  | 276.86     | 279.19     | 281.12     |   7.7 | 81.28
Other   |            | 3.61       |            |       |  1.05

Nlocal:        200.000 ave         207 max         193 min
Histogram: 1 0 7 1 3 1 1 2 1 3
Nghost:        2476.70 ave        2493 max        2453 min
Histogram: 1 1 1 2 0 3 5 1 4 2
Neighs:        24240.5 ave       26219 max       22632 min
Histogram: 4 2 2 1 1 2 4 1 1 2
FullNghs:      48482.8 ave       50454 max       47194 min
Histogram: 5 2 4 1 0 2 2 1 1 2

Total # of neighbors = 969655
Ave neighs/atom = 242.41375
Neighbor list builds = 4886
Dangerous builds = 0

#clear
#
#next RN
#
#jump SELF
Total wall time: 0:05:45
