
units lj                  # Use reduced LJ style units
atom_style atomic         # Uncharged point particles
atom_modify map hash      # Needed for indexing of clusters etc
                          # Used to be able to find where atoms are in relation to each other.

# Define a lattice with which to populate the simulation cell. With units
# set to 'lj' the second argument to the lattice command is the reduced
# density rho* and the spacings are multiples of that required to acheive
# that density. Also define a simulation cell called 'box' in lattice units
# and fill it with atoms. Here we're creating a box which is ten lattice
# constants in each direction.
lattice fcc 1.0 spacing 1 1 1                 # All equal sizes - gives the right reduced density.
Lattice spacing in x,y,z = 1.5874011 1.5874011 1.5874011

region box block 0 10 0 10 0 10 units lattice # Defines a region, "box", in lattice units
create_box 1 box                              # Creates a simulation box as specified above,
Created orthogonal box = (0.0000000 0.0000000 0.0000000) to (15.874011 15.874011 15.874011)
  3 by 4 by 4 MPI processor grid
                                              # with one type of atom
create_atoms 1 box                            # Creates particles on lattice points
Created 4000 atoms
  using lattice units in orthogonal box = (0.0000000 0.0000000 0.0000000) to (15.874011 15.874011 15.874011)
  create_atoms CPU = 0.002 seconds


# Set the mass of the first (and only) atom type.
mass 1 1.0

# Lennard-Jones interactions between particles, 3.5 sigma cut-off. Apply
# long range tail corrections to energy and pressure and set all coefficients
# to unity since we work in reduced units here. Note that this doesn't shift
# the potential such that it goes to zero at the cutoff. That would require
# pair_modify('shift', 'yes').
pair_style lj/cut  3.5      # non-GPU version
pair_modify tail  yes
pair_coeff 1  1  1.0  1.0   # Intearaction between 1 and 1 set with epsilon = 1 and sigma = 1

write_data data.*
System init for write_data ...
Neighbor list info ...
  update every 1 steps, delay 10 steps, check yes
  max neighbors/atom: 2000, page size: 100000
  master list distance cutoff = 3.8
  ghost atom cutoff = 3.8
  binsize = 1.9, bins = 9 9 9
  1 neighbor lists, perpetual/occasional/extra = 1 0 0
  (1) pair lj/cut, perpetual
      attributes: half, newton on
      pair build: half/bin/atomonly/newton
      stencil: half/bin/3d
      bin: standard

#############################
#   M E L T   S Y S T E M   #
#############################

velocity all create 2.4 5833274 mom yes dist gaussian # Assign velocities
                                                    # Temperature 2.4, random number seed, zero linear momentum
						                                                        # Gaussian distribution

timestep 0.002   # simulation timestep
thermo 1000       # output thermodynamic data every 1000 steps

# Define a fix  in this case with index 1 applied to all
# particles in the simulation. This fix is for simulations
# in the anisotropic NPT ensemble. Note that we use the MTK
# correction.
fix 1 all npt temp 2.4 2.4 0.1 iso 5.68 5.68 0.5 mtk yes tchain 5 pchain 5 # Use NPT ensemble
                                                                         # Set temperature and pressure and damping
                                                                         # Numbers of thermostats in chain and in barostat
run 1000         # run for 10000 steps
Per MPI rank memory allocation (min/avg/max) = 3.642 | 3.644 | 3.648 Mbytes
Step Temp E_pair E_mol TotEng Press Volume 
       0          2.4   -8.3859253            0   -4.7868253   -2.2405722         4000 
    1000    2.3797751   -4.4966384            0  -0.92786813    5.4591985    5168.8144 
Loop time of 0.218064 on 48 procs for 1000 steps with 4000 atoms

Performance: 792428.175 tau/day, 4585.811 timesteps/s
99.4% CPU use with 48 MPI tasks x no OpenMP threads

MPI task timing breakdown:
Section |  min time  |  avg time  |  max time  |%varavg| %total
---------------------------------------------------------------
Pair    | 0.089843   | 0.10013    | 0.11024    |   1.4 | 45.92
Neigh   | 0.01723    | 0.018773   | 0.020314   |   0.5 |  8.61
Comm    | 0.063453   | 0.074995   | 0.087137   |   1.8 | 34.39
Output  | 2.4729e-05 | 2.554e-05  | 3.1652e-05 |   0.0 |  0.01
Modify  | 0.020186   | 0.022601   | 0.025905   |   1.0 | 10.36
Other   |            | 0.001542   |            |       |  0.71

Nlocal:        83.3333 ave          95 max          76 min
Histogram: 5 3 8 10 11 3 4 3 0 1
Nghost:        1390.04 ave        1421 max        1371 min
Histogram: 5 8 6 7 8 4 4 3 1 2
Neighs:        7371.42 ave        8414 max        6707 min
Histogram: 8 7 3 4 13 5 4 1 0 3

Total # of neighbors = 353828
Ave neighs/atom = 88.457000
Neighbor list builds = 87
Dangerous builds = 16

# Equilibrate just above the melting temperature to avoid step fn in T

fix 1 all npt temp 1.25 1.25 0.1 iso 5.68 5.68 0.5 mtk yes tchain 5 pchain 5
run 1000
Per MPI rank memory allocation (min/avg/max) = 3.642 | 3.644 | 3.648 Mbytes
Step Temp E_pair E_mol TotEng Press Volume 
    1000    2.3797751   -4.4966384            0  -0.92786813    5.4591985    5168.8144 
    2000    1.2516439   -5.8169213            0   -3.9399248    5.7560827    4346.0008 
Loop time of 0.216988 on 48 procs for 1000 steps with 4000 atoms

Performance: 796358.134 tau/day, 4608.554 timesteps/s
99.6% CPU use with 48 MPI tasks x no OpenMP threads

MPI task timing breakdown:
Section |  min time  |  avg time  |  max time  |%varavg| %total
---------------------------------------------------------------
Pair    | 0.094236   | 0.10016    | 0.11739    |   1.0 | 46.16
Neigh   | 0.015479   | 0.01612    | 0.018754   |   0.4 |  7.43
Comm    | 0.055859   | 0.075129   | 0.0809     |   1.5 | 34.62
Output  | 2.4332e-05 | 2.4885e-05 | 3.1047e-05 |   0.0 |  0.01
Modify  | 0.020404   | 0.023578   | 0.027105   |   1.3 | 10.87
Other   |            | 0.001979   |            |       |  0.91

Nlocal:        83.3333 ave          89 max          74 min
Histogram: 1 1 1 3 8 4 13 5 8 4
Nghost:        1549.94 ave        1572 max        1533 min
Histogram: 3 3 10 7 6 10 5 1 1 2
Neighs:        8760.96 ave        9501 max        7906 min
Histogram: 1 3 6 6 7 6 6 5 3 5

Total # of neighbors = 420526
Ave neighs/atom = 105.13150
Neighbor list builds = 74
Dangerous builds = 4


# Small amount of linear quench

fix 1 all npt temp 1.25 ${temp} 0.1 iso 5.68 5.68 0.5 mtk yes tchain 5 pchain 5
fix 1 all npt temp 1.25 1.11 0.1 iso 5.68 5.68 0.5 mtk yes tchain 5 pchain 5
run 2000
Per MPI rank memory allocation (min/avg/max) = 3.643 | 3.645 | 3.648 Mbytes
Step Temp E_pair E_mol TotEng Press Volume 
    2000    1.2516439   -5.8169213            0   -3.9399248    5.7560827    4346.0008 
    3000    1.1797893   -5.9720238            0   -4.2027822    5.6222776    4290.3439 
    4000    1.1450618   -6.0274726            0   -4.3103092     5.815678    4246.7775 
Loop time of 0.440067 on 48 procs for 2000 steps with 4000 atoms

Performance: 785334.839 tau/day, 4544.762 timesteps/s
99.7% CPU use with 48 MPI tasks x no OpenMP threads

MPI task timing breakdown:
Section |  min time  |  avg time  |  max time  |%varavg| %total
---------------------------------------------------------------
Pair    | 0.19603    | 0.21182    | 0.24094    |   1.4 | 48.13
Neigh   | 0.028427   | 0.029367   | 0.033407   |   0.4 |  6.67
Comm    | 0.11647    | 0.14996    | 0.16819    |   2.1 | 34.08
Output  | 4.5274e-05 | 4.694e-05  | 5.8909e-05 |   0.0 |  0.01
Modify  | 0.039377   | 0.044218   | 0.052217   |   1.7 | 10.05
Other   |            | 0.00466    |            |       |  1.06

Nlocal:        83.3333 ave          89 max          77 min
Histogram: 2 3 2 4 7 14 8 4 1 3
Nghost:        1581.71 ave        1599 max        1569 min
Histogram: 5 8 5 4 6 5 6 5 2 2
Neighs:        8965.98 ave        9562 max        8091 min
Histogram: 2 1 4 1 9 5 6 9 8 3

Total # of neighbors = 430367
Ave neighs/atom = 107.59175
Neighbor list builds = 130
Dangerous builds = 0

#############################
# F R E E Z E  S Y S T E M  #
#############################

# Define solid atoms. This closely follows ten Wolde  Ruiz-Montero and Frenkel  Faraday Discuss  1996  104  93-110
# Compute components of the per-atom q6 vector
compute q6 all orientorder/atom degrees 1 6 components 6 nnn NULL cutoff 1.3 # compute the Q6 parameter.
                                                                             # Use all neighbours within 1.3 unit cell.

# get number of connections
compute coord_number all coord/atom orientorder q6 0.5

# An atom is solid if it has 8 or more connections (of a possible 14)
variable is_solid atom c_coord_number>=8
group solid dynamic all var is_solid    # Must be dynamic to update
dynamic group solid defined

# do clustering
compute cluster solid cluster/atom 1.3 # Create a cluster where all atoms within are solid and max 1.3 units from another member

# define chunks one chunk per cluster
compute clus_chunks solid chunk/atom c_cluster nchunk every compress yes  # Says which atoms are in which chunk

# count the size of each chunk
compute size_chunks solid property/chunk clus_chunks count


# Find the maximum entry in the vector of chunk sizes
variable max_n equal max(c_size_chunks)


# Thermo style which includes this variable
thermo_style custom step temp pe vol v_max_n

thermo ${N}  # Print the thermo information every 100 steps
thermo 1000  

# Reset the npt fix at a lower temperature (below freezing)
fix 1  all npt temp  ${temp} ${temp}  0.1  iso  5.68  5.68  0.5  mtk yes tchain  5  pchain  5
fix 1  all npt temp  1.11 ${temp}  0.1  iso  5.68  5.68  0.5  mtk yes tchain  5  pchain  5
fix 1  all npt temp  1.11 1.11  0.1  iso  5.68  5.68  0.5  mtk yes tchain  5  pchain  5

dump dmp2 all dcd ${N} traj_${rand}.dcd
dump dmp2 all dcd 1000 traj_${rand}.dcd
dump dmp2 all dcd 1000 traj_462431.dcd


# fix rnuntil all halt ${N} v_max_n >= 3980 error soft message no   # Stop when solidified


run 1000000 # 5000000  # Run for this many steps
Neighbor list info ...
  update every 1 steps, delay 10 steps, check yes
  max neighbors/atom: 2000, page size: 100000
  master list distance cutoff = 3.8
  ghost atom cutoff = 3.8
  binsize = 1.9, bins = 9 9 9
  4 neighbor lists, perpetual/occasional/extra = 1 3 0
  (1) pair lj/cut, perpetual
      attributes: half, newton on
      pair build: half/bin/atomonly/newton
      stencil: half/bin/3d
      bin: standard
  (2) compute orientorder/atom, occasional
      attributes: full, newton on
      pair build: full/bin/atomonly
      stencil: full/bin/3d
      bin: standard
  (3) compute coord/atom, occasional
      attributes: full, newton on
      pair build: full/bin/atomonly
      stencil: full/bin/3d
      bin: standard
  (4) compute cluster/atom, occasional
      attributes: full, newton on
      pair build: full/bin/atomonly
      stencil: full/bin/3d
      bin: standard
Per MPI rank memory allocation (min/avg/max) = 9.360 | 9.364 | 9.369 Mbytes
Step Temp PotEng Volume v_max_n 
    4000    1.1450618   -6.0274726    4246.7775            2 
    5000    1.1054308   -6.0751001     4226.646            4 
    6000    1.0902816   -6.0810845    4236.7932            6 
    7000     1.105511   -6.0702065      4243.87            6 
    8000    1.0908099   -6.0495374     4226.564            3 
    9000    1.1184328   -6.1166298    4202.8097            4 
   10000    1.1053805   -6.0589849    4240.9041            5 
   11000    1.1048787   -6.0662301    4249.4298            6 
   12000    1.1209488   -6.0609693    4243.4586            3 
   13000    1.1112213   -6.0415263    4232.8801            4 
   14000    1.1243796   -6.0422153    4236.3837            5 
   15000    1.1096305   -6.0649918    4236.0357            2 
   16000      1.11641   -6.1028445    4242.1682            6 
   17000    1.1072962   -6.0526584    4244.4766            3 
   18000    1.1292217   -6.0618552    4229.0541            4 
   19000     1.096333   -6.0657579     4242.189            4 
   20000    1.1144745   -6.0645176     4241.701            7 
   21000    1.1076487   -6.0562794    4237.0461            4 
   22000    1.0942959   -6.0802549    4226.0139            3 
   23000    1.1010435   -6.0739833     4213.762            8 
   24000    1.0961597   -6.0468277    4239.7842            4 
   25000    1.1000466   -6.0612459    4224.6654            3 
   26000     1.117945   -6.0885961    4238.0656            4 
   27000     1.112661   -6.0879875    4246.4736            5 
   28000    1.1032128   -6.0546211    4243.1405            3 
   29000    1.1123344   -6.0995563    4229.0321            5 
   30000    1.1362291   -6.0642064    4232.1695            5 
   31000    1.0989449   -6.0973935    4223.5454            4 
   32000    1.1074973   -6.0535478    4229.8254            9 
   33000     1.120025   -6.0780787    4246.0054            2 
   34000    1.1217101     -6.04436    4244.3259            3 
   35000    1.1262329   -6.0987438    4222.3159            5 
   36000    1.1271969   -6.0703919    4226.1639            4 
   37000    1.1008245   -6.0594805     4240.258            5 
   38000    1.1031417   -6.0948439     4238.717            6 
   39000    1.1185815   -6.0579579    4255.4074           11 
   40000    1.1177313   -6.0959108    4238.2125            5 
   41000    1.1035598    -6.097855    4247.7969           10 
   42000    1.0884764   -6.0468059    4259.8998            3 
   43000    1.1112257   -6.0461095    4240.2164            5 
   44000    1.1091857   -6.1022981    4221.6064            1 
   45000    1.1117428   -6.0908032    4222.7845            4 
   46000    1.1091234   -6.1183662    4237.0155            2 
   47000    1.1176705    -6.125855    4234.3894            5 
   48000    1.1142313   -6.1062496    4229.2305            3 
   49000    1.1059245   -6.0726645    4217.1452            6 
   50000    1.1120766   -6.0959002    4219.6381            2 
   51000    1.1176374    -6.095029     4232.021            3 
   52000    1.1174493    -6.041838     4226.661            4 
   53000    1.1263631     -6.04427    4237.0043            4 
   54000    1.1117807   -6.0596545    4234.7039            4 
   55000    1.1091922   -6.0894097    4242.3231            3 
   56000    1.0861737   -6.0411383    4231.9078            3 
   57000    1.1143352    -6.037798    4236.3033            4 
   58000    1.1403976   -6.0264867    4237.4487            5 
   59000    1.1310681   -6.0559454    4240.9883            4 
   60000    1.1119269   -6.0421397    4246.6988            7 
   61000     1.100424   -6.1025885    4235.4123            5 
   62000     1.125457   -6.0593357    4258.7056            4 
   63000    1.1107637   -6.0811001    4249.6461            4 
   64000    1.0961706   -6.1013526    4216.2644            4 
   65000    1.1221329   -6.0903981    4237.4361            4 
   66000      1.13535   -6.0475364    4249.7318            7 
   67000    1.1198821   -6.0761591    4231.4848            6 
   68000    1.0874831   -6.0609198    4222.9211            2 
   69000    1.0820242   -6.0678628    4220.4316            4 
   70000    1.0850755   -6.0528176    4251.2436            6 
   71000    1.1016139   -6.1085538    4220.6759            4 
   72000    1.1114811   -6.0845534    4244.7969            4 
   73000    1.1053632   -6.0908111    4216.4856            8 
   74000    1.1246401   -6.0626742    4239.6543            8 
   75000    1.1365448   -6.0740466    4220.9121            5 
   76000    1.1139702   -6.0621088    4226.9566            6 
   77000    1.0970483   -6.0918937    4220.6333            3 
   78000    1.1123384   -6.0870101    4236.0285            7 
   79000    1.0942982   -6.1048788    4243.7339            5 
   80000    1.1168866   -6.0718463     4253.035           10 
   81000    1.1076574   -6.1002916    4234.0282            4 
   82000    1.1020628   -6.0783676    4226.6561            2 
   83000    1.1086723   -6.0854004     4227.865            3 
   84000      1.11124   -6.0622489    4237.5576            5 
   85000    1.0924594   -6.0759081    4224.1906            4 
   86000    1.1133032   -6.0640456    4249.9175            2 
   87000    1.1293936   -6.0573039    4247.3683            2 
   88000    1.0885593   -6.0998939    4233.5768            3 
   89000    1.1085179   -6.0485777    4233.7536            5 
   90000    1.1053225   -6.0392173    4243.2246            2 
   91000    1.1200316   -6.0666036    4246.8072            7 
   92000    1.0961151   -6.0784136    4229.3702            4 
   93000    1.0990631   -6.0809354    4213.4643            3 
   94000    1.1000054   -6.0693053     4227.923            4 
   95000    1.1577152   -6.0827171    4232.2253            7 
   96000    1.1130873   -6.0708734    4233.8566            3 
   97000    1.1197457   -6.0841938    4228.2114            4 
   98000    1.1083522   -6.0839223    4233.3137            6 
   99000    1.1013131   -6.0598159    4229.9368            3 
  100000    1.1210693   -6.0962012    4226.4112            4 
  101000    1.0965638   -6.1167562    4227.4152            5 
  102000     1.115627   -6.1004913    4232.5683            6 
  103000    1.0952945   -6.1272103    4237.7262            8 
  104000    1.1073674   -6.0892933    4228.8301            4 
  105000    1.1069505   -6.0772791    4238.4049            3 
  106000    1.1065388   -6.0960903    4232.8291            3 
  107000    1.1335056   -6.0681654    4237.4854            5 
  108000    1.0969391   -6.0617708    4222.2298            3 
  109000    1.1122623   -6.0388317    4255.5488            8 
  110000    1.1366718   -6.1019147    4223.4196            3 
  111000    1.0995208   -6.0953647    4235.0252            5 
  112000    1.0982264   -6.0778604    4237.6802            4 
  113000    1.1010581   -6.0765795    4232.7666            7 
  114000    1.1335872   -6.0405938    4234.2048            2 
  115000    1.0954259   -6.1019414    4227.8698            7 
  116000    1.1184695   -6.0711972    4238.6395            5 
  117000    1.0953501   -6.0654143    4235.0274            6 
  118000    1.1239998   -6.0820974    4243.0686            4 
  119000    1.1138099   -6.0663622    4206.7615            3 
  120000    1.1337951   -6.1148096    4227.6597            8 
  121000    1.1255143   -6.0775428     4227.386            4 
  122000    1.1043736   -6.0528222    4236.9249            2 
  123000     1.098632   -6.0802604    4237.7122            5 
  124000    1.1291822   -6.0878847    4241.8595            5 
  125000    1.1092849   -6.0842492     4239.948            7 
  126000    1.1154178   -6.0283107    4253.0795            4 
  127000    1.1233077   -6.0729267    4224.9632            2 
  128000    1.1284859   -6.0388081    4231.5224            3 
  129000    1.1250117    -6.095606    4241.7371            9 
  130000    1.1158187   -6.0840195    4224.3777            4 
  131000    1.1104333   -6.1200122    4236.6271            7 
  132000    1.0876161   -6.0678474    4233.4264            6 
  133000    1.0954382   -6.0707045    4240.1861            7 
  134000    1.1025233   -6.0319297     4251.248            4 
  135000    1.1166598   -6.0746493    4227.5931            3 
  136000    1.0972395   -6.0819581    4234.3677            4 
  137000    1.1195827   -6.0931352    4229.0509            3 
  138000    1.1185056   -6.0734333     4230.183            5 
  139000    1.1007467   -6.0518611    4254.7076            6 
  140000    1.1020017   -6.0248689    4245.5137            3 
  141000    1.1293541   -6.0483159    4251.2921            1 
  142000     1.135939   -6.1045105    4232.7185            3 
  143000    1.1151183   -6.0648382    4252.3636            9 
  144000    1.1106207   -6.0914408    4254.4643            6 
  145000    1.1026799   -6.0540339    4235.2536            8 
  146000      1.11139   -6.0054253     4258.072            2 
  147000    1.0976216   -6.1165586     4246.342            6 
  148000    1.1311846   -6.0931801    4242.4499            5 
  149000     1.096335    -6.056403    4236.2207            5 
  150000    1.1096153   -6.0582691    4233.4435            4 
  151000    1.1119785   -6.1213123    4222.3849            6 
  152000    1.0974668   -6.0843785     4230.428            4 
  153000    1.1144438   -6.0589433    4246.9074            2 
  154000    1.1144232   -6.0978999    4236.4375            6 
  155000    1.0972242   -6.0665003    4227.7482           13 
  156000    1.0847528   -6.0605913    4230.7788           12 
  157000     1.109765   -6.0615714    4249.1484            3 
  158000    1.1087375   -6.0982234     4228.795            3 
  159000    1.1154108   -6.1006237    4229.1969            3 
  160000    1.1109491   -6.0843761    4251.7428            5 
  161000    1.1159681    -6.086404    4226.7874            2 
  162000    1.0965968   -6.0705654    4229.0907            7 
  163000    1.1138145   -6.0743315      4244.11            5 
  164000    1.1092262    -6.054474    4232.9924            6 
  165000    1.1254156   -6.1223618    4226.7368            9 
  166000    1.1324738   -6.0733633    4229.7884            3 
  167000    1.1138274   -6.0502941    4233.2211            3 
  168000    1.0969355   -6.0562391    4231.3516            4 
  169000    1.1159127   -6.0919545    4234.6815            4 
  170000    1.0921671   -6.0675796    4236.9187            3 
  171000    1.1169494    -6.063744    4227.0892            4 
  172000    1.1126171   -6.1160013    4226.8933            9 
  173000    1.1113542   -6.0878895    4238.5434            4 
  174000    1.0868724   -6.0425486    4231.8157            6 
  175000    1.1352987   -6.1192198    4228.7894            3 
  176000    1.1018973   -6.0708647    4240.1324            8 
  177000    1.1124623   -6.1100487    4229.4906            5 
  178000    1.1159563   -6.0751212    4226.6688            4 
  179000    1.1190744   -6.0851863    4233.4666            3 
  180000    1.1039501   -6.0832592    4234.4476            2 
  181000    1.0933388   -6.0320728    4248.1584            3 
  182000     1.122669   -6.1034093    4227.3013            9 
  183000    1.1268722   -6.0515378     4261.372            4 
  184000    1.1094947   -6.0512138    4247.8439            2 
  185000    1.1133058    -6.110156    4233.1053            4 
  186000    1.0913451   -6.0466242    4234.0917            2 
  187000    1.1105697   -6.0879952    4225.3524            6 
  188000    1.0974649   -6.0593674    4239.1225           10 
  189000    1.0879072   -6.0377618     4246.447            5 
  190000    1.1366615   -6.0744346    4241.6553            7 
  191000    1.1204054   -6.0714541    4236.1987            4 
  192000    1.1017783   -6.0721644    4234.5809            2 
  193000    1.0966415   -6.0392128    4235.8811            2 
  194000    1.1004277   -6.0586187    4236.0188            4 
  195000    1.1059304   -6.0784617     4235.566            5 
  196000     1.107732   -6.1094044    4234.6264            3 
  197000     1.112375   -6.0884413      4233.27            7 
  198000    1.1362084   -6.0919103     4252.256            9 
  199000    1.1242051   -6.0375767    4240.4953            7 
  200000    1.1053831   -6.0828504    4238.2389            5 
  201000    1.1073999   -6.0730882    4230.0622            9 
  202000    1.1213446   -6.0488612    4242.5197            7 
  203000    1.1543534   -6.0614882    4238.6684            7 
  204000    1.1032511   -6.0563593    4248.4167            3 
  205000    1.1175323    -6.010273    4242.8517            3 
  206000     1.094206   -6.0828104    4232.6145           11 
  207000    1.1206369    -6.056438    4237.9995            5 
  208000    1.1118774   -6.0920798    4231.9247            6 
  209000    1.1147263    -6.084545    4226.9609            5 
  210000    1.1193435   -6.0823395    4248.9958            7 
  211000    1.0972485   -6.0780272    4247.3361            5 
  212000    1.1288573   -6.0539329     4236.745            3 
  213000    1.1055879   -6.1053041    4223.2874            8 
  214000    1.1195066   -6.0852466    4244.3376            4 
  215000    1.0894147   -6.0698571    4239.0515            4 
  216000    1.1348658   -6.0852371    4237.5542            5 
  217000    1.1050583   -6.0871534    4227.7734            3 
  218000    1.1157316   -6.0799594    4245.4595            3 
  219000    1.1346914   -6.0407628    4241.4587            3 
  220000    1.1275214   -6.0796049     4221.945            7 
  221000    1.1025908   -6.1068331     4238.809           10 
  222000    1.1059387   -6.0974608    4242.1146            3 
  223000     1.103545   -6.0671037    4243.4628            7 
  224000    1.1314731    -6.046079    4249.3395           12 
  225000    1.1214096   -6.0403543    4227.1366            9 
  226000    1.1179293   -6.0890149    4239.2139            6 
  227000    1.1149058   -6.1179986    4230.9574            3 
  228000    1.1047933   -6.0705011     4225.005            3 
  229000    1.1036297   -6.0740557    4250.3791            4 
  230000    1.0818122   -6.0913518    4231.3329            4 
  231000    1.1056601   -6.1009658     4234.571            2 
  232000    1.1257328   -6.0947863    4225.8161            3 
  233000     1.109166   -6.0994157    4226.7867            5 
  234000    1.1230719   -6.0400042    4245.5529            4 
  235000     1.101063   -6.0777693    4245.5822            4 
  236000    1.0959157    -6.084312    4256.2886            4 
  237000    1.1067836   -6.0375554    4248.7109            4 
  238000    1.0877584   -6.0818772    4236.3097            4 
  239000    1.1229227   -6.1183828    4234.4005            4 
  240000    1.1088712   -6.0858335    4230.7978            7 
  241000    1.1355149   -6.0757983    4238.3006            6 
  242000    1.1078452   -6.0747757    4227.1186            6 
  243000    1.1000153   -6.0838236    4239.1782            3 
  244000    1.0956259   -6.0968148     4231.194           11 
  245000    1.1400707   -6.0654548    4233.3104            8 
  246000    1.0472972   -6.1090839    4220.5902            3 
  247000    1.1233015   -6.1160199    4242.6017            3 
  248000    1.0913004   -6.0438109    4229.3165            6 
  249000    1.1164684   -6.0966822    4248.8109            6 
  250000    1.0971029   -6.0606801    4245.4898            4 
  251000    1.1301159    -6.093782    4218.9936            5 
  252000    1.0936539   -6.0762394    4224.6142            5 
  253000    1.0918951   -6.1026731    4228.7405            3 
  254000    1.1032991   -6.0623091    4241.6554            7 
  255000    1.1498125   -6.0302069    4248.3142           11 
  256000    1.1182381   -6.1009349    4227.3488            4 
  257000    1.0952328   -6.0695145    4242.6756            4 
  258000    1.1113741   -6.0875181     4249.326            6 
  259000    1.0989286   -6.0484951    4249.6668            4 
  260000    1.1316194   -6.0456484    4242.1538            9 
  261000    1.1201488   -6.0954934    4221.8024            6 
  262000    1.0926015   -6.0715371     4247.977            7 
  263000    1.0929965    -6.081021    4236.2741            7 
  264000    1.1081395   -6.0754731     4239.578            2 
  265000    1.1261465   -6.0505897    4254.3193            5 
  266000    1.1106556   -6.0785127    4237.3122            3 
  267000    1.1258731   -6.0496012    4259.2313            5 
  268000    1.0961667   -6.0699898    4224.9957            5 
  269000    1.0835588   -6.1142107    4242.1747            2 
  270000    1.0774097   -6.1086695    4226.8442            8 
  271000    1.1358779   -6.1106472    4205.7639            4 
  272000    1.1175881    -6.067106    4239.9706            4 
  273000    1.1046623   -6.0842445    4244.8382            7 
  274000    1.0980776    -6.069307    4220.8072            4 
  275000    1.1061544   -6.0879509    4225.9529            3 
  276000    1.1104675   -6.0708647    4210.3205            6 
  277000    1.1123077   -6.0581839    4231.8244            4 
  278000    1.0996866   -6.1108773    4231.9346            4 
  279000    1.1253255   -6.0862408     4221.547           10 
  280000    1.1128667   -6.0868504    4222.8342            3 
  281000    1.1012991   -6.1199727     4223.055            9 
  282000    1.1392646   -6.0523713    4234.3202            2 
  283000    1.1293383   -6.0878287     4242.627            6 
  284000    1.1319421   -6.0418962    4245.1537           12 
  285000    1.1065443   -6.0707669    4248.1302            6 
  286000    1.0927353   -6.1168594    4232.2291            4 
  287000    1.1070877   -6.0809713    4232.5263            7 
  288000    1.0917057   -6.1171619    4236.3273            8 
  289000    1.0849313   -6.0410283    4228.6905            8 
  290000    1.0993625   -6.0819597    4235.7557           12 
  291000    1.0973631   -6.0600955    4233.0673            1 
  292000    1.1134421   -6.0672693    4240.3646            4 
  293000     1.103517   -6.0682601    4233.7499            7 
  294000    1.1103483   -6.0886204    4242.6632            5 
  295000    1.1022672     -6.02953    4260.0885            3 
  296000    1.0971243   -6.0577381    4234.2142            4 
  297000    1.1077166   -6.1288457    4223.2721            7 
  298000    1.0898689   -6.0958836    4227.9043            3 
  299000    1.1146871    -6.067193    4233.4148            8 
  300000    1.1116217    -6.082595    4232.9354            7 
  301000    1.1160641   -6.0720917    4224.1635           10 
  302000    1.1195459   -6.0836143    4225.1448            3 
  303000     1.115491   -6.0457828    4244.1662            4 
  304000    1.0980403   -6.0968815     4232.794            5 
  305000    1.0867615   -6.0950212    4243.4149            5 
  306000    1.1293205   -6.0852332    4245.3496            3 
  307000     1.086186   -6.0590039    4249.5009            5 
  308000    1.1059019   -6.0637689    4244.7357            3 
  309000    1.0980908   -6.0925407    4225.9817            5 
  310000    1.1131122   -6.0858086    4242.0423            6 
  311000    1.1095637   -6.1020661    4223.2906            5 
  312000    1.1325839   -6.0959486    4231.2001            5 
  313000    1.1194735   -6.0800946    4240.5661            6 
  314000    1.0947153   -6.0478651     4267.472            4 
  315000    1.1085182   -6.0993079    4241.4553            4 
  316000     1.096687    -6.071371    4241.3378            4 
  317000    1.1281865   -6.0894346    4256.7385            5 
  318000    1.1172016   -6.0881928    4246.4355            5 
  319000    1.0937377   -6.0606052    4225.6161           16 
  320000     1.109474     -6.06637     4233.454            8 
  321000    1.1264211   -6.0891949    4252.0281            4 
  322000    1.1164826   -6.0561172    4231.9185            2 
  323000    1.1234743   -6.1390208    4236.7659            9 
  324000    1.1347298   -6.0970584     4235.574            8 
  325000    1.1288511   -6.0472328       4232.8            5 
  326000    1.1101186    -6.100589    4215.3203            5 
  327000    1.0674105    -6.066282    4243.1318            5 
  328000    1.0905779   -6.0648012    4238.8905            3 
  329000    1.1093485   -6.0995976     4237.091            8 
  330000    1.1316489   -6.0968157    4223.7136            4 
  331000    1.1226583   -6.0662741    4239.2931            3 
  332000    1.1198347   -6.0796936    4243.3194            4 
  333000    1.0843025   -6.0673644    4227.4607            6 
  334000    1.1218807   -6.0727729    4227.2466            4 
  335000    1.1161731   -6.0840133    4245.9726            4 
  336000    1.1010942   -6.0349191    4240.1262            9 
  337000    1.1189488    -6.078251    4219.3939           13 
  338000    1.1267639   -6.0699595    4227.3541            6 
  339000    1.0923277   -6.0682135    4226.8212            3 
  340000    1.0901992   -6.0869517    4247.4403            8 
  341000    1.1037848   -6.0886026    4248.7386            3 
  342000    1.1300347   -6.0851047    4224.5421            3 
  343000    1.0971296   -6.1173708    4245.1262            4 
  344000    1.0870021   -6.0719976     4251.331            3 
  345000    1.0950474   -6.0743445    4245.8698            3 
  346000    1.1048142   -6.0299536    4226.5382            2 
  347000    1.0874726   -6.1008214    4238.3698            5 
  348000    1.1093071   -6.0841497    4243.9336            3 
  349000    1.1226495   -6.0600136    4249.3664            3 
  350000    1.1095435   -6.0687635    4237.1829           11 
  351000    1.1203558   -6.0737894    4240.5456           10 
  352000    1.1187849   -6.0801758    4230.6689            3 
  353000    1.1103716   -6.0750281     4233.616            8 
  354000    1.1121738    -6.045008    4232.1164           18 
  355000    1.1288824    -6.050126    4252.2297            3 
  356000    1.1106045   -6.0335864    4240.2503            6 
  357000    1.1083102   -6.0556915    4233.5861            8 
  358000    1.1074972   -6.0960239    4222.3549            3 
  359000    1.0969314    -6.079629    4200.0435            3 
  360000    1.1025217   -6.1035701    4224.1146            4 
  361000    1.1274037   -6.0964844    4242.5109            7 
  362000    1.0943501    -6.053081     4236.798            2 
  363000     1.113206   -6.0597673    4240.2945            5 
  364000    1.1063714   -6.0909343    4240.9887            4 
  365000    1.1114913   -6.0450271    4238.6364            5 
  366000    1.1107396   -6.0614451    4253.5688            4 
  367000    1.0992678   -6.0828045    4227.3517            6 
  368000     1.103271   -6.0437261    4238.9231            4 
  369000    1.1232943   -6.0594927    4247.2622            5 
  370000    1.1088024   -6.0732839    4244.1468            7 
  371000    1.0913886   -6.0561928    4249.7704            4 
  372000    1.1135396   -6.0687761    4254.4761            2 
  373000    1.1271689    -6.070222    4228.8567            3 
  374000    1.1064305    -6.068481    4227.2684            4 
  375000    1.1186022   -6.0799848    4234.8273            3 
  376000      1.13089   -6.0524772    4231.8831            5 
  377000    1.0897232   -6.0979219    4239.4304            2 
  378000    1.0928098   -6.1135767    4238.0729            7 
  379000    1.0972218   -6.0695669    4237.2685            5 
  380000    1.1301444   -6.0795569    4239.8578            4 
  381000    1.1270894    -6.055282    4246.6301            5 
  382000    1.0887184   -6.0588827    4237.4155            3 
  383000     1.117224   -6.0832538    4244.1726            6 
  384000    1.1191163   -6.0852493     4226.303            4 
  385000    1.0996876   -6.0489946    4234.6346            5 
  386000    1.1060464   -6.0906783    4236.7958            6 
  387000    1.1122284   -6.0673436    4253.5091            3 
  388000    1.1064046    -6.058608    4230.5426            4 
  389000    1.1015482     -6.06443    4224.5004            4 
  390000    1.1151469   -6.1113026    4243.5199            9 
  391000    1.1171217   -6.0846625    4251.5106            3 
  392000    1.1257474    -6.087425    4229.2934            2 
  393000     1.107234   -6.0987382    4230.9155            4 
  394000    1.1296097   -6.0526816    4233.5669            4 
  395000    1.1271364   -6.0636115    4239.3766            4 
  396000    1.0977801   -6.0712459    4238.2879            8 
  397000    1.1049694   -6.1165077     4227.626            4 
  398000    1.1127197   -6.1032059    4234.0641            2 
  399000    1.1113185   -6.1139989    4210.5438            3 
  400000    1.0969386   -6.0481221    4250.5802            3 
  401000    1.1455038   -6.0836299    4243.1929            5 
  402000     1.115893   -6.0605072    4238.3315            3 
  403000    1.1081804   -6.0560546    4249.3156            5 
  404000    1.1224296    -6.077073     4222.982            4 
  405000    1.1126864   -6.0471692    4232.8582            8 
  406000    1.1034849   -6.1037752    4234.2733            4 
  407000    1.1144594   -6.0434677    4243.9894           14 
  408000    1.1377094   -6.0398146    4225.9191            2 
  409000    1.0910023   -6.1138856    4226.8081            5 
  410000    1.0941091   -6.0397948    4235.2611            4 
  411000     1.098656   -6.1060582     4227.569            2 
  412000     1.087942   -6.0851471    4239.5424            3 
  413000    1.0617608   -6.0827473    4212.1504            6 
  414000    1.1124592   -6.1024152    4210.3536            8 
  415000    1.1052391   -6.0747014    4232.3973            3 
  416000    1.1022362   -6.0906372     4247.162            5 
  417000    1.1133456   -6.0881738    4235.5966            4 
  418000    1.1047762   -6.0400662    4229.4856            8 
  419000    1.1069374   -6.1143399    4232.2337            4 
  420000    1.0909372   -6.0669695    4227.9445            6 
  421000    1.1259629   -6.0459773    4245.6833            3 
  422000    1.1037424   -6.0595294    4237.7478            8 
  423000    1.1246858   -6.0627304    4234.8928            8 
  424000    1.0890335   -6.0646074    4219.6693            4 
  425000    1.1042808    -6.074968    4245.9732            6 
  426000    1.1226339   -6.1117566    4232.6843            5 
  427000    1.0900821   -6.0458991     4250.748            5 
  428000    1.1123559   -6.0823518    4242.3132            5 
  429000    1.0959126   -6.0743024    4215.6414            4 
  430000    1.1077805   -6.0703459    4235.2662            7 
  431000    1.0998057   -6.0779439    4228.1869            4 
  432000    1.1311278   -6.0719691    4233.6853            9 
  433000    1.1116517   -6.0486711    4251.8825            4 
  434000    1.0737753   -6.0977132    4224.1043            7 
  435000    1.1035184   -6.0907483    4238.9354            7 
  436000     1.099674   -6.1069012    4253.4809            7 
  437000    1.1251991   -6.1151445    4240.7603            3 
  438000    1.1275263   -6.0612694    4225.5007            5 
  439000    1.1021217   -6.0957915    4240.3204            2 
  440000    1.1010556   -6.0925413    4227.8558            4 
  441000    1.1017964   -6.0747112    4236.3118            5 
  442000    1.1153385   -6.1157313    4226.0143            6 
  443000    1.1138724   -6.0520609    4244.2923            3 
  444000    1.1074317   -6.0692507    4212.9053            3 
  445000    1.1159593   -6.0763879    4229.6372            2 
  446000    1.1184956   -6.0779829    4236.0774            4 
  447000    1.1089081   -6.0894219     4244.535            4 
  448000    1.1179362   -6.0507494    4242.4661            3 
  449000    1.0939268   -6.0789283    4248.3731            3 
  450000    1.1001474   -6.0753667    4248.8956            5 
  451000    1.1039668   -6.1242768    4229.7129            4 
  452000     1.124803   -6.1028203    4239.6297            4 
  453000    1.1275698   -6.1248417    4229.0144            1 
  454000    1.1179013   -6.0716271    4233.5142            4 
  455000    1.1170058   -6.0426527       4266.8            5 
  456000    1.1256828   -6.0565647    4243.8943           11 
  457000    1.1019422   -6.0794442    4209.7415            3 
  458000    1.0965949   -6.1116043    4215.4469            7 
  459000    1.1074249   -6.0687874    4244.7533            3 
  460000    1.1115626   -6.0675659    4242.6924            3 
  461000    1.0966288   -6.1094095    4239.6313            6 
  462000    1.0983721   -6.0596687    4257.5112            6 
  463000    1.1188254   -6.1004718    4239.4741            3 
  464000    1.0942147   -6.0383006     4254.472            6 
  465000    1.1255085   -6.0875415    4240.6101            4 
  466000    1.1260849    -6.068389    4253.9772            3 
  467000    1.1033117   -6.0922539    4226.4023            5 
  468000    1.1192432   -6.0704261    4227.2273            4 
  469000    1.0846983   -6.0598449     4233.946            5 
  470000    1.0897234   -6.0491087    4236.0968            7 
  471000    1.0814284   -6.0736818    4228.3408            4 
  472000    1.1081629   -6.0970851    4232.2187            3 
  473000    1.1279559   -6.0649929    4237.9907            3 
  474000    1.0989506   -6.0365885    4241.0249            5 
  475000    1.0877675   -6.1183661    4223.8151            7 
  476000    1.0956691    -6.064887     4234.575            5 
  477000    1.0939925   -6.0461536    4246.2025            6 
  478000    1.0870477   -6.0971555    4238.6613            4 
  479000    1.0849602   -6.0535799    4237.3996            4 
  480000    1.0939931   -6.0586677    4231.4297            3 
  481000    1.0911319   -6.0944036    4218.5695            3 
  482000    1.1175244   -6.0840564    4235.7088           10 
  483000    1.1250774   -6.0807673     4235.314            2 
  484000    1.1113808   -6.0948463    4242.9776            4 
  485000     1.126907   -6.0863993    4243.9843            4 
  486000    1.1069793   -6.0767635    4232.9006           11 
  487000    1.0976951   -6.0868429    4248.6017            8 
  488000    1.1189558    -6.098686    4252.8345            7 
  489000     1.123098   -6.0870001    4234.0329            3 
  490000    1.0989319   -6.0816147    4231.4021            6 
  491000    1.1005966   -6.0579188    4244.1437            6 
  492000    1.1056481   -6.0725107    4227.5988            4 
  493000    1.0906712   -6.0497881    4249.2153            3 
  494000    1.1065746   -6.0767392    4228.4124           10 
  495000     1.099871   -6.0987112    4241.8282            5 
  496000    1.1190902   -6.0752171    4223.3298            5 
  497000    1.0990588   -6.0539857    4257.7154            3 
  498000    1.1117828   -6.0578274    4235.2138            6 
  499000     1.123917   -6.0565836    4230.0485            2 
  500000    1.1131692   -6.1165364    4223.7234            4 
  501000    1.1271156   -6.0770166    4255.6079            3 
  502000    1.0924437   -6.0927602    4241.9312            3 
  503000    1.1219493   -6.0928652    4236.2707            3 
  504000    1.1108185   -6.0875904    4239.8759            8 
  505000    1.1078664   -6.0855658    4233.5231            4 
  506000    1.0970548   -6.0854385    4225.7924            7 
  507000    1.1292515   -6.0854676     4258.069            8 
  508000    1.1130007   -6.0810385    4246.4689            7 
  509000    1.1194232   -6.0587915    4231.0632            2 
  510000    1.1061135   -6.1005933     4237.332            3 
  511000    1.1099749    -6.074407    4242.1196            4 
  512000    1.0915259   -6.0850838    4237.7932            4 
  513000    1.0892801   -6.0910408    4241.6776            2 
  514000    1.1262248   -6.0819432    4253.2207           13 
  515000    1.0997589   -6.0897865    4242.5378            4 
  516000    1.1489494   -6.0790586    4254.8435           10 
  517000    1.1190089   -6.1083863    4237.1133            4 
  518000    1.0914424   -6.0884889    4247.7718            4 
  519000     1.071849   -6.0879447    4238.0749            5 
  520000    1.1198136   -6.0709091    4233.8938            5 
  521000    1.1288294   -6.1011052    4236.7478           14 
  522000    1.1231253   -6.0628662    4245.7963            9 
  523000    1.1219272   -6.0610329    4225.9648            3 
  524000    1.0965375   -6.0789372    4250.4325            4 
  525000    1.1217496   -6.1115438    4214.4701            6 
  526000    1.1294655   -6.1159375    4226.7774            4 
  527000    1.1288638   -6.0788384    4230.3019            2 
  528000    1.1275253   -6.1150803    4234.8885            5 
  529000     1.109291   -6.0903376    4233.7313            4 
  530000    1.1327558   -6.0726924    4226.0447            8 
  531000    1.1107794   -6.0819167    4247.8292            6 
  532000    1.1177519   -6.0574927     4234.979            3 
  533000    1.1212068   -6.0875172    4235.7673            4 
  534000    1.1267483   -6.0952214    4208.6338            9 
  535000    1.1119658   -6.0767425    4237.7427            5 
  536000    1.0921721   -6.0548542    4241.8438            3 
  537000    1.1073572   -6.0698471    4228.5995            4 
  538000    1.1174249   -6.0728748    4242.6745            6 
  539000    1.1062989   -6.0733519     4238.492            4 
  540000    1.1056378   -6.0670019    4246.3411            6 
  541000    1.1258883   -6.1014238    4224.2682            4 
  542000    1.1280512   -6.0428693    4232.7596            6 
  543000    1.0871181   -6.1303785    4218.3656            5 
  544000    1.0933453   -6.0682173    4223.5549            4 
  545000    1.1232643    -6.047935    4240.7555            3 
  546000    1.1128484   -6.0724382    4243.5891            5 
  547000    1.1384565   -6.0742551    4246.9759            5 
  548000    1.1070368   -6.0717735    4236.0918            2 
  549000    1.1215758   -6.0615168    4251.6662            4 
  550000    1.1036361   -6.0959962    4219.8436            3 
  551000    1.1082556   -6.0375318    4246.9472            3 
  552000    1.1085307   -6.0542645    4235.5825            2 
  553000    1.1170033   -6.1066676    4229.3341            4 
  554000    1.1227658   -6.0750877    4237.9477            4 
  555000     1.114136   -6.0814186    4230.9657            3 
  556000    1.1112332   -6.0755593    4223.5548            3 
  557000    1.1024774   -6.0591973    4242.0477            2 
  558000    1.1250533   -6.0747578    4217.9111            4 
  559000    1.1191074   -6.0869059    4240.6387            5 
  560000    1.0974978   -6.0726688    4230.5831            7 
  561000    1.1233536   -6.0699493    4236.5577            4 
  562000    1.1106946   -6.0665435    4216.1819            7 
  563000      1.12592   -6.0768511    4242.6929            8 
  564000    1.1002497   -6.0889558    4222.4125            5 
  565000     1.125105   -6.0476148     4251.184            3 
  566000    1.1152148   -6.0847272    4233.6954            4 
  567000    1.1293649   -6.0921453    4227.2514            4 
  568000    1.1073545   -6.0432215    4239.9237            5 
  569000    1.1040364   -6.1027261    4249.1648            8 
  570000    1.1336273   -6.0577411    4251.8489            3 
  571000    1.1184624   -6.0593099     4235.695            7 
  572000     1.097303   -6.0833924    4242.5606            2 
  573000    1.1295769   -6.0596409    4230.0412            4 
  574000    1.1115107   -6.0693046    4250.2213            5 
  575000    1.1020192   -6.1038493    4219.9685            5 
  576000    1.1108244   -6.0980142    4244.0012            4 
  577000     1.113904   -6.0650142    4238.5008            4 
  578000    1.0974117    -6.063863    4241.2684            5 
  579000    1.1097746   -6.0723664    4249.7879            4 
  580000    1.1103048   -6.1055029    4232.3237            3 
  581000    1.1307862   -6.1109177    4234.8799            4 
  582000    1.1164761   -6.0545868    4234.9132            5 
  583000    1.0932581   -6.1045974    4222.6197            6 
  584000    1.1026728   -6.0861414    4234.0619            3 
  585000    1.0961279   -6.0593294     4246.948            3 
  586000    1.0980838   -6.0954734    4239.9037            3 
  587000    1.0907143   -6.0873009    4229.6625            6 
  588000    1.0949763   -6.0458868    4245.7492            6 
  589000    1.1165059     -6.06784    4232.0503           11 
  590000    1.0874639   -6.0409089    4227.6793            3 
  591000    1.1078278   -6.0666135    4250.6522            6 
  592000     1.096756   -6.0361803     4233.003            4 
  593000    1.1199258   -6.1042547    4225.5487            5 
  594000    1.1088333    -6.128577    4222.4812            4 
  595000    1.0938241   -6.0816154    4244.5952            4 
  596000    1.1295126   -6.0772233    4233.8847            7 
  597000    1.1059709   -6.0592366    4243.6747            3 
  598000     1.119359   -6.0640898     4226.828            4 
  599000    1.1220539   -6.0707009     4224.103            4 
  600000    1.1030587   -6.0693806    4234.2781            4 
  601000    1.1202438   -6.0733325    4235.9693            7 
  602000    1.1135317   -6.0500096    4236.2225            3 
  603000    1.0760758   -6.0993245    4231.9649            5 
  604000    1.1210909   -6.0559322      4229.05            5 
  605000    1.1216543   -6.1051842    4234.5094            2 
  606000    1.1017436   -6.0775404    4247.2645            4 
  607000    1.0929908   -6.0790866     4256.792            4 
  608000    1.1046142   -6.0477764    4249.8299            5 
  609000    1.1401317   -6.0659705    4239.9128            6 
  610000    1.0975131   -6.0855483    4230.5174            7 
  611000    1.0925918   -6.0613578    4256.1492            4 
  612000    1.0970101    -6.090193    4245.3708            4 
  613000     1.108902   -6.1034841    4222.5171            3 
  614000    1.1107217   -6.0375107    4239.0593            6 
  615000    1.1216082   -6.0896384    4235.6093            3 
  616000    1.0929682   -6.1066647    4235.7654            3 
  617000    1.1266907   -6.1035144      4232.62            4 
  618000    1.1081965   -6.0684372    4254.3622            6 
  619000    1.1165641   -6.0690585    4220.7552            3 
  620000    1.1273537   -6.0633841    4227.9643            5 
  621000    1.1018888   -6.0465527    4245.3312            1 
  622000    1.1256575   -6.0639374    4236.9975            4 
  623000    1.1116703   -6.0561699    4248.1783            4 
  624000    1.1236435   -6.0592263    4258.7725            3 
  625000    1.0996382   -6.0774484    4237.7386            6 
  626000    1.1214923   -6.0871322    4256.0861            4 
  627000    1.1053111   -6.0851474      4234.26            3 
  628000    1.1374223   -6.0452966    4236.7651            8 
  629000    1.1176202   -6.0650069    4262.8076            6 
  630000    1.0886949   -6.0909322     4233.266            8 
  631000    1.0924457   -6.0996912    4227.7881            4 
  632000    1.1461211   -6.0314318    4236.1486            6 
  633000    1.1025206   -6.0803203    4246.1911            3 
  634000    1.1376844   -6.0434139     4226.244            4 
  635000    1.1120867   -6.0709211    4236.6018            8 
  636000    1.1146991   -6.0685704    4222.3875            6 
  637000    1.1243467   -6.0613793    4249.3972            5 
  638000    1.0946809   -6.1004291    4241.9737            4 
  639000    1.1023402   -6.0961741    4261.8781            2 
  640000     1.111876   -6.0751015    4245.3068            6 
  641000     1.097928   -6.1000749    4232.1708            3 
  642000    1.1135696   -6.1350014    4217.2289           11 
  643000    1.1086529   -6.0582605     4238.269            6 
  644000    1.0961708   -6.0804789    4246.1091            3 
  645000    1.1312501   -6.0410918     4247.219            4 
  646000    1.0989078   -6.0613165    4241.4749            6 
  647000    1.0790254   -6.0810093    4235.6922            3 
  648000    1.0920407   -6.0681034    4243.2083            5 
  649000    1.1001911   -6.0625623    4239.5346            4 
  650000     1.122699   -6.0629929    4231.1984            8 
  651000    1.1185435   -6.0826566    4237.2767            6 
  652000    1.0987141   -6.0765441    4240.4224            3 
  653000    1.1156546   -6.0680742    4223.4404            5 
  654000     1.091242    -6.087886     4217.847            3 
  655000     1.098246   -6.0591111    4235.0968            4 
  656000    1.1236082   -6.0824727     4241.405           10 
  657000    1.0885857   -6.0900963    4244.8885            4 
  658000    1.1036272   -6.0744309    4231.2233           12 
  659000    1.1160081     -6.06553    4247.0826            3 
  660000    1.1204797   -6.0695948    4226.6769            2 
  661000    1.1085961   -6.0360304    4248.6971            4 
  662000     1.116659   -6.0928783    4239.9907            2 
  663000    1.0951633   -6.0947625    4225.9761            4 
  664000    1.1117225   -6.0926834    4232.6367            3 
  665000    1.1073482   -6.1131012    4222.0721            4 
  666000    1.1042383   -6.0893813    4223.5523            7 
  667000    1.0892282   -6.0759797    4236.9034           10 
  668000    1.0937422   -6.0964004    4220.5072            4 
  669000    1.1221756   -6.0472601    4249.7951            4 
  670000     1.101401   -6.0755635     4210.784            2 
  671000     1.089588   -6.0796779    4227.5288            5 
  672000    1.1145285   -6.0806509    4246.0691            4 
  673000    1.1110633    -6.067263    4230.8812            9 
  674000    1.1138906   -6.0982542    4222.4352            4 
  675000     1.106463    -6.101515    4226.6593            6 
  676000    1.1126785   -6.0655302    4229.0998            6 
  677000     1.128278   -6.0755186    4227.8601            5 
  678000    1.1006745   -6.0986992    4226.6777            4 
  679000    1.1076419   -6.1305455    4235.4909            4 
  680000    1.1112785   -6.0881922    4228.8892            7 
  681000     1.096501   -6.1016637    4231.4297            6 
  682000     1.107444   -6.0741723    4250.5349            6 
  683000    1.1139127    -6.036329    4229.6979            4 
  684000    1.0947055    -6.096039    4230.0464            4 
  685000    1.1164606   -6.0438022    4248.5076            6 
  686000    1.1337176   -6.0855467    4218.9607            3 
  687000    1.1011606   -6.0342621    4241.4845            2 
  688000    1.1066125   -6.0867841    4218.5446            2 
  689000    1.1248005   -6.1181584    4213.6035            4 
  690000    1.0974509   -6.0855005    4232.5061            5 
  691000     1.123715   -6.0585248    4234.3876            2 
  692000    1.1121404   -6.0428249    4256.6236            4 
  693000     1.122623   -6.0926804    4233.7304            3 
  694000    1.1010348    -6.074702     4243.987            6 
  695000    1.1137268   -6.0784009    4229.6805            8 
  696000    1.1304113   -6.0865658    4229.4363            5 
  697000    1.1009472   -6.1039347    4238.8289            5 
  698000    1.1143872   -6.0583532    4232.8306            5 
  699000    1.0976863   -6.0615156    4228.0567            3 
  700000    1.1273585    -6.103551    4248.3163            4 
  701000    1.1009068   -6.0807086    4244.8494            5 
  702000    1.1118027   -6.0407744    4260.8256            6 
  703000    1.1263283   -6.0372536    4228.6292            3 
  704000    1.1100497   -6.0819056    4243.7936            5 
  705000    1.1109195   -6.1037961     4218.405            4 
  706000    1.1035081   -6.0509893    4243.2602           10 
  707000    1.0930332   -6.0973807    4212.0788            5 
  708000    1.1281175   -6.0919447    4222.7968            3 
  709000    1.1255942   -6.1122196    4229.3795            4 
  710000    1.0882459   -6.0565675    4239.0071            6 
  711000    1.1010897   -6.0577224    4236.0976            9 
  712000    1.1365009   -6.0925169    4234.9208            2 
  713000    1.1008403   -6.0927467    4238.9498            6 
  714000    1.1204518   -6.0882418    4237.0876            5 
  715000    1.1153509   -6.0993546    4214.5606            8 
  716000    1.0901391   -6.0943227    4237.0838            3 
  717000     1.106415   -6.0967943    4216.4783            5 
  718000    1.1110514   -6.0505408    4223.6453            2 
  719000    1.1243904   -6.0248282    4248.1724            5 
  720000    1.1345264   -6.0024426    4238.8061            4 
  721000    1.1284988   -6.0446068    4248.6429            2 
  722000    1.0877541   -6.0728643    4233.5971            4 
  723000    1.1150765   -6.0889476    4242.5419            4 
  724000    1.1163129   -6.0827194    4232.2141            7 
  725000    1.1051682    -6.024094    4245.3092           13 
  726000    1.1399769   -6.0445931    4212.0604            4 
  727000    1.1107618   -6.0886543    4232.2456            6 
  728000    1.0919728   -6.0398165    4245.1696            4 
  729000    1.1115607   -6.0776416    4246.2189            2 
  730000    1.1077712   -6.1066575     4243.782            9 
  731000    1.0796823   -6.0908674    4235.0118            6 
  732000    1.1131573   -6.0933701    4235.3394            3 
  733000    1.0991937   -6.0863045    4246.5932            9 
  734000    1.1124674   -6.1360766      4245.89            8 
  735000    1.1053765   -6.0774703    4213.8928            3 
  736000    1.1093849   -6.0436667    4252.1859            5 
  737000    1.0773745   -6.0620202    4227.0795            5 
  738000    1.1101742    -6.080647    4217.9319            4 
  739000    1.0935271   -6.0633902    4236.4724            5 
  740000    1.1023451   -6.0490884    4246.0361            4 
  741000    1.1291751   -6.0739635    4244.6537            3 
  742000     1.120975    -6.086261    4237.8855            2 
  743000    1.1099148   -6.0761362    4223.4002            6 
  744000    1.1035228   -6.0623117    4240.9595            3 
  745000    1.0975017   -6.0894053    4235.4449            5 
  746000    1.1133125   -6.0834632    4215.8482            3 
  747000    1.1055386   -6.0768653    4247.8517            4 
  748000    1.0929457   -6.0738071     4230.486            4 
  749000     1.128769   -6.0408462    4249.3737            2 
  750000    1.0916094   -6.0880783    4235.6397           16 
  751000    1.1147996   -6.0531999    4230.2066            7 
  752000    1.0864271   -6.0941753    4242.6079            6 
  753000    1.1313744   -6.0358818    4263.7125            3 
  754000    1.1391361   -6.0593592    4241.8022            2 
  755000    1.1180835   -6.0728584    4227.2735            5 
  756000    1.1253974    -6.083743     4224.897            4 
  757000    1.0965646   -6.0526162    4240.4245            2 
  758000    1.1266937   -6.0660959    4228.3243            4 
  759000    1.1101374   -6.0756803    4226.1604            2 
  760000    1.1080003   -6.0409982     4231.378            4 
  761000    1.1182053   -6.0712257    4252.6774            4 
  762000    1.0712125   -6.0368489    4245.6519            4 
  763000    1.1254599   -6.0668101    4239.3726            4 
  764000     1.090285     -6.08516    4235.1157            3 
  765000    1.1189151   -6.0852596    4254.6842            5 
  766000    1.1169391   -6.1023628    4222.5077            3 
  767000     1.117982   -6.0528962    4245.1321            5 
  768000    1.1090209    -6.032013    4251.5984            3 
  769000     1.120819   -6.0647751    4232.9839            5 
  770000    1.1031456   -6.0374863    4243.8863            3 
  771000    1.1161504   -6.0577941    4233.3843            4 
  772000    1.1285665   -6.0797706    4239.7631            3 
  773000    1.0995529   -6.0820931    4224.0943            4 
  774000    1.1191394   -6.0699929    4233.9694            3 
  775000    1.0974859   -6.0722615    4230.4573            3 
  776000    1.1224442   -6.0736859    4220.4024            5 
  777000    1.0996512   -6.0730727    4240.7519            5 
  778000    1.0986379    -6.021488    4241.4597            6 
  779000    1.1012362    -6.071698    4238.9191            5 
  780000    1.0953078   -6.0800591    4243.2758            5 
  781000    1.1102011   -6.0975924    4225.9114            5 
  782000    1.1034754   -6.0445119    4237.4916            5 
  783000    1.1107158   -6.0608091    4246.8361            7 
  784000    1.1022269   -6.0738173    4244.4903            9 
  785000     1.120946   -6.0764319    4231.0156            7 
  786000    1.1032232   -6.0773307    4246.9761            7 
  787000    1.1243885   -6.1029033    4225.4801            4 
  788000    1.1239963   -6.0930298    4232.5315            5 
  789000    1.1257514   -6.0966828    4238.7081            8 
  790000    1.1164249   -6.0441844    4221.0798            5 
  791000    1.1174027   -6.1436034     4217.645            5 
  792000    1.1033131   -6.0844227    4244.2761            5 
  793000    1.1301826   -6.0823078    4231.8882            4 
  794000    1.0945968   -6.0534819    4252.6486            4 
  795000    1.1068765   -6.0597788    4243.9492            6 
  796000    1.1229682   -6.1050003    4238.0787            6 
  797000    1.0951392   -6.0747025    4230.8973            5 
  798000    1.1401142   -6.0474944     4254.037            5 
  799000    1.1049729   -6.0704735    4240.1229            4 
  800000    1.1052899   -6.1053102     4231.427            3 
  801000    1.0879568   -6.0757743    4230.6558            7 
  802000    1.1027195   -6.0866883    4241.4426            1 
  803000    1.1186832   -6.0572746     4232.471            6 
  804000    1.0978595   -6.0924396    4216.4339            3 
  805000    1.0895856   -6.0974004    4238.0075            2 
  806000    1.1132282   -6.0530058    4251.8714            5 
  807000    1.1146741    -6.048427    4245.7264            2 
  808000     1.102682   -6.0587076    4231.3318            4 
  809000     1.113563   -6.0948428     4239.953            4 
  810000    1.1111178   -6.0829745    4241.6728            5 
  811000    1.1133017   -6.0593158    4229.0867            5 
  812000    1.1387966   -6.0707111    4232.5514           12 
  813000    1.0926542   -6.0936029    4229.0267            8 
  814000    1.1195239   -6.0562327    4243.3508            7 
  815000    1.1364444   -6.0788405    4243.9536            3 
  816000    1.1214181   -6.0428113    4244.6005            5 
  817000    1.0929592    -6.071857    4241.3494            5 
  818000    1.1066491   -6.1254776     4233.561            3 
  819000    1.1129864    -6.071488    4238.6032            5 
  820000    1.1201653   -6.0277008    4239.8126            5 
  821000    1.1159281   -6.0852942    4250.1336            4 
  822000    1.1212854   -6.0722965    4228.9616            4 
  823000    1.1287154   -6.0710919     4237.152            5 
  824000    1.1232958   -6.0196269    4233.7366            2 
  825000    1.0921744   -6.1331428    4244.1201            4 
  826000    1.1152835   -6.0862309    4228.3474            6 
  827000    1.0921348   -6.0807634    4246.0884            8 
  828000    1.1134743    -6.107037    4218.8835            5 
  829000    1.0992521   -6.0646105     4228.763            3 
  830000    1.1043768   -6.0804181    4223.2047            4 
  831000    1.0981291   -6.0972109    4238.8855            3 
  832000     1.104337   -6.0535158    4236.3643            6 
  833000    1.1102826   -6.0765241    4242.1232            4 
  834000    1.1281062   -6.0766359    4236.0827            8 
  835000    1.0879291   -6.0642889    4222.7716            4 
  836000    1.0957825   -6.0836272    4245.0657            6 
  837000    1.1082084   -6.1022631    4238.9534            3 
  838000    1.0883272   -6.0441215    4229.2819            4 
  839000    1.1163304   -6.0875414    4227.2358            2 
  840000    1.0946841   -6.0884065     4241.143            3 
  841000    1.1084685   -6.0768741    4230.8413            6 
  842000    1.0981684   -6.0888798    4214.1722            2 
  843000    1.0910502   -6.0547969     4232.873            2 
  844000    1.1127785   -6.0786473     4237.007            2 
  845000    1.1058495   -6.1052411    4240.9044            5 
  846000    1.1362882   -6.0827907    4222.0004            4 
  847000    1.1000081   -6.0814929    4256.1917           10 
  848000    1.1032467   -6.1219103    4227.1015            5 
  849000     1.116494   -6.0640775    4224.7735            3 
  850000    1.1362395   -6.0683983    4230.4348            3 
  851000    1.1185884   -6.0886308    4241.8207            3 
  852000    1.0999597   -6.0747091    4251.4367            4 
  853000    1.0908055   -6.0706328    4250.8948            4 
  854000    1.1140959   -6.0848479    4229.8842            2 
  855000    1.1011739   -6.0768985    4229.7302           11 
  856000    1.1261693   -6.0917851    4238.6518            3 
  857000    1.1443676    -6.081332    4243.4762            2 
  858000    1.0912293   -6.0659783    4236.7127           15 
  859000    1.0962183   -6.0470231    4249.1547            2 
  860000    1.1153475   -6.0629468    4241.9543            7 
  861000    1.1028124   -6.0833428    4222.3707            4 
  862000    1.1126537   -6.0842951    4232.1663            3 
  863000     1.103854   -6.0723846    4228.0399            4 
  864000    1.1244664   -6.0875546    4236.8573            3 
  865000    1.1276481   -6.0767737    4242.1962            3 
  866000    1.1299761   -6.0924322     4208.099            7 
  867000    1.1326803   -6.0783792    4239.8677            5 
  868000    1.1152901   -6.0945237    4245.3605            3 
  869000    1.1378607   -6.0611343    4255.1228            5 
  870000    1.1146748   -6.0784067    4229.1945            7 
  871000    1.1050687   -6.0673147    4232.8576            6 
  872000     1.120089   -6.0285144    4251.4445            8 
  873000    1.1233068   -6.0752687    4243.9669            5 
  874000    1.1208593   -6.0769476    4226.5243            4 
  875000    1.1156632   -6.0768618    4230.7483            4 
  876000    1.0931416   -6.0751609    4227.6983            9 
  877000    1.1317889   -6.0998314    4232.8135            5 
  878000    1.1134606   -6.1110904    4222.9514            5 
  879000    1.1021004    -6.102239    4252.3998            5 
  880000    1.1136483   -6.0687779    4219.6123            4 
  881000    1.0895699   -6.0799008     4227.092            4 
  882000    1.1243643    -6.089555     4231.853            3 
  883000    1.1004277   -6.0779893    4232.0074            3 
  884000     1.100666   -6.0768304    4237.4156            2 
  885000    1.0875468   -6.0617974    4248.9501            5 
  886000    1.0990449   -6.0856705    4242.4891            7 
  887000    1.1056184   -6.0926649    4219.4233            3 
  888000    1.1237609   -6.1001582    4242.0931            5 
  889000    1.1045247   -6.0657093    4250.4608            5 
  890000    1.0914435   -6.0381506    4253.8041            3 
  891000    1.1140582   -6.1005298    4255.4293            4 
  892000     1.103681   -6.0757533    4217.9293            5 
  893000    1.1186857   -6.0811486    4238.0785            3 
  894000    1.0989818   -6.0672166    4257.7827            3 
  895000    1.0911479    -6.079093    4248.8564            4 
  896000    1.1203466   -6.0905017    4228.9092           11 
  897000    1.1276708   -6.1143378    4222.9433            8 
  898000    1.1140939   -6.0605912    4249.3792            3 
  899000    1.1231639   -6.0761963    4246.2262            4 
  900000    1.0922531   -6.0674409    4232.0485            8 
  901000    1.0988639   -6.0951726    4247.3768            3 
  902000    1.1092082   -6.0555886      4226.09            6 
  903000    1.1189404   -6.0469828    4237.4409            5 
  904000    1.0947594   -6.1000522    4236.1409            6 
  905000     1.126628   -6.0546553     4228.484            4 
  906000    1.0847762   -6.0876472    4233.3982            3 
  907000    1.0916331   -6.0590459    4239.4036            5 
  908000    1.1138755   -6.0643909    4234.7273            3 
  909000     1.116208   -6.0792292    4235.5507            4 
  910000    1.1030433   -6.0561441    4258.9407            4 
  911000    1.1145452   -6.0626516      4219.39            7 
  912000    1.1003318   -6.0852973    4218.6457            3 
  913000    1.0908089    -6.055331    4237.4647            5 
  914000    1.1142091   -6.0949433    4231.9158            3 
  915000    1.1047532   -6.0697222    4228.8729            4 
  916000    1.1165674   -6.0977003    4226.1429            5 
  917000    1.1126883   -6.0693612    4239.4451            8 
  918000    1.1201957   -6.0796328    4236.1031            4 
  919000    1.1261055   -6.1033974    4225.1255            4 
  920000     1.080413   -6.1013042    4234.8159            7 
  921000    1.1141978   -6.0810122    4235.3176            2 
  922000    1.1179169   -6.0949677    4226.9673            2 
  923000    1.1211173   -6.0946354    4228.8084            4 
  924000    1.1432165    -6.043311    4232.3414            6 
  925000    1.1129416   -6.0584706    4240.0794            4 
  926000    1.0905979   -6.0667286    4236.4283            4 
  927000    1.0990636   -6.0549458    4226.7292            2 
  928000    1.0929461     -6.06336    4253.5196            3 
  929000    1.1209333   -6.0872028    4232.0193            6 
  930000    1.1274281   -6.0991788    4233.4144            7 
  931000    1.0936058   -6.0682934    4222.8565            2 
  932000    1.1088863   -6.0775249    4240.7225            3 
  933000    1.1052665   -6.0907047    4220.5281            4 
  934000    1.1130127   -6.0966786    4227.5887            7 
  935000    1.1103103   -6.0592549    4255.4407            5 
  936000    1.1152595   -6.0487103    4237.6373           11 
  937000    1.1162496   -6.1012104    4233.7866            5 
  938000    1.1043934    -6.039409    4252.7395           11 
  939000    1.0972762   -6.0507132    4230.5423            4 
  940000    1.1178832    -6.089818    4230.2573            2 
  941000    1.1168708   -6.0983633    4234.7594            3 
  942000    1.0764318   -6.0646992    4254.5068            7 
  943000    1.0827074   -6.0771908    4246.8107            4 
  944000    1.0919847   -6.0662009    4249.8711            4 
  945000    1.1291014   -6.0989267    4228.9021            4 
  946000    1.1121606   -6.0865797    4218.1093            5 
  947000      1.11477     -6.08607    4220.2178            8 
  948000     1.105556   -6.0883544     4227.499            5 
  949000     1.126916   -6.0734585    4243.7437            3 
  950000    1.0961545   -6.0672827    4252.3701            7 
  951000    1.1055588   -6.0544585    4251.6123            5 
  952000    1.1408219   -6.0593621    4244.2862            4 
  953000    1.1117949   -6.0686198    4227.9178            8 
  954000    1.1178986   -6.0663311    4221.2949            7 
  955000     1.112775   -6.0669401    4247.1981            2 
  956000    1.1196856   -6.0712047    4215.6456            4 
  957000    1.1087814   -6.0921095     4229.788            5 
  958000    1.1244975   -6.0858684    4232.7412            4 
  959000    1.0848794    -6.120832    4216.7842            5 
  960000    1.1121759   -6.0744194    4242.3479           12 
  961000    1.0946459   -6.0549051    4247.4114            5 
  962000    1.1290705   -6.0729337    4235.3494            4 
  963000    1.1199124    -6.089796    4228.9105            5 
  964000    1.1099169   -6.0754252    4233.5883            8 
  965000    1.1108642   -6.0766563    4247.8621            4 
  966000    1.1155415   -6.0649939    4236.3481            6 
  967000    1.0872012   -6.0572629    4227.7305            4 
  968000    1.1024003   -6.0895107    4223.9358            4 
  969000    1.1230528   -6.0528514    4247.7224            3 
  970000    1.1253031   -6.0734258    4239.4275            6 
  971000    1.0821839   -6.0949758    4225.9705            4 
  972000    1.1199464   -6.0494091    4230.3304            6 
  973000    1.1214105   -6.0547572    4229.3013            6 
  974000    1.1183338   -6.0833445    4213.6747            3 
  975000    1.1393053   -6.0571875    4226.7325            3 
  976000    1.1136557   -6.0481948    4256.0436            3 
  977000    1.0982962   -6.0923514    4250.9011            9 
  978000     1.111261   -6.0466402    4253.7567            5 
  979000    1.1179018   -6.0785383    4238.1637            3 
  980000    1.1067496   -6.0838222    4243.4426            4 
  981000    1.1155102   -6.0677608     4230.097            7 
  982000     1.109677   -6.0698267    4229.8182            5 
  983000    1.1335183   -6.0739785    4248.3064            6 
  984000    1.1128096   -6.0578619       4230.7            4 
  985000    1.1104424    -6.085299    4217.3031            5 
  986000     1.120534   -6.0814817     4224.381            5 
  987000    1.0937206   -6.0674042     4245.277            5 
  988000    1.1051999   -6.0570385    4237.1928            4 
  989000    1.0978799   -6.0958044    4225.2756            3 
  990000    1.1008365   -6.0870179    4254.6928            4 
  991000    1.1025138   -6.0870053     4233.717            8 
  992000    1.0986775   -6.1023561    4231.8256            5 
  993000    1.1059595    -6.016998    4249.0536            4 
  994000    1.1303051   -6.0844687    4213.0275            3 
  995000    1.0872982   -6.1076569    4238.0944            4 
  996000    1.1008203   -6.0693119    4240.2664            4 
  997000    1.1183535   -6.0925804    4238.0787            2 
  998000     1.106537   -6.1031792    4218.6256            4 
  999000    1.0770119   -6.0930992    4223.9098            6 
 1000000    1.1153181   -6.0840078    4231.4231            3 
 1001000    1.1102429   -6.0940246    4215.1307            3 
 1002000    1.1297556   -6.1019597    4234.8223            7 
 1003000    1.0941609    -6.069386    4229.5968            5 
 1004000    1.0997625   -6.0921565    4218.6608            3 
Loop time of 2062.43 on 48 procs for 1000000 steps with 4000 atoms

Performance: 83784.827 tau/day, 484.866 timesteps/s
99.4% CPU use with 48 MPI tasks x no OpenMP threads

MPI task timing breakdown:
Section |  min time  |  avg time  |  max time  |%varavg| %total
---------------------------------------------------------------
Pair    | 122.28     | 130.44     | 140.97     |  44.8 |  6.32
Neigh   | 15.543     | 15.715     | 16.033     |   2.6 |  0.76
Comm    | 115.21     | 123.36     | 130.97     |  35.0 |  5.98
Output  | 1.2136     | 1.2146     | 1.23       |   0.2 |  0.06
Modify  | 1764       | 1773.1     | 1781.9     |  10.2 | 85.97
Other   |            | 18.63      |            |       |  0.90

Nlocal:        83.3333 ave          91 max          76 min
Histogram: 3 0 8 2 11 8 7 3 4 2
Nghost:        1586.46 ave        1602 max        1572 min
Histogram: 4 8 3 0 9 6 6 3 5 4
Neighs:        9032.79 ave        9778 max        8137 min
Histogram: 2 5 4 0 8 8 7 5 5 4
FullNghs:      18063.5 ave       19773 max       16220 min
Histogram: 1 3 6 3 7 10 7 6 3 2

Total # of neighbors = 867047
Ave neighs/atom = 216.76175
Neighbor list builds = 62837
Dangerous builds = 0

#clear
#
#next RN
#
#jump SELF
Total wall time: 0:34:23
