
units lj                  # Use reduced LJ style units
atom_style atomic         # Uncharged point particles
atom_modify map hash      # Needed for indexing of clusters etc
                          # Used to be able to find where atoms are in relation to each other.

lattice fcc 1.0 spacing 1 1 1
Lattice spacing in x,y,z = 1.5874011 1.5874011 1.5874011
region box block 0 10 0 10 0 10 units lattice
create_box 2 box
Created orthogonal box = (0.0000000 0.0000000 0.0000000) to (15.874011 15.874011 15.874011)
  3 by 4 by 4 MPI processor grid
create_atoms 1 box
Created 4000 atoms
  using lattice units in orthogonal box = (0.0000000 0.0000000 0.0000000) to (15.874011 15.874011 15.874011)
  create_atoms CPU = 0.003 seconds
set type 1 type/fraction 2 0.08 78393
Setting atom values ...
  344 settings made for type/fraction
mass 1 1.0
mass 2 1.0
pair_style lj/cut  3.5
pair_modify tail  yes
pair_coeff 1  1  1.0  1.0   # Intearaction between 1 and 1 set with epsilon = 1 and sigma = 1
pair_coeff 1  2  1.5  0.8
pair_coeff 2  2  0.5  0.88

write_data data.0
System init for write_data ...
Neighbor list info ...
  update every 1 steps, delay 10 steps, check yes
  max neighbors/atom: 2000, page size: 100000
  master list distance cutoff = 3.8
  ghost atom cutoff = 3.8
  binsize = 1.9, bins = 9 9 9
  1 neighbor lists, perpetual/occasional/extra = 1 0 0
  (1) pair lj/cut, perpetual
      attributes: half, newton on
      pair build: half/bin/atomonly/newton
      stencil: half/bin/3d
      bin: standard
WARNING: Not all mixed pair coeffs generated from mixing. Use write_data with 'pair ij' option to store all pair coeffs. (../write_data.cpp:312)


#############################
#   M E L T   S Y S T E M   #
#############################

velocity all create 2.4 3143649 mom yes dist gaussian # Assign velocities
                                                    # Temperature 2.4, random number seed, zero linear momentum
                                                                                # Gaussian distribution

timestep 0.002   # simulation timestep
thermo 1000       # output thermodynamic data every 1000 steps bf 100

# Define a fix  in this case with index 1 applied to all
# particles in the simulation. This fix is for simulations
# in the anisotropic NPT ensemble. Note that we use the MTK
# correction.
fix 1 all npt temp 2.4 2.4 0.1 iso 5.68 5.68 0.5 mtk yes tchain 5 pchain 5 # Use NPT ensemble
                                                                         # Set temperature and pressure and damping
                                                                         # Numbers of thermostats in chain and in barostat
run 10000          # run for 10000 steps
Per MPI rank memory allocation (min/avg/max) = 3.642 | 3.644 | 3.648 Mbytes
Step Temp E_pair E_mol TotEng Press Volume 
       0          2.4   -7.8205278            0   -4.2214278   -2.8943486         4000 
    1000     2.411205   -4.5626466            0  -0.94674322     5.720224    4898.8848 
    2000    2.4179914   -4.5532018            0  -0.92712152    5.6545582    4924.2435 
    3000    2.4016912   -4.5410187            0  -0.93938247    5.6321147    4926.3309 
    4000    2.4033207   -4.5790761            0  -0.97499627    5.6879524    4903.4339 
    5000     2.421124   -4.5799227            0  -0.94914458    5.5795395    4913.5752 
    6000    2.3899381   -4.5249866            0  -0.94097574    5.8376329    4916.1822 
    7000    2.4327141   -4.5942572            0  -0.94609832    5.6179386    4904.4251 
    8000    2.3816907    -4.583262            0   -1.0116191    5.6764252    4896.5749 
    9000    2.3852695   -4.5609223            0  -0.98391252    5.5714365    4926.1593 
   10000    2.3870202   -4.6153417            0   -1.0357065    5.7319182    4867.8179 
Loop time of 2.22678 on 48 procs for 10000 steps with 4000 atoms

Performance: 776009.757 tau/day, 4490.797 timesteps/s
99.6% CPU use with 48 MPI tasks x no OpenMP threads

MPI task timing breakdown:
Section |  min time  |  avg time  |  max time  |%varavg| %total
---------------------------------------------------------------
Pair    | 0.8653     | 0.95508    | 1.1132     |   3.9 | 42.89
Neigh   | 0.18863    | 0.19735    | 0.22248    |   1.2 |  8.86
Comm    | 0.66507    | 0.78864    | 0.89568    |   4.8 | 35.42
Output  | 0.00024865 | 0.00025777 | 0.00034104 |   0.0 |  0.01
Modify  | 0.2067     | 0.27033    | 0.32286    |   7.7 | 12.14
Other   |            | 0.01512    |            |       |  0.68

Nlocal:        83.3333 ave          94 max          73 min
Histogram: 2 2 3 7 12 10 5 5 0 2
Nghost:        1440.38 ave        1462 max        1420 min
Histogram: 4 3 4 4 10 7 5 6 3 2
Neighs:        7826.46 ave        9162 max        6748 min
Histogram: 4 1 5 10 10 10 4 2 1 1

Total # of neighbors = 375670
Ave neighs/atom = 93.917500
Neighbor list builds = 901
Dangerous builds = 172

# Equilibrate just above the melting temperature to avoid step fn in T

fix 1 all npt temp 1.25 1.25 0.1 iso 5.68 5.68 0.5 mtk yes tchain 5 pchain 5
run 2000
Per MPI rank memory allocation (min/avg/max) = 3.642 | 3.644 | 3.648 Mbytes
Step Temp E_pair E_mol TotEng Press Volume 
   10000    2.3870202   -4.6153417            0   -1.0357065    5.7319182    4867.8179 
   11000    1.2610884   -6.1410632            0   -4.2499035    5.5984946    4057.1939 
   12000     1.251084   -6.1214649            0   -4.2453081    5.6587006    4058.9279 
Loop time of 0.478026 on 48 procs for 2000 steps with 4000 atoms

Performance: 722973.503 tau/day, 4183.874 timesteps/s
99.6% CPU use with 48 MPI tasks x no OpenMP threads

MPI task timing breakdown:
Section |  min time  |  avg time  |  max time  |%varavg| %total
---------------------------------------------------------------
Pair    | 0.20145    | 0.22521    | 0.2476     |   2.1 | 47.11
Neigh   | 0.0317     | 0.03341    | 0.036812   |   0.5 |  6.99
Comm    | 0.13855    | 0.16465    | 0.19008    |   2.7 | 34.44
Output  | 5.1137e-05 | 5.2833e-05 | 6.9356e-05 |   0.0 |  0.01
Modify  | 0.043536   | 0.050099   | 0.057906   |   1.3 | 10.48
Other   |            | 0.004611   |            |       |  0.96

Nlocal:        83.3333 ave          90 max          76 min
Histogram: 3 1 7 3 4 13 5 6 2 4
Nghost:        1630.62 ave        1648 max        1616 min
Histogram: 5 3 5 8 7 8 1 6 3 2
Neighs:        9398.67 ave       10250 max        8640 min
Histogram: 3 5 7 4 5 9 6 4 1 4

Total # of neighbors = 451136
Ave neighs/atom = 112.78400
Neighbor list builds = 142
Dangerous builds = 8

#############################
# L I N E A R  Q U E N C H  #
#############################

# Define solid atoms. This closely follows ten Wolde  Ruiz-Montero and Frenkel  Faraday Discuss  1996  104  93-110
# Compute components of the per-atom q6 vector
compute q6 all orientorder/atom degrees 1 6 components 6 nnn NULL cutoff 1.3 # compute the Q6 parameter.
                                                                             # Use all neighbours within 1.3 unit cell.

# get number of connections
compute coord_number all coord/atom orientorder q6 0.5

# An atom is solid if it has 8 or more connections (of a possible 14)
variable is_solid atom c_coord_number>=8
group solid dynamic all var is_solid    # Must be dynamic to update
dynamic group solid defined

# do clustering
compute cluster solid cluster/atom 1.3 # Create a cluster where all atoms within are solid and max 1.3 units from another member

# define chunks one chunk per cluster
compute clus_chunks solid chunk/atom c_cluster nchunk every compress yes  # Says which atoms are in which chunk

# count the size of each chunk
compute size_chunks solid property/chunk clus_chunks count


# Find the maximum entry in the vector of chunk sizes
variable max_n equal max(c_size_chunks)


# Thermo style which includes this variable
# thermo_style custom step temp pe vol v_max_n

thermo ${N}  # Print the thermo information every 100 steps
thermo 1000  

# Reset the npt fix at a lower temperature (below freezing)
fix 1  all npt temp  ${temp} ${temp}  0.1  iso  5.68  5.68  0.5  mtk yes tchain  5  pchain  5
fix 1  all npt temp  0.45 ${temp}  0.1  iso  5.68  5.68  0.5  mtk yes tchain  5  pchain  5
fix 1  all npt temp  0.45 0.45  0.1  iso  5.68  5.68  0.5  mtk yes tchain  5  pchain  5

dump dmp2 all dcd ${N} traj.dcd
dump dmp2 all dcd 1000 traj.dcd


compute msd all msd com yes
variable twopoint equal c_msd[4]/6/(step*dt+1.0e-6)
fix 9 all vector 10 c_msd[4]
variable fit equal slope(f_9)/6/(10*dt)
thermo_style custom step temp pe c_msd[4] v_twopoint v_fit v_max_n

fix 1 all npt temp 1.25 ${temp} 0.1 iso 5.68 5.68 0.5 mtk yes tchain 5 pchain 5
fix 1 all npt temp 1.25 0.45 0.1 iso 5.68 5.68 0.5 mtk yes tchain 5 pchain 5
run 5000000 # 5000000  # Run for this many steps
Neighbor list info ...
  update every 1 steps, delay 10 steps, check yes
  max neighbors/atom: 2000, page size: 100000
  master list distance cutoff = 3.8
  ghost atom cutoff = 3.8
  binsize = 1.9, bins = 9 9 9
  4 neighbor lists, perpetual/occasional/extra = 1 3 0
  (1) pair lj/cut, perpetual
      attributes: half, newton on
      pair build: half/bin/atomonly/newton
      stencil: half/bin/3d
      bin: standard
  (2) compute orientorder/atom, occasional
      attributes: full, newton on
      pair build: full/bin/atomonly
      stencil: full/bin/3d
      bin: standard
  (3) compute coord/atom, occasional
      attributes: full, newton on
      pair build: full/bin/atomonly
      stencil: full/bin/3d
      bin: standard
  (4) compute cluster/atom, occasional
      attributes: full, newton on
      pair build: full/bin/atomonly
      stencil: full/bin/3d
      bin: standard
Per MPI rank memory allocation (min/avg/max) = 9.748 | 9.751 | 9.754 Mbytes
Step Temp PotEng c_msd[4] v_twopoint v_fit v_max_n 
   12000     1.251084   -6.1214649 4.6335717e-30 3.217758e-32 8.3333333e+20            2 
   13000    1.2584896   -6.1266131   0.55372572 0.0035495237  0.045544489            3 
   14000    1.2585623   -6.1551442    1.1082914 0.0065969723  0.045745353            5 
   15000    1.2448625      -6.1359    1.6512326 0.0091735144  0.046402334            2 
   16000    1.2516816   -6.1190183    2.2993751  0.011975912  0.047306242            2 
   17000    1.2722708   -6.1144241    2.8379519  0.013911528   0.04781183            1 
   18000    1.2787722   -6.1575728    3.3222884  0.015380964  0.047124032            5 
   19000    1.2363577    -6.147797    3.8447477  0.016862928  0.046392212            1 
   20000    1.2475762   -6.1822257    4.3781708  0.018242378  0.045863655            4 
   21000    1.2669388   -6.1476174    5.0748248  0.020138193  0.046048509            1 
   22000    1.2522996   -6.1735478    5.6715473  0.021483133  0.046394889            1 
   23000     1.250247   -6.1388854    6.1939161  0.022441724  0.046721029            3 
   24000    1.2335303   -6.1297161    6.7421812  0.023410351  0.046695816            3 
   25000    1.2875466    -6.194973    7.3474467  0.024491489  0.046837302            3 
   26000    1.2412839   -6.1227644    7.9215112  0.025389459  0.047001319            2 
   27000    1.2477757   -6.1507721    8.3110065  0.025651254   0.04688676            2 
   28000     1.278407    -6.132265    8.7585593   0.02606714  0.046564407            1 
   29000    1.2069987   -6.1825301    9.3162263  0.026770765   0.04624362            3 
   30000    1.2498784   -6.1439935    9.8831957  0.027453321  0.046047806            4 
   31000    1.2458397   -6.0904026    10.458172  0.028113365  0.045942573            4 
   32000     1.269618   -6.1516827    11.114941  0.028945158  0.045926602            2 
   33000     1.213848   -6.1595868    11.741607  0.029650522  0.045998018            1 
   34000    1.2431901   -6.1329361    12.221415  0.029954449  0.046049092            2 
   35000    1.2611194    -6.160532    12.731397  0.030312849   0.04606166            5 
   36000    1.2412378   -6.1585197    13.276125   0.03073177  0.046054959            4 
   37000    1.2567665   -6.1184067    13.851984  0.031198162  0.046073833            2 
   38000    1.2687089   -6.1388013    14.168933  0.031072222  0.045966648            3 
   39000    1.2489636   -6.1504024    14.854254  0.031739859  0.045899135            3 
   40000    1.2385531    -6.159513    15.302568   0.03188035  0.045837715            2 
   41000    1.2338675    -6.134861    15.900035  0.032317144  0.045777708            3 
   42000    1.2655191   -6.1577865    16.500883  0.032739846  0.045741813            4 
   43000    1.2313739   -6.1672178    17.081933  0.033104522  0.045723921            2 
   44000     1.239121   -6.1251055    17.804949  0.033721495  0.045749066            1 
   45000    1.2427305   -6.1033904    18.254711   0.03380502  0.045802837            2 
   46000      1.23897   -6.1537151    18.713929  0.033902045  0.045810471            1 
   47000    1.2468999   -6.1727693    19.207367  0.034055615  0.045802655            4 
   48000    1.2270085   -6.1248496    19.879039  0.034512221   0.04579377            3 
   49000    1.2083176   -6.1177216    20.446732  0.034773353  0.045812574            3 
   50000     1.226023   -6.1416465    20.918526   0.03486421  0.045801239            2 
   51000    1.2115828   -6.1357128    21.613562  0.035316278  0.045809377            2 
   52000    1.2436518   -6.1569013    22.259356  0.035672045  0.045833318            3 
   53000    1.2383873   -6.1381094    22.699271  0.035690677  0.045875429            3 
   54000     1.242986   -6.1490033    23.094716  0.035639994  0.045874373            2 
   55000    1.2403328   -6.1602339    23.571905  0.035715007  0.045845605            2 
   56000    1.2274726   -6.1485066    24.280228  0.036131291  0.045821375            3 
   57000    1.2643561   -6.1475293    24.757133  0.036194638  0.045836954            2 
   58000     1.244772   -6.1143122    25.415096  0.036515942  0.045844262            3 
   59000    1.2532477   -6.1846864    25.892949  0.036571962  0.045844976            2 
   60000    1.2395776   -6.1743238    26.384993  0.036645824  0.045841254            2 
   61000    1.2173138   -6.1464561    27.035114  0.036933215  0.045842613            3 
   62000    1.2494872   -6.1491154    27.528698  0.037000938  0.045835082            2 
   63000    1.2212547    -6.169431    28.091963  0.037158681  0.045838256            1 
   64000    1.2371947   -6.1403408      28.4428  0.037034896   0.04582102            2 
   65000    1.2344764   -6.1734668     28.91771  0.037073987  0.045784708            4 
   66000    1.2460427   -6.1378852    29.403338  0.037125426  0.045734981            2 
   67000    1.2567257   -6.1510606    30.042775  0.037366635   0.04568267            2 
   68000    1.2176223   -6.1717091    30.487913  0.037362638  0.045641946            2 
   69000    1.2595669   -6.1105502    31.075721  0.037531064  0.045599803            2 
   70000    1.2629198   -6.1662574     31.71554  0.037756595  0.045565397            2 
   71000    1.2306694   -6.1244986    32.136481  0.037718874   0.04554245            4 
   72000    1.2343809   -6.1481382     32.68877  0.037834225  0.045519042            2 
   73000    1.2192583   -6.1563817    33.292517  0.038005156  0.045490859            2 
   74000    1.2540251   -6.1657027    33.788079  0.038049639  0.045455905            3 
   75000    1.2343459   -6.1455595    34.194734  0.037994149  0.045423084            2 
   76000    1.2628053   -6.1854372    34.738195  0.038090125  0.045387519            4 
   77000    1.2217923   -6.1431557    35.506737  0.038427204  0.045363034            4 
   78000    1.2273761   -6.2042454    35.730735  0.038173862  0.045341977            5 
   79000    1.2432008   -6.1403406    36.402054  0.038398791  0.045317014            2 
   80000    1.2218521    -6.164682    37.068776  0.038613309   0.04530224            2 
   81000    1.2600478   -6.1652853    37.543159  0.038624649  0.045288465            2 
   82000    1.2406528   -6.1823562    38.113919  0.038733657  0.045273295            3 
   83000    1.2497642   -6.1621427    38.704481   0.03885992  0.045265194            2 
   84000    1.2512484   -6.1716775    39.386359  0.039073768  0.045264042            2 
   85000    1.2304614   -6.1345595    39.886221  0.039104138  0.045269493            4 
   86000    1.2388552   -6.1467787    40.655259   0.03939463  0.045281681            1 
   87000     1.233217   -6.1500717    40.955088  0.039229011  0.045290366            2 
   88000    1.2394381   -6.1680727    41.191156  0.039006777  0.045275621            2 
   89000    1.2486474   -6.1160308    41.802741  0.039141143  0.045254808            2 
   90000    1.2499135   -6.1951756    42.352536  0.039215311  0.045239274            3 
   91000    1.2667663   -6.1534872    43.146754  0.039511679   0.04523322            1 
   92000    1.2528381   -6.1503886     43.67616  0.039561739  0.045235946            1 
   93000    1.2238728   -6.1523545    44.222334  0.039625748  0.045245472            5 
   94000    1.2247391   -6.1757436    44.784554  0.039702619   0.04525134            2 
   95000    1.2301061   -6.1515652    45.387858   0.03981391  0.045258541            2 
   96000    1.2434428   -6.1618259    46.132716   0.04004576  0.045279139            3 
   97000    1.2255982   -6.1392699    46.650856  0.040078055  0.045304587            5 
   98000    1.2414501   -6.1400518    47.500688  0.040391741  0.045325343            2 
   99000     1.252078    -6.175253    47.769965  0.040210408  0.045345549            4 
  100000    1.2462542   -6.1604536    48.430388  0.040358657  0.045362062            3 
  101000    1.2034389   -6.1659757    48.884351  0.040333623  0.045376798            2 
  102000    1.2465142    -6.198813    49.335915   0.04030712  0.045391226            2 
  103000    1.2368587   -6.1346654     50.14368   0.04056932  0.045409064            2 
  104000    1.2230669   -6.1471895    50.802384  0.040707039   0.04543612            4 
  105000    1.2103049   -6.1658188    51.211631  0.040644151  0.045464107            5 
  106000    1.2426901   -6.1777419    51.952339  0.040843033  0.045491422            2 
  107000     1.233273   -6.1715657    52.357563  0.040776918  0.045520089            2 
  108000    1.2518239   -6.1914708    52.703219  0.040666064  0.045538365            3 
  109000     1.258062   -6.1954119    53.257805  0.040716976  0.045549599            2 
  110000    1.2708531   -6.1665315    53.860913  0.040803722  0.045555614            2 
  111000    1.2237886   -6.1967436    54.408817   0.04084746  0.045561461            4 
  112000    1.2394969   -6.1484478    54.801536  0.040774952  0.045567131            2 
  113000    1.2226852   -6.1917775     55.53357   0.04095396  0.045576326            3 
  114000    1.2194201   -6.1627559     55.78491  0.040778443  0.045581821            3 
  115000    1.2389592   -6.1557308    56.662167  0.041059541  0.045587579            4 
  116000    1.2209573   -6.1642567    56.906091  0.040880813  0.045597505            2 
  117000    1.2106327   -6.1646821    57.811434  0.041176235  0.045608692            1 
  118000    1.2688386   -6.1543914    58.051292  0.040996675  0.045618523            5 
  119000    1.2365296   -6.2022183     58.49869  0.040965469  0.045618739            2 
  120000    1.1990779   -6.1556397    59.109817  0.041048484  0.045612695            4 
  121000    1.2197867   -6.1949792     59.79445  0.041180751  0.045613254            4 
  122000     1.236821   -6.2057722    60.445315  0.041287783  0.045613596            3 
  123000    1.2230412   -6.1835634    60.862121  0.041234499  0.045610822            4 
  124000    1.2356309   -6.2399403    61.554722   0.04136742  0.045619187            2 
  125000    1.2251365   -6.1280858    62.156102  0.041437401  0.045625876            2 
  126000    1.2526114   -6.1230353    62.836062  0.041558242  0.045630425            1 
  127000    1.2405803   -6.2104632     63.22898  0.041488832    0.0456392            2 
  128000    1.2454589   -6.1804005    63.670718   0.04145229  0.045645034            2 
  129000    1.2117018   -6.1943585    64.263587  0.041513945  0.045650768            2 
  130000    1.2597607   -6.1559657    64.776723   0.04152354   0.04565333            2 
  131000    1.2422703    -6.185946     65.30258  0.041541081  0.045657758            3 
  132000    1.2127463   -6.1628029    65.738112  0.041501333  0.045661686            2 
  133000    1.2348702   -6.1743416    66.297147  0.041539565  0.045661434            1 
  134000    1.2171724   -6.1885387    66.779926  0.041529805  0.045660848            2 
  135000    1.2301531   -6.2052012    67.110986  0.041426535  0.045653834            6 
  136000    1.2226715    -6.175673    67.623874  0.041436197  0.045642136            3 
  137000    1.2453644   -6.1488867    68.400237  0.041605983  0.045632625            4 
  138000    1.2102211   -6.1569384    69.149592     0.041757  0.045628912            3 
  139000    1.2338633   -6.1876633    69.377153  0.041593017  0.045625678            3 
  140000    1.2414543   -6.1578447    70.218916  0.041796974  0.045626982           10 
  141000    1.2260709   -6.1958177    70.567952  0.041706827  0.045629791            3 
  142000    1.2272587   -6.2158294     71.02859  0.041683444    0.0456287            2 
  143000    1.1894982   -6.1656166    71.678053  0.041770427  0.045623388            6 
  144000    1.2357681   -6.1478891    72.217675  0.041792636  0.045619433            2 
  145000    1.2627768   -6.1692604    72.721473   0.04179395  0.045611251            5 
  146000    1.2527425   -6.1593487    73.126255   0.04173873  0.045605256            1 
  147000    1.2218042   -6.2103735    73.722364  0.041792723   0.04560087            3 
  148000    1.2495608   -6.2172281    74.045244  0.041692142  0.045592095            2 
  149000    1.2268207   -6.1490406    74.788782  0.041828177  0.045581311            1 
  150000    1.2145643   -6.1448581    75.317782  0.041843212  0.045574224            1 
  151000    1.2100886   -6.1833555    76.092387  0.041993591  0.045571739            1 
  152000    1.2384366   -6.2020185    76.179091  0.041764852  0.045567488            3 
  153000    1.2333374   -6.1735311    77.001006  0.041939545   0.04556242            4 
  154000    1.2088598   -6.1889643    77.509506  0.041942373  0.045553809            2 
  155000    1.2454445   -6.1682614    77.971911  0.041920382  0.045542839            7 
  156000    1.2390214   -6.1854777    78.356526  0.041857118  0.045534355            2 
  157000    1.2287851   -6.1566961    79.024434  0.041945028  0.045521595            3 
  158000    1.2287862   -6.1470482    79.387028  0.041870795  0.045506266            1 
  159000    1.2207002   -6.1832782    79.415441  0.041622348  0.045490602            3 
  160000    1.2481958   -6.1677739    79.996018  0.041664593  0.045471861            7 
  161000    1.2043798    -6.182415     80.52485  0.041679529  0.045452373            3 
  162000    1.2268294   -6.1811392    81.583726  0.041966937  0.045436764            4 
  163000    1.1975734   -6.2156443    81.950681  0.041897076  0.045427063            3 
  164000    1.2095696   -6.1734918    82.668891   0.04200655   0.04541829            3 
  165000    1.2157624   -6.2112045    83.383273  0.042112764  0.045412506            7 
  166000    1.2294379   -6.1668655    83.781066  0.042058768  0.045407322            3 
  167000    1.2311449   -6.1619956    84.228975  0.042030426  0.045401182            2 
  168000    1.2318062   -6.1896909    84.594737  0.041961675  0.045393693            2 
  169000    1.2228662   -6.2217506    85.268532  0.042045627  0.045385176            2 
  170000    1.2127627   -6.2167236    86.016957  0.042165175  0.045378708            3 
  171000    1.2105259   -6.1818593    86.469406  0.042139086  0.045374531            2 
  172000    1.2156516   -6.1639653    87.215415   0.04225553  0.045366522            4 
  173000    1.2046873    -6.209966    86.817228  0.041819474  0.045356527            3 
  174000    1.2262079    -6.144047    87.961189  0.042127006  0.045343844            1 
  175000    1.2568952   -6.2187472     88.09112  0.041948152  0.045331801            4 
  176000    1.2039781    -6.182039    88.817622  0.042053798  0.045319323            3 
  177000    1.1999267   -6.1991771    89.121486  0.041959268  0.045306999            3 
  178000    1.2120485   -6.2043104    90.045757  0.042156253  0.045297084            3 
  179000    1.1851567   -6.2038722    90.403194  0.042087148  0.045288266            5 
  180000    1.2270284   -6.1581012    91.027914  0.042142553  0.045279696            2 
  181000    1.2232447     -6.16629    91.515127  0.042134036  0.045273999            3 
  182000    1.2288173   -6.1991043    92.015806  0.042131779  0.045266422            2 
  183000    1.2547759   -6.2170169    92.426691  0.042088657  0.045260214            7 
  184000    1.2034828   -6.1968453    93.483162  0.042338389  0.045255418            3 
  185000    1.2040444   -6.1747386    94.074312  0.042375816  0.045250519            1 
  186000    1.2026883   -6.1540387    94.556054  0.042363823  0.045247216            2 
  187000    1.2258144   -6.1984661     95.14828  0.042401194  0.045244358            3 
  188000    1.2433541   -6.1707246    96.148673  0.042619092  0.045242139            3 
  189000     1.233237   -6.1973674    96.104241  0.042374004   0.04524071            2 
  190000    1.2503116   -6.1713809    96.445421  0.042300623  0.045236117            2 
  191000    1.2177949    -6.167181    97.138604   0.04238159  0.045228988            2 
  192000    1.2280629   -6.2045121    97.496458  0.042316171  0.045221781            1 
  193000     1.205973   -6.1778878    98.279627  0.042435072  0.045218218            2 
  194000     1.243245    -6.178296    98.961909  0.042509411  0.045215057            2 
  195000    1.2141806   -6.2398592     98.96688  0.042293538  0.045209574            1 
  196000    1.2137163   -6.1710749    100.00276  0.042518181  0.045204434            2 
  197000    1.2183709   -6.1861214    100.69786  0.042596389  0.045200886            4 
  198000    1.2241074   -6.1909099     100.8833  0.042459303  0.045195606            3 
  199000    1.2125388   -6.1797411    101.28165  0.042412752    0.0451895            5 
  200000    1.2117683   -6.1775331    101.77109  0.042404622  0.045184653            3 
  201000    1.2076503   -6.2086485    101.91568  0.042253598  0.045176274            1 
  202000    1.2260205   -6.2202847    102.39444  0.042241931  0.045164836            2 
  203000     1.206485   -6.1642578    103.28544  0.042399606  0.045152918            4 
  204000    1.2077946   -6.1710418    103.77593  0.042392126  0.045144026            3 
  205000    1.2290216   -6.2038225    104.43963  0.042455136  0.045135394            3 
  206000    1.2077966   -6.1700656     105.1396  0.042532199    0.0451303            1 
  207000    1.2183443   -6.1508737    105.77886  0.042584083  0.045125924            2 
  208000    1.2292372   -6.1997138    106.18982  0.042543999  0.045123675            7 
  209000    1.2243422   -6.2351273    106.51937  0.042471838   0.04511986            2 
  210000     1.231185   -6.1902927    107.14215  0.042516727  0.045114845            3 
  211000    1.1736331   -6.2105273     107.4398  0.042432781  0.045110124            2 
  212000    1.2545454   -6.1235337    108.47465  0.042639405  0.045106428            2 
  213000    1.2103613   -6.2035897    108.38081  0.042402508  0.045101643            3 
  214000    1.1954904   -6.2283892    109.13142   0.04249666   0.04509428            5 
  215000     1.233557   -6.1855977    109.25914  0.042348504  0.045086174            3 
  216000    1.2269663   -6.1137391    110.43892  0.042607608  0.045078419            1 
  217000    1.2093113   -6.2011016    110.63067  0.042484894  0.045070216            4 
  218000    1.2343527   -6.1852709    111.16537  0.042494408  0.045061863            2 
  219000    1.2039177   -6.1809757    111.44425  0.042406487  0.045053121            3 
  220000    1.2399522   -6.1886651    111.72421  0.042319778  0.045042159            4 
  221000    1.2137461   -6.2035838     112.2826  0.042338838  0.045031746            2 
  222000    1.2333962   -6.2100254    112.88601  0.042374627  0.045020224            2 
  223000    1.2271218   -6.2008657    113.59514  0.042449605  0.045007589            2 
  224000    1.2220558    -6.204511      113.759  0.042321057  0.044994071            3 
  225000    1.2206797   -6.2137088    113.84746  0.042165726  0.044979281            6 
  226000    1.2238261   -6.1756584    114.71493  0.042299017  0.044963038            4 
  227000    1.2298507    -6.197324    115.18299  0.042284506  0.044949208            2 
  228000    1.2096541   -6.2107783     115.7359  0.042301133  0.044936389            3 
  229000    1.2287412   -6.1920688    116.20193  0.042286002  0.044921983            8 
  230000    1.2097326   -6.2187537    116.46807  0.042198574  0.044906698            4 
  231000    1.2063725   -6.1975093    117.04273  0.042223208  0.044890037            4 
  232000    1.2146574   -6.1841765    117.20793  0.042100548  0.044875009            2 
  233000    1.2106497   -6.1922526    118.07648  0.042230501  0.044861539            3 
  234000    1.2064416   -6.2257195    118.69003  0.042268528  0.044846018            2 
  235000    1.2000125   -6.1877546    119.17681  0.042261282  0.044831926            3 
  236000    1.2048707   -6.2324782     119.9647  0.042360415  0.044820257            3 
  237000     1.206401   -6.1956968    120.79579  0.042473905   0.04480863            3 
  238000    1.2138546   -6.1691591    120.88226  0.042325719  0.044795959            2 
  239000    1.2336714   -6.2217606      120.986  0.042184798  0.044782563            2 
  240000    1.1952243   -6.1903215    121.72172  0.042264485  0.044766229            2 
  241000    1.1930377   -6.1806661    121.94139  0.042165073  0.044749766            1 
  242000    1.1961379   -6.2110631    122.12639  0.042054543  0.044731681            3 
  243000    1.2028271   -6.2283962    122.78188  0.042106268  0.044713184            1 
  244000    1.2234388   -6.1861559    123.91932  0.042322171  0.044698207            2 
  245000    1.2093708   -6.1802706    123.56492  0.042028886  0.044683851            2 
  246000    1.2002666   -6.2138308     124.3075  0.042109585  0.044667621            1 
  247000    1.2313323   -6.2375976    124.54298  0.042018549  0.044648113            4 
  248000    1.2182808   -6.1989903    124.83637  0.041947706  0.044629164            2 
  249000    1.2334349   -6.2057779    125.24258  0.041915187  0.044610707            2 
  250000     1.230372   -6.2003682    125.80365  0.041934549  0.044591954            2 
  251000    1.2222196   -6.1936604    126.73477  0.042076616  0.044575191            1 
  252000     1.220885   -6.1903608    127.21036  0.042066919  0.044556362            5 
  253000    1.2135649   -6.2190808    127.02184   0.04183855  0.044537188            2 
  254000    1.2112508   -6.1997799    127.32681  0.041773889  0.044515097            2 
  255000    1.2207664    -6.232945    128.07735  0.041855344   0.04449214            1 
  256000    1.2221528   -6.2509457     128.6098  0.041865169  0.044470269            3 
  257000    1.2236711   -6.1876853    129.05093  0.041845307  0.044447566            3 
  258000    1.2250313   -6.2106334    129.45706  0.041814295  0.044424365            2 
  259000    1.1992675   -6.1979922    130.37102  0.041946919    0.0444014            2 
  260000    1.2254419   -6.1816772    130.37835  0.041787934  0.044378895            3 
  261000    1.2167768   -6.2082161    130.74876   0.04174609  0.044356447            3 
  262000    1.2230965    -6.197736    131.54301   0.04183938  0.044335569            2 
  263000    1.1781243   -6.2023418    132.38753  0.041947888  0.044315381            5 
  264000    1.2140479   -6.2419665    132.61607  0.041861133  0.044295126            4 
  265000    1.1964776   -6.1760547     133.4839  0.041976069   0.04427771            2 
  266000    1.2197852   -6.2021483    133.32999  0.041770045  0.044259621            2 
  267000    1.1861675   -6.2270998    134.34309  0.041929802   0.04424199            4 
  268000    1.1927604   -6.2743021    134.80607   0.04191731  0.044224563            3 
  269000    1.2021764   -6.1687851    136.04983  0.042146787  0.044208953            2 
  270000      1.22754   -6.1694227    136.37459  0.042090924  0.044195244            3 
  271000    1.1955899   -6.2395897    136.32627  0.041920746  0.044179922            6 
  272000    1.2309793   -6.1987057    137.31895  0.042070757  0.044165129            2 
  273000     1.225887   -6.1904825    138.02952  0.042133553  0.044151097            2 
  274000    1.2023833   -6.1828753    138.02115  0.041977236  0.044138925            3 
  275000    1.2128686   -6.1893782    138.54113  0.041982159  0.044124211            2 
  276000    1.2143571   -6.2667839     139.1387  0.042010477  0.044110754            1 
  277000    1.1880858   -6.2202952    140.22307   0.04218504  0.044098738            1 
  278000    1.2511933   -6.2244612     140.2884  0.042052878  0.044087781            2 
  279000    1.1892425   -6.2404186     140.7187  0.042030676  0.044075162            3 
  280000    1.2118835   -6.1848192    141.96957  0.042252848  0.044063084            2 
  281000    1.2334446   -6.2398347    141.61617  0.041997679  0.044051136            2 
  282000    1.2076277   -6.2080911    142.42634  0.042088163  0.044038355            2 
  283000    1.2092028   -6.2455756    141.98909  0.041810686  0.044024813            3 
  284000     1.185841   -6.2449824    143.04912  0.041974506   0.04401089            2 
  285000    1.2118648    -6.212363    144.13242  0.042143982  0.043998213            5 
  286000    1.2057425   -6.1977848    144.29991  0.042045428  0.043986651            3 
  287000    1.2032954   -6.2271572    144.71854  0.042020482  0.043975113            1 
  288000    1.1999819     -6.19274    145.82685  0.042195268  0.043962695            4 
  289000    1.2128162   -6.1803344    145.63918   0.04199515  0.043949826            2 
  290000    1.1829918   -6.2174155    146.50344  0.042098691  0.043936857            3 
  291000    1.1959476   -6.2527162    146.63682  0.041992216  0.043925364            2 
  292000    1.2050085    -6.207515    147.22815  0.042017166  0.043913682            4 
  293000    1.2113238   -6.2148802    148.02381   0.04210006   0.04390345            5 
  294000    1.2054618   -6.2341701    148.48178  0.042086671  0.043893938            2 
  295000    1.2333183   -6.2033877    149.45891  0.042220031  0.043883946            2 
  296000    1.1982462   -6.2206584    149.61205   0.04212051  0.043875862            3 
  297000    1.2404631   -6.2042379    150.53757  0.042238376   0.04386769            1 
  298000    1.1880644   -6.2386845    150.68383  0.042137538  0.043859414            2 
  299000    1.2161184   -6.2158327    150.80752  0.042031081  0.043850024            1 
  300000    1.1975553   -6.1977253    151.49177  0.042081046  0.043838963            4 
  301000    1.2011507   -6.2610793    151.58555  0.041967206   0.04382608            6 
  302000    1.2460387    -6.287412    151.78084  0.041882129  0.043815056            5 
  303000    1.2161285   -6.2000415    153.12258  0.042112921  0.043803231            2 
  304000    1.2117932   -6.2331559    153.15422  0.041983065  0.043791471            4 
  305000    1.2218273   -6.1934141     153.9364  0.042059125  0.043781668            2 
  306000    1.2155029   -6.2121649    154.22949  0.042001494  0.043771066            2 
  307000    1.2129046   -6.2145729    154.31084  0.041886763  0.043759045            4 
  308000    1.1839821   -6.2439729    154.54485  0.041814083  0.043746023            2 
  309000    1.2016283   -6.2528878    155.12803  0.041836039  0.043731961           10 
  310000    1.2162877   -6.2272442    155.97295  0.041928212  0.043718406            2 
  311000    1.1976044   -6.2438721    156.07597  0.041820999  0.043706106            3 
  312000    1.1893781   -6.2774647    156.58074  0.041821778  0.043694271            5 
  313000    1.1988106   -6.2413956    157.22083   0.04185858  0.043680649            7 
  314000    1.1740987   -6.2209728    158.04303  0.041943479  0.043666814            2 
  315000    1.1817192   -6.1985844    158.46465  0.041921866  0.043654309            5 
  316000    1.1966043   -6.2200195    158.47814  0.041792759  0.043642546            2 
  317000     1.217545   -6.2535002    159.10116  0.041824701  0.043630484            2 
  318000     1.198765   -6.2425749    159.60506  0.041825226  0.043617044            2 
  319000    1.2012043   -6.2003637    159.95516  0.041785569  0.043603486            2 
  320000    1.1992925   -6.2492106    159.98965  0.041663971  0.043589382            2 
  321000    1.1926877   -6.2292171    160.65181  0.041706078  0.043575549            4 
  322000    1.1973452   -6.2217486    161.39164  0.041768024   0.04356312            3 
  323000    1.2104517   -6.2281658    161.36676  0.041632292  0.043550015            3 
  324000    1.1897927   -6.2205365    161.48038  0.041533021  0.043535017            6 
  325000    1.2064223   -6.2132768    162.14366  0.041575297  0.043518819            3 
  326000    1.2165472   -6.2544258    162.02868  0.041418374  0.043501809            3 
  327000    1.1849587   -6.2555657    162.93352  0.041522303  0.043484467            2 
  328000    1.2043525   -6.1993073     163.9029  0.041641998  0.043469203            2 
  329000    1.1997707   -6.2066043    164.38287  0.041636998  0.043453758            2 
  330000    1.1949019   -6.2348684    165.39325  0.041765972  0.043438301            2 
  331000    1.2032708   -6.2192297    165.54589  0.041678219  0.043424134            2 
  332000    1.1878467   -6.2107045    165.85617  0.041630565  0.043410854            3 
  333000    1.1989879   -6.2260541    165.78641   0.04148809  0.043395882            3 
  334000    1.1921197   -6.2644536    167.02942  0.041674008  0.043381143            7 
  335000    1.1966672   -6.2883818    167.99791  0.041790525   0.04336834            4 
  336000    1.1722774   -6.2336085    167.73893  0.041601918  0.043355424            4 
  337000    1.2038988   -6.2505555     169.1906  0.041837439   0.04334287            3 
  338000    1.2077779   -6.2384053    168.65338  0.041581208  0.043329679            4 
  339000    1.1906734   -6.2179309     169.7031  0.041716592  0.043316725            5 
  340000    1.1778473   -6.2038832    169.81125  0.041620405  0.043303384            3 
  341000    1.2072788   -6.2057255     170.3355  0.041626467  0.043290089            2 
  342000    1.2103837   -6.2124367    171.41101  0.041766815  0.043276927            2 
  343000    1.1760531   -6.1848065    171.23068  0.041601234  0.043263691            4 
  344000    1.2099389   -6.2049677    171.64716  0.041581191   0.04325067            2 
  345000    1.2057772   -6.2658953    171.73386   0.04148161  0.043236035            4 
  346000    1.1975551   -6.2331353    172.54218  0.041556402  0.043221338            3 
  347000    1.1981679   -6.1757592     172.3334  0.041386504  0.043206589            1 
  348000    1.2100911   -6.2162936     173.2056  0.041476437  0.043192154            2 
  349000      1.18372     -6.24755     174.0438  0.041557736  0.043178204            4 
  350000    1.1737662   -6.2285541    174.32218   0.04150528  0.043164951            2 
  351000    1.2060098   -6.2057138    174.54231  0.041439294  0.043150962            3 
  352000    1.1854188   -6.2688377    174.68508   0.04135537  0.043136062            4 
  353000    1.1989977   -6.1994523    176.52477  0.041672515  0.043122277            3 
  354000    1.1802677   -6.2177626    177.14756  0.041701403   0.04311076            3 
  355000    1.1745406   -6.2354098    177.49971  0.041666599  0.043099915            2 
  356000    1.1972033   -6.2231303    177.99177  0.041664739  0.043088877            3 
  357000    1.1898376   -6.1857016    178.82201  0.041741833  0.043079033            4 
  358000    1.2110864   -6.2302221     179.3597  0.041750396  0.043070321            4 
  359000     1.177652   -6.2580808    178.85638  0.041517264  0.043059715            1 
  360000    1.1928244   -6.2587549    178.86705  0.041404409  0.043047029            2 
  361000    1.2079689   -6.2509632    179.75162  0.041493912    0.0430335            3 
  362000    1.1985941   -6.2182076    180.48168  0.041547349  0.043019556            3 
  363000    1.1712876   -6.2719317    180.79771  0.041505443  0.043005969            2 
  364000    1.1762314    -6.174481    180.87246   0.04140853  0.042992987            3 
  365000    1.2229589    -6.275773    181.93348  0.041537325   0.04298076            3 
  366000    1.1804483   -6.2319803    182.16119   0.04147568  0.042968097            3 
  367000    1.2055452   -6.2639378    182.84697  0.041518385  0.042955982            6 
  368000    1.2097632   -6.1792927    183.98601  0.041663499  0.042945529            3 
  369000    1.1644792   -6.2815861    184.08282  0.041572451   0.04293619            3 
  370000    1.1773095   -6.2172427     184.6181  0.041580654  0.042926725            2 
  371000    1.1910633   -6.2578459    184.73529    0.0414949  0.042917429            4 
  372000    1.1814363   -6.2431643    186.06455  0.041681126  0.042907311            2 
  373000    1.1922715   -6.2807324    186.18374  0.041596011  0.042896853            3 
  374000    1.2293007    -6.248887    186.04318  0.041453471    0.0428861            2 
  375000    1.1979538   -6.2587815    186.81867  0.041515261  0.042874499            2 
  376000    1.1777745   -6.2443937    186.41826  0.041316103  0.042861807            2 
  377000    1.2176963   -6.2606568    187.10762  0.041358891  0.042848584            4 
  378000    1.1674616   -6.2700686    187.69044  0.041377963  0.042834254            3 
  379000     1.192008   -6.2713569    187.47636  0.041221715  0.042820636            6 
  380000    1.1852613   -6.2392336     188.8022  0.041403992  0.042807449            3 
  381000    1.1823712   -6.2543603     188.8635  0.041308726  0.042792922            5 
  382000    1.1908643   -6.2308694    189.17251     0.041268  0.042779958            3 
  383000    1.2108426   -6.2423767    189.40881  0.041211665  0.042766875            4 
  384000    1.1781271   -6.2470587    190.04511  0.041242429  0.042752514            2 
  385000    1.2127332   -6.2265064    190.55162   0.04124494  0.042738756            4 
  386000    1.1658091   -6.2016671    191.71671  0.041389618   0.04272526            2 
  387000    1.1947247   -6.2556918    192.21294  0.041389521  0.042712013            1 
  388000     1.173335   -6.2488708    191.79482  0.041193045  0.042698173            3 
  389000    1.2088095    -6.240482    192.60197  0.041260062  0.042684796            4 
  390000    1.1908187   -6.2258063    193.15023  0.041271418  0.042671456            3 
  391000    1.1879773    -6.276957    192.92679  0.041118241  0.042658053            5 
  392000    1.2214235    -6.233808    193.93007   0.04122663  0.042645622            2 
  393000    1.1853135   -6.2272343    194.24749  0.041189034  0.042633357            3 
  394000    1.1975878   -6.2607546    195.02595  0.041249144  0.042620088            6 
  395000    1.1963832   -6.2518072    195.08101  0.041156332  0.042606616            2 
  396000    1.1823703   -6.2444653    195.67954  0.041178354  0.042592455            3 
  397000    1.1958117   -6.2334981    195.97664  0.041136993   0.04257788            2 
  398000    1.1799956    -6.270182    195.84965  0.041007045  0.042563739            5 
  399000    1.1703213   -6.2535775    195.78234  0.040890212  0.042548104            3 
  400000    1.1529481   -6.2202692     197.6298  0.041172875  0.042532779            2 
  401000    1.1864216   -6.2442829    196.97436   0.04093399  0.042518452            2 
  402000    1.2005738   -6.2602268    198.58322  0.041165676  0.042504561            3 
  403000    1.2076756   -6.2688347    197.99689  0.040942285  0.042491156            3 
  404000    1.1736594   -6.2606585    199.32915  0.041115749  0.042478864            4 
  405000    1.2041985   -6.2666643    199.71589  0.041093805  0.042465826            4 
  406000    1.1676408   -6.2039892    201.19993  0.041297194  0.042452471            3 
  407000    1.1948904   -6.2222162    201.00283  0.041155371  0.042440116            1 
  408000    1.2096661   -6.2689104    201.78197  0.041213638  0.042428542            2 
  409000    1.1941361   -6.2160249    202.24335  0.041206876  0.042417177            2 
  410000     1.179103   -6.2628084     202.4809  0.041154655  0.042406761            3 
  411000    1.1902462   -6.2357832    203.37133  0.041235063  0.042396211            2 
  412000    1.1996146   -6.2510304    203.93789  0.041249574  0.042384985            3 
  413000    1.1877477   -6.2341851    204.80849  0.041325361  0.042374212            3 
  414000    1.1721529   -6.1956195    204.96674  0.041257396  0.042363489            3 
  415000    1.1679287   -6.2438078    204.99463   0.04116358  0.042352123            3 
  416000    1.1950667   -6.2475659    204.45304  0.040956138   0.04234036            4 
  417000    1.1850479   -6.2663764    206.08252  0.041183557   0.04232901            2 
  418000    1.1996869   -6.2207143     206.7831    0.0412247  0.042318273            2 
  419000    1.1761914   -6.2657899    207.01669  0.041172771  0.042306945            5 
  420000    1.1512646   -6.2703594    207.10552  0.041092366  0.042295092            2 
  421000    1.2024144   -6.2588234    207.71609  0.041115615  0.042285206            2 
  422000    1.2050923   -6.2742306    208.64275  0.041201175  0.042274707            4 
  423000    1.1916699   -6.2575124    208.43149  0.041062152  0.042265221            3 
  424000     1.183668   -6.2347684     209.9162  0.041257116  0.042255987            5 
  425000    1.1767092   -6.2134546    209.65123  0.041108085  0.042246499            3 
  426000    1.1591556   -6.2634201    210.42804  0.041163544   0.04223702            5 
  427000    1.1848695   -6.2131626    210.47164  0.041075652  0.042226301            3 
  428000    1.1856808   -6.2424313     210.7721  0.041038181  0.042215352            2 
  429000    1.2230719   -6.2721655    211.12789  0.041011634  0.042204049            2 
  430000    1.1975689   -6.2753386    212.13402  0.041111244  0.042192395            1 
  431000      1.17589   -6.2882091    211.44593  0.040882816  0.042180645            2 
  432000     1.186295   -6.2105367    212.85886  0.041060736  0.042167599            2 
  433000    1.2086661   -6.2398396    213.32087  0.041054824  0.042155759            2 
  434000    1.1916135   -6.1990025    213.66862     0.041027   0.04214464            1 
  435000    1.1960999   -6.2358459    214.15995   0.04102681  0.042134411            4 
  436000    1.2151105   -6.2343538    214.73925  0.041043435  0.042123496            4 
  437000     1.204604   -6.2754858    213.95129  0.040799254  0.042112303            2 
  438000    1.1580886   -6.2616288    214.40652  0.040792718  0.042100413            4 
  439000    1.1885445   -6.2655182    215.32043  0.040873277  0.042087589            2 
  440000    1.1925232   -6.2638044    215.28504  0.040773682  0.042075728            4 
  441000    1.1871599   -6.2770111    216.84593  0.040976177  0.042063068            2 
  442000    1.1900456   -6.2435162    217.06801  0.040925341  0.042050239            2 
  443000    1.1913466   -6.2440537    217.35264  0.040886501   0.04203823            2 
  444000     1.203343   -6.2666728     217.6806  0.040855969  0.042026753            2 
  445000    1.1826801   -6.3000018      218.631  0.040942136  0.042015534            1 
  446000    1.1902517   -6.2729748    219.32676  0.040980336  0.042005027            2 
  447000    1.1719559    -6.267369    219.54973  0.040930225  0.041993941            2 
  448000    1.1536006   -6.2796136    220.12511  0.040945891  0.041983372            3 
  449000    1.1973607   -6.2707962    220.97051  0.041011602  0.041974106            4 
  450000    1.2183197   -6.2500478     221.8191  0.041077611  0.041965088            2 
  451000    1.1663321    -6.230314    222.78707  0.041165386  0.041957668            2 
  452000     1.192845    -6.244629    222.46035  0.041014076  0.041949661            3 
  453000    1.1672151   -6.2815228    223.00302  0.041023367  0.041942017            1 
  454000    1.1945883   -6.2314832    223.61772  0.041045838  0.041932983            2 
  455000     1.187201   -6.2326097    223.52699  0.040939008  0.041924039            1 
  456000    1.1934621   -6.2755512    223.83169  0.040904914  0.041914806            4 
  457000    1.1732902   -6.2813593    224.47887  0.040933419  0.041905078            3 
  458000     1.197409   -6.2713724     224.7557  0.040894413  0.041895132            3 
  459000    1.1942465   -6.2834156    225.16629  0.040879865  0.041884963            4 
  460000    1.1850929   -6.2668904    225.16351  0.040790492   0.04187501            4 
  461000       1.1804   -6.2678196    226.18583  0.040886809  0.041865489            4 
  462000     1.186893   -6.2617577    226.51797   0.04085822  0.041855758            2 
  463000    1.1813838   -6.3248459    226.87317  0.040833904  0.041847077            5 
  464000    1.1914279   -6.3256012    227.04803  0.040777303  0.041837725            4 
  465000    1.1848186   -6.2706934    227.21727  0.040719941  0.041827679            3 
  466000    1.1804195   -6.2630065    228.36343  0.040837523   0.04181758            2 
  467000     1.161818   -6.2502163     228.4268  0.040761385  0.041807057            3 
  468000    1.1716236   -6.2519101    229.01332  0.040778725  0.041796915            2 
  469000    1.1833575   -6.2793405    228.92371  0.040675854  0.041785774            3 
  470000    1.1920439   -6.2690485    230.01018  0.040781947  0.041774868            4 
  471000    1.1576117   -6.3119037    229.93528   0.04068211    0.0417653            3 
  472000    1.1592822   -6.2759215    231.51341  0.040874542  0.041755748            2 
  473000    1.1427404   -6.2600413    232.52925  0.040967099  0.041747447            3 
  474000    1.1468458   -6.2877414    232.46674  0.040869679   0.04173959            5 
  475000    1.1827535   -6.2736543    232.98828  0.040875137  0.041731538            2 
  476000    1.1879349   -6.2548919     233.6421  0.040903728  0.041723057            4 
  477000    1.1561766   -6.2683574    233.50879  0.040794687  0.041714793            5 
  478000    1.1580852   -6.2422874    234.40176  0.040865021  0.041705898            4 
  479000    1.1718378   -6.2326495    235.60089  0.040988324   0.04169773            3 
  480000    1.1758152   -6.2889476    235.00321  0.040799169  0.041689358            2 
  481000    1.1760889   -6.3114731    235.17728  0.040744505  0.041680415            6 
  482000    1.1777943   -6.2595817    237.46781  0.041055984  0.041672352            3 
  483000    1.1509881   -6.2519639    236.52427   0.04080819  0.041664161            7 
  484000    1.2133484   -6.2420671    237.69912  0.040926157  0.041656984            2 
  485000     1.187026   -6.2754447    237.84592  0.040866996  0.041650394            2 
  486000    1.1508788   -6.3193074    237.91985  0.040795584  0.041642934            3 
  487000    1.1805171    -6.252573    238.62492  0.040832463    0.0416354            2 
  488000    1.1708782    -6.309138     238.9329  0.040801384   0.04162654            2 
  489000    1.1807492   -6.2926349    239.29434  0.040779539  0.041617105            2 
  490000    1.1748398   -6.2912052    240.44258  0.040891595  0.041608986            5 
  491000    1.1871536   -6.2915633    240.72325  0.040855949  0.041600879            3 
  492000    1.1320446   -6.2626167     240.5326  0.040740617  0.041592812            3 
  493000    1.1836306    -6.289257    241.62983  0.040843446  0.041585392            4 
  494000    1.1740784   -6.2440549    241.74818  0.040780732   0.04157833            2 
  495000    1.1910112   -6.2889122    242.59913  0.040841605  0.041570779            3 
  496000    1.1710939   -6.2881666    242.48667  0.040740367  0.041563331            3 
  497000    1.1973141   -6.2524816     242.4558  0.040653219   0.04155571            3 
  498000    1.2015957   -6.3003403    243.31643    0.0407156  0.041546535            4 
  499000    1.1791037   -6.2937438    243.83819  0.040721141  0.041537163            5 
  500000    1.1513362    -6.292337    242.98236   0.04049706  0.041527752            5 
  501000    1.1835414   -6.2927118    244.00417   0.04058619  0.041518467            1 
  502000     1.166725   -6.2548423    245.56529   0.04076449  0.041509086            3 
  503000    1.1698617   -6.2928171    244.63089  0.040528643  0.041499321            3 
  504000    1.1720452   -6.2800272    245.55781   0.04060149  0.041490041            2 
  505000    1.1773135   -6.2509033    246.07338  0.040606168  0.041479545            5 
  506000    1.1545608   -6.3028151    245.29435   0.04039762  0.041469215            2 
  507000    1.1660713   -6.2691144    246.81767  0.040568321  0.041458297            2 
  508000    1.1665905   -6.3304575    246.42716  0.040424403   0.04144779            2 
  509000    1.1760581   -6.2567859    247.56212  0.040530799  0.041437162            3 
  510000    1.1817985   -6.2683124    248.34068  0.040578543  0.041426952            2 
  511000    1.1603994   -6.2634936    248.41898  0.040511902  0.041416522            2 
  512000    1.1552461   -6.2652413     248.6276  0.040466731  0.041405935            3 
  513000    1.1574847   -6.2627255    248.18698  0.040316274  0.041394551            2 
  514000    1.1930317   -6.2651331    249.42099  0.040437903  0.041383601            3 
  515000    1.2112702   -6.2663294     249.9717  0.040448495   0.04137287            4 
  516000      1.15958   -6.2812622    250.36468  0.040433573  0.041362387            2 
  517000    1.1779859   -6.2761385    250.91433   0.04044396  0.041351806            2 
  518000    1.1664406   -6.2396666    251.22231  0.040415429  0.041341239            2 
  519000     1.162333    -6.298906    251.37765    0.0403625  0.041330307            4 
  520000    1.1548559   -6.2949947    252.16757  0.040411469  0.041319504            2 
  521000    1.1406783   -6.2867875    252.29222  0.040353842  0.041310716            2 
  522000    1.1631879   -6.2333585    253.97819  0.040545688   0.04130205            4 
  523000    1.1787022   -6.2882105    254.18605  0.040501283  0.041293676            2 
  524000    1.1499963   -6.2971711    254.64001  0.040496186  0.041285029            5 
  525000    1.1758769   -6.3193481    255.53933  0.040561798  0.041276554            1 
  526000    1.1520708   -6.2754489    255.94974  0.040549705   0.04126885            2 
  527000    1.1568816   -6.2984473     256.6341  0.040580978  0.041261292            3 
  528000    1.1929571    -6.261972    257.01099  0.040563604  0.041253599            4 
  529000    1.1579428    -6.297334    256.43531  0.040396236  0.041245448            3 
  530000    1.1853314   -6.2948215    258.08928  0.040580076  0.041237298            2 
  531000    1.1634017   -6.2762806    257.72899  0.040447111  0.041228779            3 
  532000     1.169909   -6.3105091    258.39559    0.0404755  0.041220364            1 
  533000    1.1665371   -6.2822746    259.13726   0.04051552  0.041212021            3 
  534000    1.1819031   -6.2903178    259.86691  0.040553512   0.04120414            7 
  535000    1.1671543   -6.2754995    259.57096  0.040431614   0.04119655            3 
  536000    1.1811861   -6.3288425    259.54429  0.040352034  0.041188992            3 
  537000    1.1725898   -6.3015512    261.10216  0.040518646  0.041180733            3 
  538000    1.1874282   -6.2659437    261.41523  0.040491827  0.041173132            2 
  539000    1.1579681   -6.2943391    261.27903  0.040395644   0.04116529            2 
  540000     1.164964   -6.2946838    262.04919  0.040439691  0.041157567            3 
  541000    1.1668764   -6.2952485    262.55198  0.040442388  0.041149256            2 
  542000    1.1609429   -6.2966383    262.53883  0.040365749  0.041140902            4 
  543000    1.1517371   -6.2788046     263.9939  0.040514717  0.041132781            4 
  544000    1.1780445   -6.2595456     264.2889  0.040485432  0.041125133            3 
  545000    1.1765798   -6.3088221    265.24568  0.040557444  0.041117934            2 
  546000     1.176244   -6.2716774    265.49786  0.040521652  0.041111018            3 
  547000    1.1702033   -6.2955849    265.69932  0.040478263  0.041102955            3 
  548000    1.1668942   -6.2913029    266.41412  0.040513096  0.041095619            3 
  549000    1.1348938    -6.309589    266.48196  0.040449599  0.041088032            3 
  550000    1.1969367   -6.2976858    267.36105   0.04050925  0.041081049            4 
  551000    1.1743205   -6.2928553    268.11836  0.040550266  0.041074317            2 
  552000    1.1759294   -6.2697595    269.06875  0.040620283  0.041067989            5 
  553000    1.1732056   -6.2792854    268.70044  0.040491326  0.041061472            4 
  554000    1.1612223   -6.2318232    269.07336  0.040474333   0.04105467            5 
  555000    1.1562052    -6.267818    270.07581  0.040551923  0.041047577            3 
  556000    1.1892884   -6.2820007    270.10683  0.040483637  0.041040307            3 
  557000      1.16631   -6.2568782    269.76756  0.040360198  0.041033228            2 
  558000     1.160654   -6.3042634    270.36795  0.040377532  0.041025528            5 
  559000    1.1575785   -6.2906972     271.3817  0.040456426  0.041017672            4 
  560000    1.1511813    -6.276797    271.37463  0.040383129  0.041010464            2 
  561000    1.1760482   -6.2834306    271.76133  0.040368587  0.041002791            3 
  562000    1.1847545   -6.2517739    272.65296  0.040428968  0.040995049            5 
  563000    1.1635111   -6.3161431    272.72081  0.040367201  0.040987041            4 
  564000    1.1695471   -6.2771692    272.13989  0.040209794  0.040979469            3 
  565000    1.1758805    -6.299459    273.51251  0.040341079  0.040971868            6 
  566000    1.1511352   -6.2844111    274.69373  0.040443718  0.040965046            7 
  567000    1.1434819   -6.2770598    274.85684  0.040396361  0.040957769            4 
  568000    1.1602057    -6.284328    275.48632  0.040417594  0.040950322            3 
  569000    1.1778113   -6.3011092    275.22758  0.040308667  0.040943223            4 
  570000     1.155564   -6.3141659    276.38855  0.040407683  0.040937121            4 
  571000    1.1652331   -6.3073463    275.34405  0.040184478   0.04093006            3 
  572000    1.1653118   -6.2875614    276.32959  0.040257808  0.040922675            2 
  573000    1.1574653   -6.2802739    276.55322  0.040220073  0.040914457            3 
  574000    1.1622874   -6.3076265    277.06244  0.040223932  0.040906696            3 
  575000    1.1636426   -6.2971922    278.48069   0.04035952  0.040898936            2 
  576000    1.1610724    -6.305714      277.847  0.040197772  0.040891463            2 
  577000    1.1440709   -6.2609906    279.24556  0.040330092   0.04088384            3 
  578000    1.1554076   -6.3324687    278.58462  0.040165026  0.040876138            2 
  579000    1.1614124   -6.3276616    279.17059  0.040179993  0.040867773            5 
  580000    1.1723982   -6.2844288    279.69209  0.040185645   0.04085968            5 
  581000    1.1396911   -6.2779046    281.05062  0.040311334  0.040852268            5 
  582000    1.1817697   -6.3006218    280.12409  0.040109406  0.040844712            4 
  583000    1.1331577   -6.2934678    280.86097  0.040145936  0.040836774            3 
  584000    1.1399564   -6.2664809    281.61476  0.040184755  0.040828156            3 
  585000    1.1518575    -6.325816    281.40796  0.040086604   0.04081969            5 
  586000    1.1301831   -6.3057161    283.21012  0.040274476    0.0408117            3 
  587000    1.1463907   -6.2934688     283.3185  0.040221252  0.040803901            3 
  588000    1.1761616   -6.3324489     283.3052  0.040150963  0.040796694            2 
  589000    1.1442957   -6.3206407    283.88921  0.040165423  0.040789325            3 
  590000    1.1533802   -6.2466064    286.06787  0.040405066  0.040782214            1 
  591000    1.1429094   -6.3117939    285.51792  0.040259154  0.040775355            3 
  592000    1.1761877   -6.3075848    285.59411  0.040201874  0.040768701            4 
  593000    1.1824336   -6.2549889    286.24301  0.040225269  0.040761985            2 
  594000     1.168172   -6.3235862    286.94704  0.040256319  0.040755415            5 
  595000    1.1466413   -6.2817197    287.74545  0.040300483  0.040748552            3 
  596000    1.1507045   -6.3052694    287.97593  0.040265091   0.04074203            2 
  597000    1.1552835   -6.2768006    288.47392  0.040267157  0.040735577            1 
  598000    1.1605807   -6.3514075    287.91535  0.040121984  0.040728692            3 
  599000    1.1528852   -6.3165517    288.75159  0.040171339  0.040721425            4 
  600000    1.1677916   -6.2879347    288.88538  0.040122969  0.040713548            3 
  601000    1.1733677   -6.2767427    289.13634  0.040091006  0.040705323            4 
  602000    1.1318572    -6.308595    289.09692  0.040018953  0.040696811            3 
  603000    1.1493744   -6.3097462    289.72352  0.040039183   0.04068827            3 
  604000    1.1445199   -6.3213712    289.05265  0.039880332   0.04067971            3 
  605000    1.1558337     -6.28979    290.59957  0.040027488  0.040671549            3 
  606000    1.1620858   -6.3139214     290.3878  0.039932316  0.040663465            2 
  607000    1.1552146   -6.2823057    292.17415  0.040111772  0.040655532            2 
  608000    1.1693309   -6.3336738     291.9566  0.040015982  0.040647764            3 
  609000    1.1566029   -6.2953431    292.25866  0.039991607  0.040639802            9 
  610000     1.154856   -6.3537855    293.12023  0.040043747  0.040631705            3 
  611000    1.1872641   -6.3158983    292.11595  0.039841236  0.040623432            2 
  612000    1.1473147   -6.3202506    292.86803  0.039878544  0.040614469            2 
  613000    1.1772415   -6.3106531    292.69774   0.03979034   0.04060542            1 
  614000    1.1837167   -6.2775528    294.75108  0.040004219  0.040596271            1 
  615000    1.1351328   -6.3540518    293.59868  0.039783019  0.040587147            2 
  616000    1.1569854   -6.3064019    293.44762     0.039698  0.040577683            1 
  617000    1.1503182   -6.2819188    294.17191  0.039731484   0.04056878            1 
  618000    1.1230914   -6.3036178    294.59324  0.039724008  0.040559627            5 
  619000    1.1770937   -6.3379499    296.62296  0.039933086   0.04055042            3 
  620000    1.1795658   -6.2927129    297.16262  0.039941212  0.040541896            3 
  621000    1.1735967   -6.3147838     297.6326  0.039939963  0.040533459            5 
  622000    1.1399002   -6.2990416    297.53634  0.039862854   0.04052487            8 
  623000    1.1661281   -6.3223668      298.468  0.039923489  0.040517144            2 
  624000    1.1626534   -6.3669493    298.19669  0.039823276  0.040509368            2 
  625000    1.1673063   -6.3064978    300.82555  0.040110073  0.040502092            4 
  626000    1.1531194   -6.2717523    300.56455  0.040011255  0.040495078            6 
  627000    1.1292152   -6.3119546    301.00875  0.040006479   0.04048722            3 
  628000    1.1603347   -6.2861679    300.85984  0.039923014  0.040480162            2 
  629000    1.1685126     -6.27054    302.46775  0.040072569  0.040473238            3 
  630000    1.1691387   -6.3514646    302.02476  0.039950365  0.040466052            4 
  631000    1.1436594   -6.3281795    302.70663  0.039977104  0.040458085            3 
  632000    1.1519569   -6.3214153     303.0091  0.039953731  0.040450506            5 
  633000    1.1562918   -6.2739837    303.85255  0.040001652  0.040443443            2 
  634000    1.1548725   -6.3298965    304.29362  0.039996533  0.040436707            2 
  635000    1.1578858   -6.3682401    303.05247  0.039770666  0.040429087            5 
  636000    1.1342904   -6.3400176    304.10071  0.039845481  0.040421813            6 
  637000    1.1598378   -6.3185602    305.25826  0.039934362  0.040414406            2 
  638000    1.1326983   -6.3094414    304.81099  0.039813348  0.040406749            4 
  639000    1.1743318   -6.2965285    305.69128  0.039865842  0.040399132            9 
  640000    1.1399126   -6.2893628    306.74121  0.039940262  0.040392115            3 
  641000    1.1487873   -6.3397528    305.98139  0.039779172  0.040384482            3 
  642000     1.154646   -6.2681025    307.77781  0.039950391   0.04037685            1 
  643000    1.1459492   -6.3160115    307.28628  0.039824557  0.040369055            2 
  644000    1.1552307   -6.3269835    308.39683  0.039906422  0.040360916            6 
  645000    1.1308377   -6.3334501    308.32418  0.039835166  0.040352995            3 
  646000     1.176226   -6.3104362    308.67162   0.03981832  0.040345161            3 
  647000    1.1459972   -6.3402983    307.56459  0.039614193  0.040336942            3 
  648000     1.151825   -6.3275297    309.34395  0.039781886  0.040328663            2 
  649000    1.1555899   -6.3156359     309.2796  0.039712327  0.040320064            2 
  650000    1.1589242   -6.3399322    309.08953  0.039626862  0.040311335            3 
  651000    1.1453351   -6.3052566    310.53637    0.0397512  0.040302728            3 
  652000    1.1440727   -6.2698346    311.09759  0.039761961  0.040294294            3 
  653000    1.1595147   -6.3366073    310.17054  0.039582765  0.040285562            2 
  654000    1.1440007   -6.2877753    311.00381  0.039628416  0.040276768            5 
  655000    1.1330715   -6.3156971    311.30182   0.03960583  0.040267914            2 
  656000    1.1666708   -6.3399546    311.46903  0.039566696  0.040259673            2 
  657000    1.1201521   -6.3332184    312.14805  0.039592599  0.040251244            3 
  658000    1.1326455    -6.329634    313.30462  0.039678903  0.040243103            3 
  659000    1.1256999    -6.327682    314.25156  0.039738437  0.040234317            2 
  660000    1.1496384   -6.3100352    314.56397  0.039717673   0.04022596            4 
  661000    1.1584181   -6.3017816    314.67518  0.039671606  0.040217791            6 
  662000    1.1448935     -6.34574    313.89901  0.039513974  0.040209743            4 
  663000    1.1455784   -6.3486237    315.21362  0.039619611  0.040201329            2 
  664000    1.1434286   -6.3125024    316.20847  0.039684798  0.040193172            3 
  665000    1.1468409   -6.3316447    316.05652  0.039606081  0.040185486            4 
  666000     1.137747   -6.3209554    316.95782  0.039659387  0.040177682            3 
  667000     1.114238   -6.2925126    317.58614  0.039678428  0.040170119            6 
  668000    1.1602819   -6.3216472    316.87058  0.039529762  0.040162289            6 
  669000    1.1813828   -6.3561262    317.22507  0.039514831  0.040154062            4 
  670000    1.1401162   -6.3127343    317.92661   0.03954311  0.040146096            5 
  671000    1.1492822    -6.306777    318.86422  0.039600624  0.040137765            2 
  672000    1.1459928   -6.3532092     319.2203   0.03958585  0.040129688            3 
  673000    1.1189201   -6.3352588    318.96921   0.03949594  0.040121414            3 
  674000    1.1129135   -6.3362208    320.20677  0.039590353  0.040113091            2 
  675000     1.131511   -6.3161388    319.28103  0.039417411  0.040104481            3 
  676000    1.1452725   -6.2969397    319.91162  0.039436837  0.040095989            3 
  677000    1.1320224   -6.3521522    319.97867  0.039386838  0.040087192            5 
  678000    1.1506611   -6.3122534     321.6408  0.039533038  0.040078244            2 
  679000    1.1310074   -6.2776672    321.12979    0.0394121  0.040069273            2 
  680000    1.1470489    -6.293214    321.25496   0.03936948  0.040060063            7 
  681000    1.1348091   -6.3213363    321.51303  0.039343249  0.040050715            8 
  682000    1.1534979   -6.3303581    322.53368  0.039410274  0.040040878            2 
  683000     1.155197   -6.2977981    322.23696  0.039316368  0.040030851            2 
  684000    1.1322194   -6.3302356    322.75442  0.039321933  0.040020837            3 
  685000     1.147417   -6.3553609    323.20871  0.039319794  0.040011157            3 
  686000    1.1240299    -6.325893    323.64473  0.039315443   0.04000172            1 
  687000    1.1313893   -6.3357431    324.25169   0.03933184  0.039992576            3 
  688000    1.1255695    -6.359863    323.80731  0.039220847   0.03998349            2 
  689000    1.1693446   -6.3325791    325.51617  0.039370606  0.039974273            7 
  690000    1.1392813   -6.3312846    325.05511  0.039257863  0.039965107            3 
  691000    1.1262594    -6.314329    326.20393  0.039339596  0.039955816            4 
  692000    1.1125659   -6.3002883    327.76263  0.039470451  0.039946311            3 
  693000    1.1634432   -6.3677801    326.71525  0.039287548  0.039937058            4 
  694000    1.1437079   -6.3431734    327.08059  0.039274807  0.039927953            2 
  695000    1.1266544   -6.3130313    327.78789  0.039303104  0.039918591            3 
  696000    1.1316521   -6.3372496    327.66926   0.03923243  0.039909174            2 
  697000    1.1300702   -6.3390846     327.7896   0.03919053  0.039899604            4 
  698000    1.1522268   -6.3240257     328.5072  0.039220058  0.039890068            2 
  699000    1.1362696   -6.3219022    329.22415  0.039249422  0.039880279            7 
  700000    1.1248701   -6.3821469    328.35647  0.039090056    0.0398709            5 
  701000    1.1598847   -6.3560127    329.60433  0.039182636    0.0398613            3 
  702000    1.1519075   -6.3642682    329.19252  0.039077934  0.039851747            2 
  703000    1.1341087   -6.3512138     330.3587  0.039160586  0.039841743            4 
  704000    1.1097157   -6.3640532     330.1904  0.039085038  0.039832079            2 
  705000    1.1146982   -6.3114085    331.66494  0.039203894   0.03982222            3 
  706000    1.1329175   -6.3131341    331.78382  0.039162396  0.039812601            6 
  707000    1.1391067   -6.3753848    331.46848  0.039069835  0.039802894            4 
  708000    1.1241223   -6.3489195    331.71731  0.039043939  0.039792494            3 
  709000     1.135032   -6.3303824     332.6217  0.039095169  0.039782416            2 
  710000    1.1199838   -6.3741494     331.7945  0.038943016    0.0397721            2 
  711000    1.1270414   -6.3466571    332.57964  0.038980267   0.03976195            2 
  712000    1.1448484   -6.2970311    334.01761  0.039093822  0.039752205            4 
  713000    1.1349542   -6.3747256    334.34285  0.039077004  0.039742452            3 
  714000    1.1398893   -6.3429578    335.64621  0.039174395  0.039733156            4 
  715000    1.1521216   -6.3305462    334.61649  0.038999591  0.039724175            3 
  716000    1.1351501   -6.3151787    336.05603  0.039112666  0.039715109            2 
  717000    1.1130897    -6.397554    335.92629  0.039043037  0.039705759            3 
  718000    1.1470971   -6.2982736    337.01965  0.039115559  0.039696404            2 
  719000    1.1473249   -6.3293612    335.83637  0.038924011   0.03968731            3 
  720000    1.1252041   -6.3777972     336.8887  0.038991747  0.039677539            2 
  721000    1.1271027   -6.3537089     338.4133  0.039113881  0.039667823            3 
  722000     1.140518   -6.3770598    337.01298  0.038898082  0.039658285            3 
  723000    1.1380505   -6.3430903    337.67867  0.038921009  0.039648739            4 
  724000    1.1361556   -6.3461716    338.18405   0.03892542  0.039639535            3 
  725000    1.1309785   -6.3177809     338.6833  0.038929114  0.039630049            3 
  726000    1.1394413   -6.3233681    339.80249  0.039003959  0.039620839            3 
  727000    1.1171047   -6.3671777    338.99682  0.038857957    0.0396111            3 
  728000    1.1344871   -6.3076358    339.68214  0.038883029  0.039601185            4 
  729000    1.1479443   -6.3653734    339.64441  0.038825378  0.039590942            2 
  730000    1.1195123   -6.3088184    340.55541  0.038876189  0.039580964            4 
  731000    1.1541683   -6.3473652    340.83256  0.038854601  0.039570689            4 
  732000    1.1133673   -6.3067287    341.03369  0.038824418  0.039560503            2 
  733000    1.1086368   -6.3247219    342.23585  0.038908123  0.039550492            5 
  734000    1.1147491   -6.3364214    342.11866   0.03884181  0.039540229            3 
  735000    1.1320197    -6.377157    342.40047  0.038820915  0.039530504            2 
  736000    1.1427327   -6.3438838    342.70937  0.038803144  0.039520131            6 
  737000    1.1351009   -6.3556946    343.29681  0.038816916  0.039510035            3 
  738000    1.1495659    -6.331013    344.45892  0.038895542  0.039500291            3 
  739000    1.1555704    -6.353427    344.91538  0.038894382  0.039490303            3 
  740000    1.1336463   -6.3546911    344.86547  0.038836202  0.039480501            2 
  741000    1.1425753   -6.3528863     344.7134   0.03876669  0.039470816            4 
  742000    1.1091634   -6.3460507    345.26179  0.038776032  0.039461098            3 
  743000     1.123363   -6.3487608    346.69651  0.038884759  0.039451285            2 
  744000    1.1115796   -6.3670364    346.27264  0.038785018  0.039441259            2 
  745000    1.1304179   -6.3341037    346.14047  0.038718173  0.039430797            2 
  746000    1.1455888   -6.3353186    346.83018  0.038743318    0.0394204            2 
  747000    1.1249779   -6.3602557    346.39979  0.038643439  0.039410337            3 
  748000    1.1228052   -6.3454002    346.98953  0.038657479  0.039399845            2 
  749000    1.1002193   -6.3395459    348.55617   0.03878017  0.039389934            2 
  750000    1.1232547   -6.2811799    348.71271  0.038745857  0.039380224            3 
  751000    1.1283874   -6.3356013    349.51706  0.038783517  0.039370206            3 
  752000    1.1388942    -6.355245     348.6272  0.038633334  0.039360221            5 
  753000    1.1389505   -6.3197903    349.48071  0.038676484  0.039349991            4 
  754000    1.1349302    -6.315371    350.26955  0.038712373  0.039340123            3 
  755000    1.0971726    -6.321252    350.23276  0.038657038  0.039329994            3 
  756000    1.1516003    -6.336408    350.91285   0.03868087  0.039319888            4 
  757000    1.1495138   -6.3429537    352.48663  0.038803019  0.039309987            9 
  758000    1.1862307   -6.3443479    352.16617  0.038716598  0.039299734            2 
  759000    1.1514064   -6.3768225    349.20543  0.038340517   0.03928942            3 
  760000    1.1044467     -6.33918    351.78014  0.038572384  0.039278722            2 
  761000    1.1357821   -6.3311655    351.00452  0.038436763  0.039268318            3 
  762000     1.135964    -6.333449    353.98255  0.038712003  0.039258142            4 
  763000    1.1400996    -6.382528     353.1501  0.038570347  0.039247872            4 
  764000    1.1059464   -6.3400684    354.25654  0.038640548  0.039237501            3 
  765000    1.1065498   -6.2906972    353.25637  0.038481086  0.039227581            2 
  766000    1.1387733   -6.3306862     353.6664  0.038475457   0.03921678            2 
  767000     1.135336   -6.3534635    352.79887  0.038331038  0.039205776            2 
  768000    1.1338826   -6.3227395    354.10355  0.038422694  0.039194565            2 
  769000    1.1287244   -6.3769934     354.0469  0.038366591  0.039183542            4 
  770000    1.1318373   -6.3742563    353.34503  0.038240804  0.039172306            2 
  771000     1.106998   -6.3319407      355.021  0.038372352  0.039161345            3 
  772000    1.1424368   -6.3503382    355.87808  0.038415165  0.039150731            2 
  773000    1.1258636   -6.3579034     356.8334  0.038468456   0.03914012            9 
  774000    1.0991623   -6.3551508    356.79531  0.038414654  0.039129414            2 
  775000    1.1198722    -6.347609    357.33149   0.03842274   0.03911902            3 
  776000    1.1447248   -6.3775703    357.25751  0.038365282  0.039108668            2 
  777000    1.1406681   -6.3549522    357.86438  0.038380994   0.03909834            3 
  778000    1.1234477   -6.3433036    358.26408  0.038374473  0.039088122            6 
  779000    1.1104423   -6.3170107    359.83947  0.038493739  0.039077979            3 
  780000    1.1277563   -6.3324998    359.27777  0.038384377  0.039068246            4 
  781000    1.1601186   -6.3397645    360.03154  0.038415657  0.039058334            3 
  782000    1.1258002   -6.3581664    359.99666  0.038362815  0.039048213            2 
  783000    1.1170394   -6.3629903    360.81969  0.038401415  0.039037863            5 
  784000    1.1293243   -6.3897842     361.5903  0.038434343  0.039027915            5 
  785000    1.1264509   -6.3644248    361.39043  0.038364164  0.039017911            2 
  786000    1.1217568   -6.3855998    360.65889  0.038237796  0.039008025            3 
  787000    1.1151188   -6.3777116     362.2084  0.038353282  0.038998177            7 
  788000    1.1301025   -6.3854828    362.71501  0.038358187  0.038988252            5 
  789000    1.1323395   -6.3705964    362.67162  0.038304987  0.038978359            2 
  790000    1.1284674   -6.3740175    364.05681  0.038402618   0.03896862            3 
  791000    1.1363948   -6.3656762    363.78252  0.038325171  0.038958805            2 
  792000    1.1083883   -6.3638455    365.46585  0.038453899  0.038948844            2 
  793000    1.1375541   -6.3528296    365.33945  0.038392124  0.038939092            1 
  794000    1.1145221   -6.3596704    364.90875  0.038298567  0.038929212            2 
  795000    1.1091793   -6.3619617    364.69662  0.038228157  0.038919435            4 
  796000    1.0966246   -6.3857131    365.67049  0.038282086  0.038909676            3 
  797000    1.1098325   -6.3118139    366.61936  0.038333266  0.038900154            3 
  798000    1.1057331    -6.380388    367.56476  0.038383956  0.038891092            3 
  799000    1.1165715   -6.3731029    368.74239  0.038458739  0.038882092            5 
  800000    1.1074074   -6.3269953     369.2565  0.038464219  0.038873323            3 
  801000    1.1277369    -6.328673    368.73539  0.038361984  0.038864529            4 
  802000    1.1266848   -6.3291091    369.18972  0.038361359  0.038855511            5 
  803000    1.0937857   -6.3549786    369.21663  0.038316379  0.038846358            6 
  804000    1.1243544   -6.3443517     370.0379  0.038353845  0.038837268            2 
  805000    1.1305254   -6.3605795    370.11051  0.038313717  0.038828317            4 
  806000    1.1207678   -6.3501437    371.00123  0.038358274  0.038819948            2 
  807000    1.1184826   -6.3483295    371.72155  0.038385125   0.03881122            7 
  808000    1.1462706   -6.3716331    372.64834  0.038433203  0.038802695            3 
[...]
 4800000    0.4787381   -7.6816164    842.30586  0.014623366  0.013088167         1369 
 4801000   0.47675608   -7.6788485    842.50676  0.014623807  0.013084078         1325 
 4802000   0.48908761   -7.6854745    843.08438  0.014630785  0.013079986         1300 
 4803000   0.48516027   -7.6743325     843.0239   0.01462669  0.013075899         1318 
 4804000    0.4756805   -7.6750682    842.23837  0.014610019  0.013071812         1318 
 4805000   0.48557858   -7.6830196    843.62737  0.014631068  0.013067732         1357 
 4806000   0.47914483   -7.6801496    843.03817  0.014617807  0.013063655         1308 
 4807000   0.47934983   -7.6816284    843.09155  0.014615691  0.013059575         1318 
 4808000   0.47385845   -7.6711532    842.18822  0.014596995  0.013055497         1314 
 4809000   0.48218482   -7.6877964    842.34254  0.014596634  0.013051417         1243 
 4810000   0.48681493   -7.6880601     842.6873  0.014599572  0.013047343         1302 
 4811000   0.47051747   -7.6750993    842.27919  0.014589468  0.013043268         1334 
 4812000   0.48581185   -7.6701799     842.6847  0.014593459  0.013039196         1297 
 4813000    0.4915964   -7.6762978    842.91967  0.014594495  0.013035127         1306 
 4814000   0.47678419    -7.670194    843.10333  0.014594643  0.013031058         1310 
 4815000   0.47866314   -7.6752866    842.73405  0.014585221   0.01302699         1340 
 4816000   0.48264014   -7.6838785    843.35165  0.014592879  0.013022927         1267 
 4817000   0.47790491   -7.6682265    843.87425   0.01459889  0.013018862         1323 
 4818000   0.47295293   -7.6932276    843.20746  0.014584327  0.013014799         1335 
 4819000   0.48789252   -7.6797051    842.48365  0.014568784  0.013010733         1309 
 4820000    0.4930973   -7.6741125    842.95676  0.014573941  0.013006673         1293 
 4821000   0.48225867   -7.6797104    841.23376  0.014541135  0.013002614         1349 
 4822000   0.47223505   -7.6903129    842.16809  0.014554267  0.012998554         1347 
 4823000   0.47497979   -7.6911883     843.0112  0.014565817  0.012994495         1295 
 4824000   0.48639011   -7.6733952    843.98939  0.014579695  0.012990439         1331 
 4825000   0.48669792   -7.6909875    844.52242  0.014585879  0.012986384         1344 
 4826000   0.47397213   -7.6820404     842.8152  0.014553378  0.012982331         1300 
 4827000   0.48217167   -7.6739058    843.98172  0.014570501  0.012978277         1228 
 4828000   0.48221514    -7.695223    842.66244  0.014544712  0.012974229         1325 
 4829000   0.48757666   -7.6724266    842.04561  0.014531056  0.012970182         1391 
 4830000   0.48782715   -7.6934024    842.82217  0.014541445  0.012966138         1311 
 4831000   0.47992516   -7.6738234    841.56747  0.014516792   0.01296209         1307 
 4832000   0.47987557   -7.6786229    842.35275  0.014527331  0.012958046         1276 
 4833000   0.47150156   -7.6951153    842.78163   0.01453172  0.012954001         1331 
 4834000   0.47256809   -7.6756455     842.8069  0.014529149   0.01294996         1294 
 4835000   0.48012163   -7.6885739    843.33936  0.014535322  0.012945922         1307 
 4836000   0.47797684   -7.6683219    842.11538  0.014511225  0.012941886         1340 
 4837000    0.4763426   -7.6969288    842.12786  0.014508439  0.012937849         1394 
 4838000   0.48781105   -7.6946354    843.51518  0.014529337  0.012933814         1371 
 4839000   0.47666456    -7.675863        843.6  0.014527795  0.012929781         1288 
 4840000   0.48142212   -7.6906209    841.81583  0.014494074  0.012925749         1328 
 4841000   0.48552219   -7.7003027     841.1305  0.014479283  0.012921719         1370 
 4842000   0.47196882   -7.6894806    843.21478  0.014512164   0.01291769         1329 
 4843000   0.48058986   -7.6822124    843.08264  0.014506894  0.012913662         1312 
 4844000   0.48219308   -7.6879894    843.15763  0.014505189  0.012909635         1340 
 4845000   0.47652492   -7.6864606    843.03451  0.014500077  0.012905608         1342 
 4846000   0.47899889   -7.7004228    843.27786   0.01450127  0.012901587         1339 
 4847000   0.48086282   -7.6712808    841.82912  0.014473371  0.012897566         1341 
 4848000    0.4770824   -7.6773305    842.89001  0.014488621  0.012893544         1327 
 4849000   0.47194669   -7.6894357    842.88095  0.014485477  0.012889528         1308 
 4850000    0.4748451   -7.6788545    843.12868  0.014486747  0.012885513         1250 
 4851000   0.47505116   -7.6855338    842.33549  0.014470135  0.012881498         1342 
 4852000   0.47128973   -7.6790254    842.22243  0.014465211  0.012877484         1342 
 4853000   0.47371458   -7.6819865    841.35016  0.014447252  0.012873472         1296 
 4854000   0.47145162   -7.6854853    842.55782  0.014465009  0.012869463         1332 
 4855000   0.47663013   -7.6813034    841.83769  0.014449669   0.01286545         1318 
 4856000   0.47224958   -7.6819204    842.38153  0.014456026  0.012861444         1312 
 4857000   0.47318677   -7.6695486    842.50631   0.01445519  0.012857439         1364 
 4858000   0.47612697   -7.6803328    842.94441   0.01445973  0.012853436         1302 
 4859000   0.48849575   -7.6859565    843.83141  0.014471966  0.012849437         1291 
 4860000   0.47251685   -7.6802407    842.77321  0.014450844  0.012845438         1325 
 4861000   0.47745251   -7.6831004    841.98229  0.014434312  0.012841438         1274 
 4862000     0.469913   -7.6891669    842.42799  0.014438982  0.012837439         1321 
 4863000   0.46807756   -7.6602724     842.4583  0.014436533  0.012833441         1302 
 4864000   0.47071042   -7.6865665    843.22061  0.014446625  0.012829447         1350 
 4865000    0.4685749   -7.6903125    842.76549   0.01443586  0.012825454         1292 
 4866000   0.47810936   -7.6982519    843.53376   0.01444605  0.012821461         1388 
 4867000   0.47080681   -7.6859096    841.23928  0.014403796  0.012817472         1289 
 4868000   0.46769277   -7.6925568    842.34677  0.014419795  0.012813484         1296 
 4869000   0.47089107   -7.7047602    841.88776  0.014408978  0.012809498         1325 
 4870000   0.46932532   -7.7074831    841.93674  0.014406857  0.012805511         1318 
 4871000   0.47633382   -7.7025576    841.52589  0.014396871  0.012801523         1265 
 4872000   0.46926006   -7.6898222    841.62465  0.014395605   0.01279754         1328 
 4873000   0.46779378   -7.6737607    842.80002  0.014412751  0.012793558         1290 
 4874000   0.46763481   -7.6941591    841.22033  0.014382785  0.012789582         1353 
 4875000   0.47346667   -7.6922777    841.75998   0.01438906  0.012785601         1307 
 4876000   0.47460169   -7.7004676    841.64804  0.014384195  0.012781622         1277 
 4877000   0.46590672   -7.6926894    841.64982  0.014381276  0.012777644         1335 
 4878000   0.46364544   -7.6919207    841.50053  0.014375778  0.012773668         1330 
 4879000   0.47447951   -7.6782049    843.10884  0.014400301  0.012769694         1351 
 4880000   0.46727272    -7.699303    842.77792  0.014391699   0.01276572         1379 
 4881000   0.46434753    -7.707917    841.52658  0.014367387  0.012761747         1344 
 4882000   0.48122383    -7.704888    842.86766  0.014387335  0.012757775         1342 
 4883000   0.47134892    -7.687026    841.73573  0.014365072  0.012753805         1358 
 4884000   0.46760451   -7.6857906    842.15186   0.01436923  0.012749833         1314 
 4885000   0.47673637   -7.7152347    841.54593  0.014355952  0.012745869         1435 
 4886000   0.46947206   -7.7003291    842.31715  0.014366168  0.012741904         1322 
 4887000   0.46334035   -7.6990641     841.5565  0.014350257  0.012737941         1340 
 4888000   0.46047284   -7.7115686    842.78048  0.014368189  0.012733981         1283 
 4889000   0.47389064   -7.6876013    841.75917  0.014347842  0.012730018         1312 
 4890000   0.47012667   -7.6893219    842.42591   0.01435627  0.012726056         1305 
 4891000   0.47210039   -7.7095221    842.36831  0.014352353  0.012722094         1345 
 4892000   0.46520996   -7.6928961    842.64895    0.0143542  0.012718139         1307 
 4893000   0.46566322    -7.692753    841.50995  0.014331868  0.012714184         1349 
 4894000   0.47206821   -7.6876435    841.72225  0.014332554  0.012710227         1337 
 4895000   0.46408976   -7.7020927    842.44985  0.014342013  0.012706274         1361 
 4896000    0.4680513   -7.6807138    841.17261  0.014317344  0.012702326         1375 
 4897000   0.46939119   -7.7086618     841.9203  0.014327144  0.012698374         1404 
 4898000   0.47091748   -7.6893698    841.79852  0.014322147  0.012694421         1343 
 4899000   0.47159956   -7.7041557    841.21571   0.01430931  0.012690472         1375 
 4900000   0.46393443   -7.7079432    842.40713  0.014326652  0.012686523         1344 
 4901000   0.46897109   -7.7132062    841.46466  0.014307704  0.012682579         1383 
 4902000    0.4583095   -7.7111136    840.88919  0.014295002  0.012678634         1393 
 4903000   0.45944707   -7.7138003    841.98974  0.014310792  0.012674691         1376 
 4904000   0.48249325   -7.6970748     841.7057  0.014303047  0.012670747         1399 
 4905000   0.47091967   -7.6951162    840.46627  0.014279074  0.012666809         1346 
 4906000   0.46576994   -7.7082947    841.38767  0.014291814  0.012662867         1322 
 4907000   0.46077608   -7.7085295       841.14  0.014284695  0.012658931         1407 
 4908000   0.46724766    -7.710118    841.72664  0.014291745  0.012654993         1389 
 4909000   0.45767735    -7.700674    840.64274  0.014270434  0.012651054         1379 
 4910000   0.47077781   -7.6959006    841.19048  0.014276824   0.01264712         1348 
 4911000   0.47689242   -7.7079386    841.58349  0.014280586  0.012643189         1373 
 4912000   0.47171949   -7.6869622    841.40299  0.014274616  0.012639259         1356 
 4913000   0.46866866   -7.6830691     841.4864  0.014273126  0.012635331         1406 
 4914000   0.47155614   -7.7132391    841.53879   0.01427111  0.012631406         1342 
 4915000   0.45741809   -7.7153837    842.69792  0.014287859  0.012627482         1321 
 4916000   0.46352761    -7.710807    841.90601  0.014271528  0.012623559         1290 
 4917000   0.46188304   -7.7047933    841.81091  0.014267014  0.012619639         1353 
 4918000     0.468529   -7.6917017    841.15708  0.014253034  0.012615719         1342 
 4919000   0.45841018   -7.7161933    842.84971  0.014278812    0.0126118         1384 
 4920000   0.46519139   -7.6976783    841.15039  0.014247127  0.012607881         1350 
 4921000   0.45450536   -7.6953231    842.98579  0.014275313  0.012603961         1317 
 4922000   0.46498507   -7.7000891     841.1105  0.014240663  0.012600043         1336 
 4923000   0.46513143   -7.7121242    841.52611  0.014244805   0.01259613         1336 
 4924000    0.4661245   -7.6950349    841.01765  0.014233307  0.012592215         1323 
 4925000   0.46393072   -7.7135274    840.61406  0.014223588  0.012588304         1371 
 4926000   0.46771251   -7.6955793    842.24359  0.014248268  0.012584394         1334 
 4927000    0.4612831   -7.6956529    840.55102  0.014216748  0.012580488         1389 
 4928000   0.47134826   -7.7214612    841.41891  0.014228539  0.012576581         1382 
 4929000   0.46525742     -7.68708    841.76372  0.014231482  0.012572677         1475 
 4930000   0.45692288   -7.7044101    841.05587  0.014216631  0.012568772         1358 
 4931000   0.45610134   -7.7078456    842.36201  0.014235821  0.012564866         1380 
 4932000   0.45785265   -7.7203623    841.96235  0.014226182  0.012560966         1336 
 4933000     0.453352   -7.7177371    840.86475  0.014204756  0.012557068         1378 
 4934000   0.47296164   -7.7093298    841.33731  0.014209859  0.012553169         1415 
 4935000   0.46561599   -7.6975482    841.77443  0.014214361  0.012549276         1391 
 4936000   0.45837584    -7.708728    841.82496  0.014212334  0.012545381         1391 
 4937000   0.44897099   -7.7008261    840.90468  0.014193921  0.012541487         1335 
 4938000   0.46036492   -7.7077485     841.8799  0.014207505  0.012537595         1352 
 4939000   0.46220093   -7.7169689    840.30738  0.014178096  0.012533706         1357 
 4940000   0.46505171   -7.7138297    841.95673  0.014203049  0.012529816         1319 
 4941000   0.45775849   -7.7022984    840.58614  0.014177058  0.012525928         1381 
 4942000   0.45479403   -7.6953353    840.07504  0.014165571  0.012522041         1392 
 4943000   0.46578202   -7.7002085    840.62132  0.014171915  0.012518155         1389 
 4944000   0.46298636   -7.7166964    841.71606  0.014187501  0.012514275         1343 
 4945000   0.46902574   -7.7070414    842.84308  0.014203625  0.012510394         1396 
 4946000   0.46972421   -7.7081058    841.48172  0.014177816  0.012506513         1388 
 4947000   0.45510779   -7.7231645    841.21426  0.014170444  0.012502634         1373 
 4948000   0.45692908    -7.708978    841.05099  0.014164831  0.012498756         1373 
 4949000   0.46405074   -7.7121276    842.28314  0.014182716   0.01249488         1434 
 4950000   0.45521806   -7.7256302    840.60336  0.014151572  0.012491005         1433 
 4951000   0.46657492   -7.7120141    842.43992  0.014179626   0.01248713         1343 
 4952000   0.45235328   -7.7198443    842.48867  0.014177583  0.012483259         1352 
 4953000    0.4500538   -7.7176656     841.5077  0.014158216  0.012479387         1362 
 4954000   0.45987667   -7.7105574    841.03993  0.014147489  0.012475519         1372 
 4955000   0.46348332   -7.7131903    841.75157  0.014156602  0.012471651         1398 
 4956000   0.44468785   -7.7145186    841.35897  0.014147144  0.012467787         1376 
 4957000   0.45382972   -7.7265693    840.99046  0.014138095  0.012463921         1393 
 4958000   0.45291563    -7.712583    841.51154  0.014144002  0.012460055         1349 
 4959000   0.45921163   -7.7038003    841.17791  0.014135543  0.012456195         1317 
 4960000   0.44891647    -7.718078    841.21033  0.014133238  0.012452335         1426 
 4961000   0.45839393   -7.7112964    840.43895  0.014117432  0.012448476         1363 
 4962000   0.45553534   -7.7004857    841.73409  0.014136338  0.012444619         1398 
 4963000   0.45405167   -7.7230392    840.40317  0.014111142  0.012440762         1358 
 4964000   0.46031567   -7.7021111     840.3511  0.014107425  0.012436905         1328 
 4965000   0.46394154   -7.7131872    841.60476  0.014125625  0.012433052         1415 
 4966000   0.46416681   -7.7107744    841.45369  0.014120246  0.012429203         1365 
 4967000   0.46055035   -7.7099939    841.49193  0.014118045  0.012425349         1370 
 4968000   0.45601276   -7.7288178    840.76629  0.014103031  0.012421498         1391 
 4969000   0.45738394    -7.709844    840.62546  0.014097831  0.012417646         1389 
 4970000    0.4507548   -7.7203418    840.75191  0.014097114  0.012413798         1355 
 4971000   0.45750114   -7.7176913    840.74756  0.014094206  0.012409954         1361 
 4972000   0.44796042   -7.7277611    841.29237  0.014100502  0.012406107         1407 
 4973000   0.45936115   -7.7259139    841.10218   0.01409448  0.012402262         1410 
 4974000   0.45907049   -7.7234679    841.52808  0.014098782  0.012398419         1364 
 4975000   0.46273893   -7.7169328    841.48564  0.014095237  0.012394579         1365 
 4976000   0.45807424   -7.7208491    841.06444   0.01408535  0.012390738         1366 
 4977000   0.46060995   -7.7305877    840.34976  0.014070554  0.012386899         1358 
 4978000   0.45671585   -7.7279282    841.79563  0.014091932  0.012383062         1397 
 4979000   0.46626324   -7.7208574    840.34843   0.01406488  0.012379225         1406 
 4980000   0.44926104   -7.7242932    841.10964  0.014074793  0.012375393         1391 
 4981000   0.45447068   -7.7193213    840.20956  0.014056909  0.012371562         1386 
 4982000   0.46303774   -7.7220434    840.32676  0.014056048   0.01236773         1414 
 4983000   0.46241942   -7.7205389     841.2628  0.014068881  0.012363899         1392 
 4984000   0.46133882   -7.7196126      840.508  0.014053438  0.012360071         1437 
 4985000   0.46506948   -7.7180521     841.6111  0.014069059  0.012356244         1459 
 4986000   0.45066089   -7.7268053    841.14957  0.014058523  0.012352419         1416 
 4987000   0.45263143   -7.7057719    839.30734  0.014024921  0.012348593         1348 
 4988000   0.45857395   -7.7061782     840.3402  0.014039364   0.01234477         1386 
 4989000   0.44711292   -7.7098305    839.97699  0.014030484  0.012340951         1396 
 4990000   0.45253354   -7.7379696    841.12412  0.014046829  0.012337131         1368 
 4991000   0.44986033   -7.7121526    840.99083  0.014041789  0.012333311         1359 
 4992000   0.45451435   -7.7290345    841.43203  0.014046341  0.012329492         1368 
 4993000    0.4563729   -7.7061568    839.86978  0.014017454  0.012325675         1372 
 4994000    0.4481634   -7.7219966    839.60122  0.014010166  0.012321859         1379 
 4995000   0.45431297   -7.7224374     841.0829   0.01403208  0.012318044         1395 
 4996000   0.45615809   -7.7258148    840.18445  0.014014286  0.012314231         1398 
 4997000   0.44588617    -7.708125    839.82403   0.01400547  0.012310419         1377 
 4998000   0.44890028   -7.7278939      840.443  0.014012989  0.012306612         1447 
 4999000    0.4517037   -7.7185933    839.83173  0.013999996  0.012302806         1414 
 5000000   0.45670452    -7.715331    840.41113  0.014006852  0.012299001         1380 
 5001000   0.44428909   -7.7217689    840.59354  0.014007091    0.0122952         1431 
 5002000   0.44931694   -7.7229832    841.47193  0.014018925  0.012291396         1356 
 5003000   0.45004682   -7.7375809    840.10164  0.013993298  0.012287594         1354 
 5004000   0.44835341   -7.7154083    840.51245  0.013997343  0.012283793         1438 
 5005000   0.44581761   -7.7216104    840.20604  0.013989445  0.012279998         1447 
 5006000   0.45489145     -7.71116    840.09225  0.013984756  0.012276201         1415 
 5007000   0.45277559   -7.7197447    841.33219    0.0140026  0.012272407         1410 
 5008000   0.45171053   -7.7150265    839.60176  0.013971009  0.012268612         1439 
 5009000   0.44763005   -7.7207641    841.06148  0.013992505  0.012264821         1477 
 5010000   0.44308235   -7.7391899     841.2816  0.013993373  0.012261028         1342 
 5011000   0.44449855   -7.7105889    840.33591  0.013974854  0.012257238         1413 
 5012000   0.44874121   -7.7101801    840.86045  0.013980787   0.01225345         1398 
Loop time of 10794.8 on 48 procs for 5000000 steps with 4000 atoms

Performance: 80038.687 tau/day, 463.187 timesteps/s
99.4% CPU use with 48 MPI tasks x no OpenMP threads

MPI task timing breakdown:
Section |  min time  |  avg time  |  max time  |%varavg| %total
---------------------------------------------------------------
Pair    | 694.99     | 777.07     | 799.48     |  56.2 |  7.20
Neigh   | 67.809     | 68.862     | 69.961     |   6.2 |  0.64
Comm    | 590.62     | 621.05     | 697.07     |  74.4 |  5.75
Output  | 15.271     | 15.275     | 15.36      |   0.3 |  0.14
Modify  | 9146.4     | 9192       | 9235.2     |  23.3 | 85.15
Other   |            | 120.5      |            |       |  1.12

Nlocal:        83.3333 ave          88 max          74 min
Histogram: 1 0 3 3 1 12 4 11 3 10
Nghost:        1797.85 ave        1824 max        1781 min
Histogram: 5 7 12 3 3 5 8 2 2 1
Neighs:        11012.2 ave       12574 max        9242 min
Histogram: 1 0 3 5 15 11 4 5 2 2
FullNghs:      22024.2 ave       23718 max       19284 min
Histogram: 1 0 2 5 4 8 12 8 2 6

Total # of neighbors = 1057160
Ave neighs/atom = 264.29000
Neighbor list builds = 269636
Dangerous builds = 2

#clear
#
#next RN
#
#jump SELF
Total wall time: 2:59:57
